
 Working directory              : /scratch/mel64643/tmp/40073319/
 Global scratch directory       : /scratch/mel64643/tmp/40073319/
 Wavefunction directory         : /home/mel64643/wfu/
 Main file repository           : /scratch/mel64643/tmp/40073319/

 id        : ccgc

 Nodes     nprocs
 a1-8         3
 Distribution of processes:   nprocs(total)=    4   nprocs(compute)=    3   nprocs(helper)=    1
 GA implementation: MPI file
 GA implementation (serial work in mppx): MPI file

 Using customized tuning parameters: mindgm=1; mindgv=20; mindgc=4; mindgr=1; noblas=0; minvec=7
 default implementation of scratch files=sf  


 Variables initialized (1015), CPU time= 0.01 sec
 ***,Optimization of min3
 memory,1000,m
 gthresh,energy=1.0d-12,orbital=1.0d-10,oneint=1.0d-16,twoint=1.0d-16,optgrad=1.0d-6,compress=1.0d-13
 geomtyp=xyz
 
  bohr
  geometry = {
  6
  arbitrary comment
  C   -1.3764448113   -0.0260610057    0.0000003134
  O    1.3228623736    0.1161372017    0.0000003449
  H   -2.0814596041    1.9083589835   -0.0000798764
  H   -2.1119833036   -0.9788449918    1.6793228981
  H   -2.1119764156   -0.9789760045   -1.6792508233
  H    1.9352776010   -1.5707463031   -0.0000012667
 }
 
 basis=cc-pvdz
 {rhf;maxit,200}
 {ccsd(t);maxit,200}
 Commands initialized (818), CPU time= 0.01 sec, 672 directives.
 Default parameters read. Elapsed time= 0.10 sec

 Checking input...
 Passed
1


                                         ***  PROGRAM SYSTEM MOLPRO  ***
                                       Copyright, TTI GmbH Stuttgart, 2015
                                    Version 2022.1 linked Mar  4 2022 00:40:14


 **********************************************************************************************************************************
 LABEL *   Optimization of min3                                                          
  64 bit mpp version                                                                     DATE: 07-Aug-25          TIME: 21:25:55  
 **********************************************************************************************************************************

 SHA1:             31073afc4d8441e10870424e0d77336a33bc4286
 **********************************************************************************************************************************

 Memory per process:      1000 MW
 Total memory per node:   3000 MW

 GA preallocation disabled
 GA check disabled

 Variable memory set to 1000.0 MW


 THRESHOLDS:

 ZERO    =  1.00D-12  ONEINT  =  1.00D-16  TWOINT  =  1.00D-16  PREFAC  =  1.00D-14  XXXXXX  =  1.00D-09  EORDER  =  1.00D-04
 ENERGY  =  1.00D-12  ETEST   =  0.00D+00  EDENS   =  0.00D+00  THRDEDEF=  1.00D-06  GRADIENT=  1.00D-05  STEP    =  1.00D-03
 ORBITAL =  1.00D-10  CIVEC   =  1.00D-05  COEFF   =  1.00D-04  PRINTCI =  5.00D-02  PUNCHCI =  9.90D+01  OPTGRAD =  1.00D-06
 OPTENERG=  1.00D-06  OPTSTEP =  3.00D-04  THRGRAD =  1.00D-10  COMPRESS=  1.00D-13  VARMIN  =  1.00D-07  VARMAX  =  1.00D-03
 THRDOUB =  0.00D+00  THRDIV  =  1.00D-05  THRRED  =  1.00D-07  THRPSP  =  1.00D+00  THRDC   =  1.00D-10  THRCS   =  1.00D-10
 THRNRM  =  1.00D-08  THREQ   =  0.00D+00  THRDE   =  1.00D+00  THRREF  =  1.00D-05  SPARFAC =  1.00D+00  THRDLP  =  1.00D-07
 THRDIA  =  1.00D-10  THRDLS  =  1.00D-07  THRGPS  =  0.00D+00  THRKEX  =  0.00D+00  THRDIS  =  2.00D-01  THRVAR  =  1.00D-10
 THRLOC  =  1.00D-06  THRGAP  =  1.00D-06  THRLOCT = -1.00D+00  THRGAPT = -1.00D+00  THRORB  =  1.00D-06  THRMLTP =  0.00D+00
 THRCPQCI=  1.00D-10  KEXTA   =  0.00D+00  THRCOARS=  0.00D+00  SYMTOL  =  1.00D-06  GRADTOL =  1.00D-06  THROVL  =  1.00D-08
 THRORTH =  1.00D-08  THRDLOVL= -1.00D+00  GRID    =  1.00D-06  GRIDMAX =  1.00D-03  DTMAX   =  0.00D+00  THROCCDE=  1.00D-01
 THROCCDE=  1.00D-01  THRPRINT=  2.50D-01

 SETTING GEOMTYP        =    XYZ
 ZUNIT=BOHR

 SETTING BASIS          =    CC-PVDZ


 Recomputing integrals since basis changed


 Using spherical harmonics

 Library entry C      S cc-pVDZ              selected for orbital group  1
 Library entry C      P cc-pVDZ              selected for orbital group  1
 Library entry C      D cc-pVDZ              selected for orbital group  1
 Library entry O      S cc-pVDZ              selected for orbital group  2
 Library entry O      P cc-pVDZ              selected for orbital group  2
 Library entry O      D cc-pVDZ              selected for orbital group  2
 Library entry H      S cc-pVDZ              selected for orbital group  3
 Library entry H      P cc-pVDZ              selected for orbital group  3


 PROGRAM * SEWARD (Integral evaluation for generally contracted gaussian basis sets)     Author: Roland Lindh, 1990

 Geometry written to block  1 of record 700


 Point group  C1  



 ATOMIC COORDINATES

 NR  ATOM    CHARGE       X              Y              Z

   1  C       6.00   -1.376444811   -0.026061006    0.000000313
   2  O       8.00    1.322862374    0.116137202    0.000000345
   3  H       1.00   -2.081459604    1.908358984   -0.000079876
   4  H       1.00   -2.111983304   -0.978844992    1.679322898
   5  H       1.00   -2.111976416   -0.978976004   -1.679250823
   6  H       1.00    1.935277601   -1.570746303   -0.000001267

 Bond lengths in Bohr (Angstrom)

 1-2  2.703050057  1-3  2.058889642  1-4  2.066140978  1-5  2.066140875  2-6  1.794610924
     ( 1.430392490)     ( 1.089517478)     ( 1.093354720)     ( 1.093354666)     ( 0.949667204)

 Bond angles

  1-2-6  106.93766672   2-1-3  107.00914588   2-1-4  112.31896685   2-1-5  112.31896961

  3-1-4  108.14321810   3-1-5  108.14306265   4-1-5  108.73391565

 NUCLEAR CHARGE:                   18
 NUMBER OF PRIMITIVE AOS:          82
 NUMBER OF SYMMETRY AOS:           80
 NUMBER OF CONTRACTIONS:           48   (   48A   )
 NUMBER OF INNER CORE ORBITALS:     0   (    0A   )
 NUMBER OF OUTER CORE ORBITALS:     2   (    2A   )
 NUMBER OF VALENCE ORBITALS:       12   (   12A   )


 NUCLEAR REPULSION ENERGY   40.21899963

 Eigenvalues of metric

         1 0.970E-02 0.176E-01 0.368E-01 0.373E-01 0.377E-01 0.474E-01 0.476E-01 0.513E-01


 Contracted 2-electron integrals neglected if value below      1.0D-16
 AO integral compression algorithm  1   Integral accuracy      1.0D-16

     6.816 MB (compressed) written to integral file ( 98.1%)

     Node minimum: 2.097 MB, node maximum: 2.359 MB


 NUMBER OF SORTED TWO-ELECTRON INTEGRALS:     231084.     BUFFER LENGTH:  32768
 NUMBER OF SEGMENTS:   1  SEGMENT LENGTH:     231084      RECORD LENGTH: 524288

 Memory used in sort:       0.79 MW

 SORT1 READ      832256. AND WROTE      227681. INTEGRALS IN      1 RECORDS. CPU TIME:     0.00 SEC, REAL TIME:     0.02 SEC
 SORT2 READ      682147. AND WROTE      692076. INTEGRALS IN     24 RECORDS. CPU TIME:     0.02 SEC, REAL TIME:     0.02 SEC

 Node minimum:      230300.  Node maximum:      231084. integrals

 OPERATOR DM      FOR CENTER  0  COORDINATES:    0.000000    0.000000    0.000000


 **********************************************************************************************************************************
 DATASETS  * FILE   NREC   LENGTH (MB)   RECORD NAMES
              1      18       28.73       500      610      700      900      950      970     1000      129      960     1100   
                                          VAR    BASINP    GEOM    SYMINP    ZMAT    AOBASIS   BASIS     P2S    ABASIS      S 
                                         1400     1410     1200     1210     1080     1600     1650     1700   
                                           T        V       H0       H01     AOSYM     SMH    MOLCAS    OPER   

 PROGRAMS   *        TOTAL       INT
 CPU TIMES  *         0.44      0.30
 REAL TIME  *         1.30 SEC
 DISK USED  *        29.07 MB (local),      104.31 MB (total)
 GA USED    *         0.00 MB       (max)       0.00 MB       (current)
 **********************************************************************************************************************************


 Program * Restricted Hartree-Fock

 Orbital guess generated from atomic densities. Full valence occupancy:   14

 Initial occupancy:   9

 NELEC=   18   SYM=1   MS2= 0   THRE=1.0D-12   THRD=1.0D-10   THRG=1.0D-10  HFMA2=F  DIIS_START=2   DIIS_MAX=10   DIIS_INCORE=F

 Level shifts:    0.00 (CLOSED)    0.00 (OPEN)    0.30 (GAP_MIN)

 ITER           ETOT              DE          GRAD        DDIFF     DIIS  NEXP   TIME(IT)  TIME(TOT)  DIAG
   1     -115.01412231    -115.01412231     0.00D+00     0.16D+00     0     0       0.01      0.01    start
   2     -115.04238210      -0.02825979     0.10D-01     0.21D-01     1     0       0.00      0.01    diag
   3     -115.04844268      -0.00606058     0.49D-02     0.64D-02     2     0       0.00      0.01    diag
   4     -115.04890106      -0.00045838     0.10D-02     0.20D-02     3     0       0.00      0.01    diag
   5     -115.04892148      -0.00002042     0.18D-03     0.43D-03     4     0       0.01      0.02    diag
   6     -115.04892223      -0.00000075     0.32D-04     0.91D-04     5     0       0.01      0.03    diag
   7     -115.04892226      -0.00000003     0.65D-05     0.14D-04     6     0       0.00      0.03    diag
   8     -115.04892226      -0.00000000     0.21D-05     0.48D-05     7     0       0.00      0.03    fixocc
   9     -115.04892226      -0.00000000     0.43D-06     0.13D-05     8     0       0.00      0.03    diag
  10     -115.04892226      -0.00000000     0.62D-07     0.21D-06     9     0       0.00      0.03    diag/orth
  11     -115.04892226      -0.00000000     0.12D-07     0.36D-07     9     0       0.01      0.04    diag
  12     -115.04892226       0.00000000     0.33D-08     0.98D-08     9     0       0.00      0.04    diag
  13     -115.04892226      -0.00000000     0.58D-09     0.16D-08     9     0       0.00      0.04    diag
  14     -115.04892226       0.00000000     0.14D-09     0.36D-09     9     0       0.00      0.04    diag
  15     -115.04892226      -0.00000000     0.55D-10     0.10D-09     9     0       0.01      0.05    diag
  16     -115.04892226      -0.00000000     0.12D-10     0.30D-10     9     0       0.00      0.05    diag
  17     -115.04892226       0.00000000     0.23D-11     0.45D-11     0     0       0.00      0.05    diag

 Final occupancy:   9

 !RHF STATE 1.1 Energy               -115.048922264000
  RHF One-electron energy            -236.697800053989
  RHF Two-electron energy              81.429878156830
  RHF Kinetic energy                  114.945405791546
  RHF Nuclear energy                   40.218999633159
  RHF Virial quotient                  -1.000900570769

 !RHF STATE 1.1 Dipole moment          -0.41357736    -0.59322652    -0.00000273
 Dipole moment /Debye                  -1.05120879    -1.50783141    -0.00000693

 Orbital energies:

           1.1          2.1          3.1          4.1          5.1          6.1          7.1          8.1          9.1         10.1
    -20.549406   -11.275471    -1.349139    -0.922805    -0.682814    -0.612797    -0.582971    -0.499097    -0.444520     0.185120

          11.1
      0.225094


 HOMO      9.1    -0.444520 =     -12.0960eV
 LUMO     10.1     0.185120 =       5.0374eV
 LUMO-HOMO         0.629641 =      17.1334eV

 Orbitals saved in record  2100.2


 **********************************************************************************************************************************
 DATASETS  * FILE   NREC   LENGTH (MB)   RECORD NAMES
              1      18       28.73       500      610      700      900      950      970     1000      129      960     1100   
                                          VAR    BASINP    GEOM    SYMINP    ZMAT    AOBASIS   BASIS     P2S    ABASIS      S 
                                         1400     1410     1200     1210     1080     1600     1650     1700   
                                           T        V       H0       H01     AOSYM     SMH    MOLCAS    OPER   

              2       4        0.47       700     1000      520     2100   
                                         GEOM     BASIS   MCVARS     RHF  

 PROGRAMS   *        TOTAL   RHF-SCF       INT
 CPU TIMES  *         0.49      0.05      0.30
 REAL TIME  *         1.54 SEC
 DISK USED  *        29.40 MB (local),      105.30 MB (total)
 GA USED    *         0.00 MB       (max)       0.00 MB       (current)
 **********************************************************************************************************************************


 PROGRAM * CCSD (Closed-shell coupled cluster)     Authors: C. Hampel, H.-J. Werner, 1991, M. Deegan, P.J. Knowles, 1992


 Convergence thresholds:  THRVAR = 1.00D-08  THRDEN = 1.00D-12

 CCSD(T)     terms to be evaluated (factor= 1.000)


 Number of core orbitals:           2 (   2 )
 Number of closed-shell orbitals:   7 (   7 )
 Number of external orbitals:      39 (  39 )

 Molecular orbitals read from record     2100.2  Type=RHF/CANONICAL  

 Number of N-1 electron functions:               7
 Number of N-2 electron functions:              28
 Number of singly external CSFs:               273
 Number of doubly external CSFs:             37401
 Total number of CSFs:                       37675

 Length of J-op  integral file:               0.00 MB
 Length of K-op  integral file:               0.16 MB
 Length of 3-ext integral record:             0.00 MB

 Memory could be reduced to 0.73 Mwords without degradation in triples

 Integral transformation finished. Total CPU:   0.02 sec, npass=  1  Memory used:   0.66 MW

 Reference energy:                   -115.04892226

 MP2 singlet pair energy:              -0.21859968
 MP2 triplet pair energy:              -0.11977676
 MP2 correlation energy:               -0.33837644
 MP2 total energy:                   -115.38729871

 SCS-MP2 correlation energy:           -0.33684738   (PS=  1.200000  PT=  0.333333)
 SCS-MP2 total energy:               -115.38576965

 ITER.      SQ.NORM     CORR.ENERGY   TOTAL ENERGY   ENERGY CHANGE        DEN1      VAR(S)    VAR(P)  DIIS     TIME  TIME/IT
   1      1.10732190    -0.36118645  -115.41010871    -0.02281000    -0.01412565  0.92D-03  0.17D-02  1  1     0.04     0.04
   2      1.11584462    -0.36312530  -115.41204756    -0.00193885    -0.00924632  0.20D-04  0.16D-03  2  2     0.06     0.03
   3      1.11772943    -0.36325341  -115.41217568    -0.00012812    -0.00120528  0.96D-05  0.86D-05  3  3     0.08     0.03
   4      1.11824658    -0.36325160  -115.41217386     0.00000182    -0.00025577  0.33D-06  0.68D-06  4  4     0.10     0.03
   5      1.11834547    -0.36325194  -115.41217420    -0.00000034    -0.00003641  0.98D-07  0.49D-07  5  5     0.13     0.03
   6      1.11836449    -0.36325057  -115.41217283     0.00000137    -0.00000436  0.15D-07  0.41D-08  6  6     0.15     0.03
   7      1.11836916    -0.36325015  -115.41217241     0.00000042    -0.00000034  0.20D-08  0.71D-09  6  1     0.17     0.03
   8      1.11837040    -0.36325025  -115.41217251    -0.00000010     0.00000074  0.26D-09  0.70D-10  6  3     0.19     0.03
   9      1.11837146    -0.36325012  -115.41217239     0.00000012    -0.00000038  0.12D-10  0.10D-10  6  2     0.21     0.03
  10      1.11837139    -0.36325013  -115.41217239    -0.00000000     0.00000007  0.11D-11  0.86D-12  6  5     0.23     0.03
  11      1.11837142    -0.36325012  -115.41217239     0.00000000    -0.00000000  0.18D-12  0.49D-13  6  4     0.25     0.03
  12      1.11837141    -0.36325012  -115.41217239    -0.00000000     0.00000001  0.18D-13  0.96D-14  6  1     0.27     0.03
  13      1.11837141    -0.36325013  -115.41217239    -0.00000000    -0.00000000  0.23D-14  0.89D-15  6  6     0.29     0.03
  14      1.11837141    -0.36325012  -115.41217239     0.00000000    -0.00000000  0.22D-15  0.12D-15  6  3     0.31     0.03
  15      1.11837141    -0.36325012  -115.41217239    -0.00000000    -0.00000000  0.24D-16  0.16D-16  6  2     0.33     0.03
  16      1.11837141    -0.36325012  -115.41217239    -0.00000000    -0.00000000  0.54D-17  0.15D-17  6  5     0.35     0.03
  17      1.11837141    -0.36325012  -115.41217239    -0.00000000    -0.00000000  0.50D-18  0.24D-18  6  4     0.37     0.03
  18      1.11837141    -0.36325012  -115.41217239     0.00000000    -0.00000000  0.46D-19  0.23D-19  6  6     0.39     0.03
  19      1.11837141    -0.36325012  -115.41217239    -0.00000000     0.00000000  0.15D-20  0.14D-20  6  1     0.41     0.03
  20      1.11837141    -0.36325012  -115.41217239    -0.00000000     0.00000000  0.26D-21  0.18D-21  6  3     0.43     0.03

 Norm of t1 vector:      0.04177733      S-energy:     0.00000000      T1 diagnostic:  0.00789517
                                                                       D1 diagnostic:  0.01785158
                                                                       D2 diagnostic:  0.13491761 (internal)


 Total CPU time for triples:      0.08 sec


 RESULTS
 =======

  Reference energy                   -115.048922264000
  CCSD singlet pair energy             -0.254546395018
  CCSD triplet pair energy             -0.108703729912
  CCSD correlation energy              -0.363250124930

  Triples (T) contribution             -0.007749882710
  Total correlation energy             -0.371000007639

  CCSD total energy                  -115.412172388930
  CCSD[T] energy                     -115.420214726747
  CCSD-T energy                      -115.419770990785
 !CCSD(T) total energy               -115.419922271639

 Timing summary (sec):

 STEP                 CPU(USER)    SYS     CPU(TOT)    WALL
 Transformation          0.03      0.01      0.04      0.04
 CCSD iterations         0.42      0.05      0.47      0.69
 Triples                 0.08      0.01      0.09      0.09

 Program statistics:

 Available memory in ccsd:               999999795
 Min. memory needed in ccsd:                136177
 Max. memory used in ccsd:                  162910
 Max. memory used in cckext:                178997 (20 integral passes)



 **********************************************************************************************************************************
 DATASETS  * FILE   NREC   LENGTH (MB)   RECORD NAMES
              1      19       31.13       500      610      700      900      950      970     1000      129      960     1100   
                                          VAR    BASINP    GEOM    SYMINP    ZMAT    AOBASIS   BASIS     P2S    ABASIS      S 
                                         1400     1410     1200     1210     1080     1600     1650     1700     1380   
                                           T        V       H0       H01     AOSYM     SMH    MOLCAS    OPER     JKOP   

              2       4        0.47       700     1000      520     2100   
                                         GEOM     BASIS   MCVARS     RHF  

 PROGRAMS   *        TOTAL   CCSD(T)   RHF-SCF       INT
 CPU TIMES  *         1.05      0.56      0.05      0.30
 REAL TIME  *         2.43 SEC
 DISK USED  *        35.56 MB (local),      115.95 MB (total)
 SF USED    *         5.97 MB
 GA USED    *         0.00 MB       (max)       0.00 MB       (current)
 **********************************************************************************************************************************

 CCSD(T)/cc-pVDZ energy=   -115.419922271639

         CCSD(T)         RHF-SCF
   -115.41992227   -115.04892226
 **********************************************************************************************************************************
 Molpro calculation terminated
