
 Primary working directories    : /tmp/601555.39.gen4.q
 Secondary working directories  : /tmp/601555.39.gen4.q
 Wavefunction directory         : /home/vulcan/mel64643/wfu/
 Main file repository           : /tmp/601555.39.gen4.q/

 ARCHNAME  : Linux/x86_64
 FC        : /opt/intel/compilers_and_libraries_2016.1.150/linux/bin/intel64/ifort
 FCVERSION : 16.0.1
 BLASLIB   : -mkl
 id        : ccgc

 Nodes     nprocs
 n062         1
 ga_uses_ma=false, calling ma_init with nominal heap.
 GA-space will be limited to   8.0 MW (determined by -G option)

 Using customized tuning parameters: mindgm=10; mindgv=16; mindgc=4; mindgr=1; noblas=0; mincuda=1000; minvec=7
 default implementation of scratch files=df  

 ***,Optimization of min3
 memory,1000,m
 gthresh,energy=1.0d-12,orbital=1.0d-10,oneint=1.0d-16,twoint=1.0d-16,optgrad=1.0d-6,compress=1.0d-13
 geomtyp=xyz
 
  bohr
  geometry = {
  6
  arbitrary comment
  C   -1.3726430132   -0.0219488931    0.0000070525
  O    1.3067366076    0.1208100147   -0.0000019445
  H   -2.0782408983    1.9032869891   -0.0000818577
  H   -2.1103398287   -0.9773555689    1.6856141647
  H   -2.1103323449   -0.9774855265   -1.6855450092
  H    1.9410953176   -1.5774391353   -0.0000008158
 }
 
 basis=cc-pvdz
 {rhf;maxit,200}
 {ccsd(t);maxit,200}

 Variables initialized (661), CPU time= 0.01 sec
 Commands  initialized (458), CPU time= 0.00 sec, 486 directives.
 Default parameters read. Elapsed time= 0.04 sec

 Checking input...
 Passed
1


                                         ***  PROGRAM SYSTEM MOLPRO  ***
                         Copyright, University College Cardiff Consultants Limited, 2008

                                    Version 2010.1 linked May 16 2016 07:17:05


 **********************************************************************************************************************************
 LABEL *   Optimization of min3                                                          
 Linux-4.4.3/n062(x86_64) 64 bit mpp version                                             DATE: 06-Nov-21          TIME: 15:39:01  
 **********************************************************************************************************************************

 SHA1:             9e8077add272b0f3cad6f7df79ec5211205f459d
 **********************************************************************************************************************************

 THRESHOLDS:

 ZERO    =  1.00D-12  ONEINT  =  1.00D-16  TWOINT  =  1.00D-16  PREFAC  =  1.00D-14  LOCALI  =  1.00D-09  EORDER  =  1.00D-04
 ENERGY  =  1.00D-12  ETEST   =  0.00D+00  EDENS   =  0.00D+00  THRDEDEF=  1.00D-06  GRADIENT=  1.00D-02  STEP    =  1.00D-03
 ORBITAL =  1.00D-10  CIVEC   =  1.00D-05  COEFF   =  1.00D-04  PRINTCI =  5.00D-02  PUNCHCI =  9.90D+01  OPTGRAD =  1.00D-06
 OPTENERG=  1.00D-06  OPTSTEP =  3.00D-04  THRGRAD =  1.00D-10  COMPRESS=  1.00D-13  VARMIN  =  1.00D-07  VARMAX  =  1.00D-03
 THRDOUB =  0.00D+00  THRDIV  =  1.00D-05  THRRED  =  1.00D-07  THRPSP  =  1.00D+00  THRDC   =  1.00D-10  THRCS   =  1.00D-10
 THRNRM  =  1.00D-08  THREQ   =  0.00D+00  THRDE   =  1.00D+00  THRREF  =  1.00D-05  SPARFAC =  1.00D+00  THRDLP  =  1.00D-07
 THRDIA  =  1.00D-10  THRDLS  =  1.00D-07  THRGPS  =  0.00D+00  THRKEX  =  0.00D+00  THRDIS  =  2.00D-01  THRVAR  =  1.00D-10
 THRLOC  =  1.00D-06  THRGAP  =  1.00D-06  THRLOCT = -1.00D+00  THRGAPT = -1.00D+00  THRORB  =  1.00D-06  THRMLTP =  0.00D+00
 THRCPQCI=  1.00D-10  KEXTA   =  0.00D+00  THRCOARS=  0.00D+00  SYMTOL  =  1.00D-06  GRADTOL =  1.00D-06  THROVL  =  1.00D-08
 THRORTH =  1.00D-08  GRID    =  1.00D-06  GRIDMAX =  1.00D-03  DTMAX   =  0.00D+00

 SETTING GEOMTYP        =    XYZ
 ZUNIT=BOHR
 

 Variable memory set to 1000000000 words,  buffer space   230000 words

 SETTING BASIS          =    CC-PVDZ


 Recomputing integrals since basis changed


 Using spherical harmonics

 Library entry C      S cc-pVDZ              selected for orbital group  1
 Library entry C      P cc-pVDZ              selected for orbital group  1
 Library entry C      D cc-pVDZ              selected for orbital group  1
 Library entry O      S cc-pVDZ              selected for orbital group  2
 Library entry O      P cc-pVDZ              selected for orbital group  2
 Library entry O      D cc-pVDZ              selected for orbital group  2
 Library entry H      S cc-pVDZ              selected for orbital group  3
 Library entry H      P cc-pVDZ              selected for orbital group  3

1PROGRAM * SEWARD (Integral evaluation for generally contracted gaussian basis sets)     Author: Roland Lindh, 1990

 Geometry written to block  1 of record 700


 Point group  C1  



 ATOMIC COORDINATES

 NR  ATOM    CHARGE       X              Y              Z

   1  C       6.00   -1.372643013   -0.021948893    0.000007052
   2  O       8.00    1.306736608    0.120810015   -0.000001945
   3  H       1.00   -2.078240898    1.903286989   -0.000081858
   4  H       1.00   -2.110339829   -0.977355569    1.685614165
   5  H       1.00   -2.110332345   -0.977485526   -1.685545009
   6  H       1.00    1.941095318   -1.577439135   -0.000000816

 Bond lengths in Bohr (Angstrom)

 1-2  2.683180064  1-3  2.050463749  1-4  2.073226916  1-5  2.073239388  2-6  1.812859936
     ( 1.419877738)     ( 1.085058684)     ( 1.097104433)     ( 1.097111033)     ( 0.959324161)

 Bond angles

  1-2-6  107.43264649   2-1-3  107.07798869   2-1-4  112.32364106   2-1-5  112.32314513

  3-1-4  108.07598788   3-1-5  108.07524801   4-1-5  108.78406291

 NUCLEAR CHARGE:                   18
 NUMBER OF PRIMITIVE AOS:          82
 NUMBER OF SYMMETRY AOS:           80
 NUMBER OF CONTRACTIONS:           48   (  48A   )
 NUMBER OF CORE ORBITALS:           2   (   2A   )
 NUMBER OF VALENCE ORBITALS:       12   (  12A   )


 NUCLEAR REPULSION ENERGY   40.31707023


 Eigenvalues of metric

         1 0.967E-02 0.176E-01 0.367E-01 0.377E-01 0.380E-01 0.476E-01 0.480E-01 0.514E-01


 Contracted 2-electron integrals neglected if value below      1.0D-16
 AO integral compression algorithm  1   Integral accuracy      1.0D-16

     6.554 MB (compressed) written to integral file ( 95.5%)

     Node minimum: 6.554 MB, node maximum: 6.554 MB


 NUMBER OF SORTED TWO-ELECTRON INTEGRALS:     692076.     BUFFER LENGTH:  32768
 NUMBER OF SEGMENTS:   1  SEGMENT LENGTH:     692076      RECORD LENGTH: 524288

 Memory used in sort:       1.25 MW

 SORT1 READ      832256. AND WROTE      682150. INTEGRALS IN      2 RECORDS. CPU TIME:     0.01 SEC, REAL TIME:     0.01 SEC
 SORT2 READ      682150. AND WROTE      692076. INTEGRALS IN     25 RECORDS. CPU TIME:     0.01 SEC, REAL TIME:     0.03 SEC

 FILE SIZES:   FILE 1:     8.0 MBYTE,  FILE 4:     8.4 MBYTE,   TOTAL:     16.4 MBYTE

 OPERATOR DM      FOR CENTER  0  COORDINATES:    0.000000    0.000000    0.000000


 **********************************************************************************************************************************
 DATASETS  * FILE   NREC   LENGTH (MB)   RECORD NAMES
              1      19        8.05       500      610      700      900      950      970     1000      129      960     1100   
                                          VAR    BASINP    GEOM    SYMINP    ZMAT    AOBASIS   BASIS     P2S    ABASIS      S 
                                         1400     1410     1200     1210     1080     1600     1650     1300     1700   
                                           T        V       H0       H01     AOSYM     SMH    MOLCAS    ERIS     OPER   

 PROGRAMS   *        TOTAL       INT
 CPU TIMES  *         0.23      0.18
 REAL TIME  *         0.40 SEC
 DISK USED  *        23.63 MB      
 GA USED    *         0.00 MB       (max)       0.00 MB       (current)
 **********************************************************************************************************************************

1PROGRAM * RHF-SCF (CLOSED SHELL)       Authors: W. Meyer, H.-J. Werner


 NUMBER OF ELECTRONS:       9+    9-    SPACE SYMMETRY=1    SPIN SYMMETRY: Singlet 
 CONVERGENCE THRESHOLDS:    1.00E-10 (Density)    1.00E-13 (Energy)
 MAX. NUMBER OF ITERATIONS:      200
 INTERPOLATION TYPE:            DIIS
 INTERPOLATION STEPS:              2 (START)      1 (STEP)
 LEVEL SHIFTS:                  0.00 (CLOSED)  0.00 (OPEN) 



 Orbital guess generated from atomic densities. Full valence occupancy:   14

 Molecular orbital dump at record        2100.2

 ITERATION    DDIFF          GRAD             ENERGY        2-EL.EN.            DIPOLE MOMENTS         DIIS
    1      0.000D+00      0.000D+00      -115.01426066    164.402082   -0.49372   -0.90082   -0.00000    0
    2      0.000D+00      0.110D-01      -115.04261779    162.184367   -0.31512   -0.53411    0.00000    1
    3      0.205D-01      0.529D-02      -115.04863460    163.208696   -0.39866   -0.60871    0.00000    2
    4      0.638D-02      0.112D-02      -115.04909800    163.052338   -0.38847   -0.59730    0.00000    3
    5      0.204D-02      0.202D-03      -115.04911896    163.058804   -0.39126   -0.59290    0.00000    4
    6      0.433D-03      0.353D-04      -115.04911975    163.058957   -0.39156   -0.59266    0.00000    5
    7      0.928D-04      0.732D-05      -115.04911978    163.057771   -0.39169   -0.59249    0.00000    6
    8      0.149D-04      0.236D-05      -115.04911979    163.058152   -0.39173   -0.59247    0.00000    7
    9      0.501D-05      0.487D-06      -115.04911979    163.058111   -0.39174   -0.59247    0.00000    6
   10      0.140D-05      0.861D-07      -115.04911979    163.058110   -0.39174   -0.59246    0.00000    6
   11      0.232D-06      0.321D-07      -115.04911979    163.058116   -0.39174   -0.59247    0.00000    6
   12      0.582D-07      0.133D-07      -115.04911979    163.058114   -0.39174   -0.59247    0.00000    7
   13      0.248D-07      0.298D-08      -115.04911979    163.058114   -0.39174   -0.59247    0.00000    7
   14      0.741D-08      0.640D-09      -115.04911979    163.058114   -0.39174   -0.59247    0.00000    7
   15      0.164D-08      0.147D-09      -115.04911979    163.058114   -0.39174   -0.59247    0.00000    7
   16      0.327D-09      0.441D-10      -115.04911979    163.058114   -0.39174   -0.59247    0.00000    7
   17      0.850D-10      0.145D-10      -115.04911979    163.058114   -0.39174   -0.59247    0.00000    0

 Final occupancy:   9

 !RHF STATE 1.1 Energy               -115.049119785370
 Nuclear energy                        40.31707023
 One-electron energy                 -236.89524698
 Two-electron energy                   81.52905696
 Virial quotient                       -1.00092340
 !RHF STATE 1.1 Dipole moment          -0.39174177    -0.59246516     0.00000207
 Dipole moment /Debye                  -0.99564304    -1.50579761     0.00000527

 Orbital energies:

         1.1          2.1          3.1          4.1          5.1          6.1          7.1          8.1          9.1         10.1
    -20.550103   -11.274765    -1.350335    -0.921338    -0.682825    -0.613308    -0.585937    -0.497077    -0.442879     0.184566

        11.1
      0.224309


 **********************************************************************************************************************************
 DATASETS  * FILE   NREC   LENGTH (MB)   RECORD NAMES
              1      19        8.05       500      610      700      900      950      970     1000      129      960     1100   
                                          VAR    BASINP    GEOM    SYMINP    ZMAT    AOBASIS   BASIS     P2S    ABASIS      S 
                                         1400     1410     1200     1210     1080     1600     1650     1300     1700   
                                           T        V       H0       H01     AOSYM     SMH    MOLCAS    ERIS     OPER   

              2       3        0.39       700     1000     2100   
                                         GEOM     BASIS     RHF  

 PROGRAMS   *        TOTAL       RHF       INT
 CPU TIMES  *         0.31      0.08      0.18
 REAL TIME  *         0.51 SEC
 DISK USED  *        23.63 MB      
 GA USED    *         0.00 MB       (max)       0.00 MB       (current)
 **********************************************************************************************************************************


1PROGRAM * CCSD (Closed-shell coupled cluster)     Authors: C. Hampel, H.-J. Werner, 1991, M. Deegan, P.J. Knowles, 1992


 Convergence thresholds:  THRVAR = 1.00D-08  THRDEN = 1.00D-12

 CCSD(T)     terms to be evaluated (factor= 1.000)


 Number of core orbitals:           2 (   2 )
 Number of closed-shell orbitals:   7 (   7 )
 Number of external orbitals:      39 (  39 )

 Molecular orbitals read from record     2100.2  Type=RHF/CANONICAL (state 1.1)

 Number of N-1 electron functions:               7
 Number of N-2 electron functions:              28
 Number of singly external CSFs:               273
 Number of doubly external CSFs:             37401
 Total number of CSFs:                       37675

 Length of J-op  integral file:               0.00 MB
 Length of K-op  integral file:               0.19 MB
 Length of 3-ext integral record:             0.00 MB

 Memory could be reduced to 0.96 Mwords without degradation in triples

 Integral transformation finished. Total CPU:   0.02 sec, npass=  1  Memory used:   0.66 MW

 Reference energy:                   -115.04911979

 MP2 singlet pair energy:              -0.21863830
 MP2 triplet pair energy:              -0.11984126
 MP2 correlation energy:               -0.33847956
 MP2 total energy:                   -115.38759934

 SCS-MP2 correlation energy:           -0.33693385   (PS=  1.200000  PT=  0.333333)
 SCS-MP2 total energy:               -115.38605364

 ITER.      SQ.NORM     CORR.ENERGY   TOTAL ENERGY   ENERGY CHANGE        DEN1      VAR(S)    VAR(P)  DIIS     TIME
   1      1.10733045    -0.36128028  -115.41040007    -0.02280072    -0.01412117  0.91D-03  0.17D-02  1  1     0.06
   2      1.11585653    -0.36322505  -115.41234483    -0.00194477    -0.00924958  0.20D-04  0.16D-03  2  2     0.10
   3      1.11773792    -0.36335236  -115.41247215    -0.00012731    -0.00120378  0.95D-05  0.86D-05  3  3     0.14
   4      1.11825327    -0.36335097  -115.41247075     0.00000139    -0.00025509  0.33D-06  0.68D-06  4  4     0.18
   5      1.11835154    -0.36335137  -115.41247115    -0.00000040    -0.00003610  0.10D-06  0.49D-07  5  5     0.22
   6      1.11837065    -0.36335001  -115.41246980     0.00000135    -0.00000439  0.16D-07  0.41D-08  6  6     0.26
   7      1.11837541    -0.36334959  -115.41246938     0.00000042    -0.00000035  0.20D-08  0.72D-09  6  1     0.30
   8      1.11837668    -0.36334969  -115.41246948    -0.00000010     0.00000075  0.26D-09  0.72D-10  6  3     0.33
   9      1.11837775    -0.36334957  -115.41246936     0.00000012    -0.00000038  0.13D-10  0.10D-10  6  2     0.37
  10      1.11837767    -0.36334957  -115.41246936    -0.00000000     0.00000007  0.11D-11  0.88D-12  6  5     0.41
  11      1.11837770    -0.36334957  -115.41246936     0.00000000    -0.00000000  0.19D-12  0.50D-13  6  4     0.45
  12      1.11837769    -0.36334957  -115.41246936    -0.00000000     0.00000001  0.19D-13  0.10D-13  6  1     0.49
  13      1.11837769    -0.36334957  -115.41246936    -0.00000000    -0.00000000  0.24D-14  0.94D-15  6  6     0.53
  14      1.11837769    -0.36334957  -115.41246936     0.00000000    -0.00000000  0.22D-15  0.12D-15  6  3     0.56
  15      1.11837769    -0.36334957  -115.41246936    -0.00000000    -0.00000000  0.25D-16  0.16D-16  6  2     0.60
  16      1.11837769    -0.36334957  -115.41246936    -0.00000000    -0.00000000  0.56D-17  0.16D-17  6  5     0.64
  17      1.11837769    -0.36334957  -115.41246936    -0.00000000    -0.00000000  0.53D-18  0.25D-18  6  4     0.68
  18      1.11837769    -0.36334957  -115.41246936     0.00000000    -0.00000000  0.82D-19  0.43D-19  6  1     0.72
  19      1.11837769    -0.36334957  -115.41246936    -0.00000000    -0.00000000  0.93D-20  0.43D-20  6  6     0.76
  20      1.11837769    -0.36334957  -115.41246936     0.00000000     0.00000000  0.13D-20  0.55D-21  6  3     0.80

 Norm of t1 vector:      0.04166531      S-energy:    -0.00000000      T1 diagnostic:  0.00787400
                                                                       D1 diagnostic:  0.01744549


 Total CPU time for triples:      0.21 sec


 RESULTS
 =======

  Reference energy                   -115.049119785370
  CCSD singlet pair energy             -0.254589417764
  CCSD triplet pair energy             -0.108760154827
  CCSD correlation energy              -0.363349572593

  Triples (T) contribution             -0.007737963761
  Total correlation energy             -0.371087536353

  CCSD total energy                  -115.412469357963
  CCSD[T] energy                     -115.420497417717
  CCSD-T energy                      -115.420057335296
 !CCSD(T) total energy               -115.420207321723

 Timing summary (sec):

 STEP                 CPU(USER)    SYS     CPU(TOT)    WALL
 Transformation          0.02      0.01      0.03      0.03
 CCSD iterations         0.78      0.03      0.81      0.84
 Triples                 0.21      0.01      0.22      0.22

 Program statistics:

 Available memory in ccsd:               999999704
 Min. memory needed in ccsd:                136801
 Max. memory used in ccsd:                  163198
 Max. memory used in cckext:                182024 (20 integral passes)



 **********************************************************************************************************************************
 DATASETS  * FILE   NREC   LENGTH (MB)   RECORD NAMES
              1      20       10.59       500      610      700      900      950      970     1000      129      960     1100   
                                          VAR    BASINP    GEOM    SYMINP    ZMAT    AOBASIS   BASIS     P2S    ABASIS      S 
                                         1400     1410     1200     1210     1080     1600     1650     1300     1700     1380   
                                           T        V       H0       H01     AOSYM     SMH    MOLCAS    ERIS     OPER     JKOP   

              2       3        0.39       700     1000     2100   
                                         GEOM     BASIS     RHF  

 PROGRAMS   *        TOTAL   CCSD(T)       RHF       INT
 CPU TIMES  *         1.33      1.02      0.08      0.18
 REAL TIME  *         1.62 SEC
 DISK USED  *        25.05 MB      
 GA USED    *         0.00 MB       (max)       0.00 MB       (current)
 **********************************************************************************************************************************

        CCSD(T)         RHF-SCF 
   -115.42020732   -115.04911979
 **********************************************************************************************************************************
 Variable memory released
