
    -----------------------------------------------------------------------
          Psi4: An Open-Source Ab Initio Electronic Structure Package
                               Psi4 1.4a2.dev629 

                         Git: Rev {master} 2938fc2 dirty


    D. G. A. Smith, L. A. Burns, A. C. Simmonett, R. M. Parrish,
    M. C. Schieber, R. Galvelis, P. Kraus, H. Kruse, R. Di Remigio,
    A. Alenaizan, A. M. James, S. Lehtola, J. P. Misiewicz, M. Scheurer,
    R. A. Shaw, J. B. Schriber, Y. Xie, Z. L. Glick, D. A. Sirianni,
    J. S. O'Brien, J. M. Waldrop, A. Kumar, E. G. Hohenstein,
    B. P. Pritchard, B. R. Brooks, H. F. Schaefer III, A. Yu. Sokolov,
    K. Patkowski, A. E. DePrince III, U. Bozkaya, R. A. King,
    F. A. Evangelista, J. M. Turney, T. D. Crawford, C. D. Sherrill,
    J. Chem. Phys. 152(18) 184108 (2020). https://doi.org/10.1063/5.0006002

                            Additional Code Authors
    E. T. Seidl, C. L. Janssen, E. F. Valeev, M. L. Leininger,
    J. F. Gonthier, R. M. Richard, H. R. McAlexander, M. Saitow, X. Wang,
    P. Verma, and M. H. Lechner

             Previous Authors, Complete List of Code Contributors,
                       and Citations for Specific Modules
    https://github.com/psi4/psi4/blob/master/codemeta.json
    https://github.com/psi4/psi4/graphs/contributors
    http://psicode.org/psi4manual/master/introduction.html#citing-psifour

    -----------------------------------------------------------------------


    Psi4 started on: Friday, 18 September 2020 06:18PM

    Process ID: 16479
    Host:       n004
    PSIDATADIR: /opt/psi/4/master/share/psi4
    Memory:     500.0 MiB
    Threads:    1
    
  ==> Input File <==

--------------------------------------------------------------------------
# o-Benzyne preliminary computations

memory 14 gb

molecule {
  0 1
  C   -1.3709347749   -0.0245297902   -0.0024477768
  O    1.3018517029    0.1205546504   -0.0018368775
  H   -2.0719912104    1.9029228138    0.0064875079
  H   -2.1075991258   -0.9695784691    1.6760135849
  H   -2.0992930964   -0.9817387505   -1.6768241231
  H    1.9411022646   -1.5727689144   -0.0014853054
  units bohr
}

set {
  basis=cc-pVTZ
  reference rhf
  e_convergence 10 
  d_convergence 10
  r_convergence 8
  maxiter 300
}

energy('ccsd(t)')
--------------------------------------------------------------------------

  Memory set to  13.039 GiB by Python driver.

Scratch directory: /tmp/

*** tstart() called on n004
*** at Fri Sep 18 18:19:00 2020

   => Loading Basis Set <=

    Name: CC-PVTZ
    Role: ORBITAL
    Keyword: BASIS
    atoms 1   entry C          line   186 file /opt/psi/4/master/share/psi4/basis/cc-pvtz.gbs 
    atoms 2   entry O          line   262 file /opt/psi/4/master/share/psi4/basis/cc-pvtz.gbs 
    atoms 3-6 entry H          line    23 file /opt/psi/4/master/share/psi4/basis/cc-pvtz.gbs 


         ---------------------------------------------------------
                                   SCF
               by Justin Turney, Rob Parrish, Andy Simmonett
                          and Daniel G. A. Smith
                              RHF Reference
                        1 Threads,  13351 MiB Core
         ---------------------------------------------------------

  ==> Geometry <==

    Molecular point group: c1
    Full point group: C1

    Geometry (in Bohr), charge = 0, multiplicity = 1:

       Center              X                  Y                   Z               Mass       
    ------------   -----------------  -----------------  -----------------  -----------------
         C           -1.370936807328    -0.024531503868    -0.000745123002    12.000000000000
         O            1.301849670472     0.120552936732    -0.000134223702    15.994914619570
         H           -2.071993242828     1.902921100132     0.008190161698     1.007825032230
         H           -2.107601158228    -0.969580182768     1.677716238698     1.007825032230
         H           -2.099295128828    -0.981740464168    -1.675121469302     1.007825032230
         H            1.941100232172    -1.572770628068     0.000217348398     1.007825032230

  Running in c1 symmetry.

  Rotational constants: A =      4.31054  B =      0.83185  C =      0.80260 [cm^-1]
  Rotational constants: A = 129226.77733  B =  24938.12341  C =  24061.39390 [MHz]
  Nuclear repulsion =   40.424669348682613

  Charge       = 0
  Multiplicity = 1
  Electrons    = 18
  Nalpha       = 9
  Nbeta        = 9

  ==> Algorithm <==

  SCF Algorithm Type is PK.
  DIIS enabled.
  MOM disabled.
  Fractional occupation disabled.
  Guess Type is SAD.
  Energy threshold   = 1.00e-10
  Density threshold  = 1.00e-10
  Integral threshold = 0.00e+00

  ==> Primary Basis <==

  Basis Set: CC-PVTZ
    Blend: CC-PVTZ
    Number of shells: 44
    Number of basis function: 116
    Number of Cartesian functions: 130
    Spherical Harmonics?: true
    Max angular momentum: 3

  ==> Integral Setup <==

  Using in-core PK algorithm.
   Calculation information:
      Number of atoms:                   6
      Number of AO shells:              44
      Number of primitives:             84
      Number of atomic orbitals:       130
      Number of basis functions:       116

      Integral cutoff                 1.00e-12
      Number of threads:                 1

  Performing in-core PK
  Using 46056582 doubles for integral storage.
  We computed 490498 shell quartets total.
  Whereas there are 490545 unique shell quartets.

  ==> DiskJK: Disk-Based J/K Matrices <==

    J tasked:                  Yes
    K tasked:                  Yes
    wK tasked:                  No
    Memory [MiB]:            10013
    Schwarz Cutoff:          1E-12

    OpenMP threads:              1

  Minimum eigenvalue in the overlap matrix is 1.8301993886E-03.
  Reciprocal condition number of the overlap matrix is 2.7593136408E-04.
    Using symmetric orthogonalization.

  ==> Pre-Iterations <==

  SCF Guess: Superposition of Atomic Densities via on-the-fly atomic UHF (no occupation information).

   -------------------------
    Irrep   Nso     Nmo    
   -------------------------
     A        116     116 
   -------------------------
    Total     116     116
   -------------------------

  ==> Iterations <==

                        Total Energy        Delta E     RMS |[F,P]|

   @RHF iter SAD:  -114.42810777772544   -1.14428e+02   0.00000e+00 
   @RHF iter   1:  -115.01460726280936   -5.86499e-01   3.41859e-03 DIIS
   @RHF iter   2:  -115.07168921028759   -5.70819e-02   1.94991e-03 DIIS
   @RHF iter   3:  -115.08844338684541   -1.67542e-02   3.01106e-04 DIIS
   @RHF iter   4:  -115.08932559261072   -8.82206e-04   8.77571e-05 DIIS
   @RHF iter   5:  -115.08939879006144   -7.31975e-05   2.13418e-05 DIIS
   @RHF iter   6:  -115.08940360929196   -4.81923e-06   4.71559e-06 DIIS
   @RHF iter   7:  -115.08940397371413   -3.64422e-07   1.09360e-06 DIIS
   @RHF iter   8:  -115.08940399508393   -2.13698e-08   2.26172e-07 DIIS
   @RHF iter   9:  -115.08940399598856   -9.04635e-10   4.19967e-08 DIIS
   @RHF iter  10:  -115.08940399601835   -2.97860e-11   1.07568e-08 DIIS
   @RHF iter  11:  -115.08940399602025   -1.90425e-12   2.18886e-09 DIIS
   @RHF iter  12:  -115.08940399602047   -2.13163e-13   3.91129e-10 DIIS
   @RHF iter  13:  -115.08940399602025    2.13163e-13   7.21072e-11 DIIS
  Energy and wave function converged.


  ==> Post-Iterations <==

    Orbital Energies [Eh]
    ---------------------

    Doubly Occupied:                                                      

       1A    -20.552185     2A    -11.267948     3A     -1.355807  
       4A     -0.924265     5A     -0.689362     6A     -0.619016  
       7A     -0.591427     8A     -0.502001     9A     -0.449003  

    Virtual:                                                              

      10A      0.138591    11A      0.178902    12A      0.220542  
      13A      0.224207    14A      0.291043    15A      0.386441  
      16A      0.404449    17A      0.546359    18A      0.584669  
      19A      0.624334    20A      0.625599    21A      0.639791  
      22A      0.690791    23A      0.704887    24A      0.722087  
      25A      0.833186    26A      0.865414    27A      0.872398  
      28A      0.927831    29A      1.069868    30A      1.101790  
      31A      1.178100    32A      1.190225    33A      1.263361  
      34A      1.271845    35A      1.284072    36A      1.365680  
      37A      1.447618    38A      1.492611    39A      1.523968  
      40A      1.546436    41A      1.584111    42A      1.622013  
      43A      1.778242    44A      2.093222    45A      2.180676  
      46A      2.200055    47A      2.301681    48A      2.323715  
      49A      2.488897    50A      2.510168    51A      2.576082  
      52A      2.805520    53A      2.952038    54A      3.057004  
      55A      3.110874    56A      3.118495    57A      3.144136  
      58A      3.225088    59A      3.244679    60A      3.314903  
      61A      3.316350    62A      3.344188    63A      3.385607  
      64A      3.502048    65A      3.615661    66A      3.635298  
      67A      3.702164    68A      3.710836    69A      3.747163  
      70A      3.762626    71A      3.817022    72A      3.843945  
      73A      3.906858    74A      4.011509    75A      4.029254  
      76A      4.119576    77A      4.162408    78A      4.173750  
      79A      4.249939    80A      4.257908    81A      4.291058  
      82A      4.403866    83A      4.441216    84A      4.470039  
      85A      4.563021    86A      4.584457    87A      4.715752  
      88A      4.789011    89A      4.999696    90A      5.038536  
      91A      5.059827    92A      5.204792    93A      5.276015  
      94A      5.318160    95A      5.375579    96A      5.443038  
      97A      5.549557    98A      5.553139    99A      5.571126  
     100A      5.793386   101A      5.946414   102A      6.193771  
     103A      6.213472   104A      6.251603   105A      6.436475  
     106A      6.644599   107A      7.000555   108A      7.127293  
     109A      7.185748   110A      7.236584   111A      7.356713  
     112A      7.436721   113A      7.594981   114A      7.916009  
     115A     12.158173   116A     13.764964  

    Final Occupation by Irrep:
              A 
    DOCC [     9 ]

  @RHF Final Energy:  -115.08940399602025

   => Energetics <=

    Nuclear Repulsion Energy =             40.4246693486826132
    One-Electron Energy =                -237.1261177295681932
    Two-Electron Energy =                  81.6120443848653281
    Total Energy =                       -115.0894039960202520

Computation Completed


Properties will be evaluated at   0.000000,   0.000000,   0.000000 [a0]

Properties computed using the SCF density matrix

  Nuclear Dipole Moment: [e a0]
     X:    -2.1486      Y:    -0.8039      Z:     0.0055

  Electronic Dipole Moment: [e a0]
     X:     1.7666      Y:     0.2163      Z:    -0.0047

  Dipole Moment: [e a0]
     X:    -0.3820      Y:    -0.5876      Z:     0.0007     Total:     0.7009

  Dipole Moment: [D]
     X:    -0.9709      Y:    -1.4936      Z:     0.0019     Total:     1.7814


*** tstop() called on n004 at Fri Sep 18 18:19:07 2020
Module time:
	user time   =       6.26 seconds =       0.10 minutes
	system time =       0.08 seconds =       0.00 minutes
	total time  =          7 seconds =       0.12 minutes
Total time:
	user time   =       6.26 seconds =       0.10 minutes
	system time =       0.08 seconds =       0.00 minutes
	total time  =          7 seconds =       0.12 minutes
 MINTS: Wrapper to libmints.
   by Justin Turney

   Calculation information:
      Number of threads:                 1
      Number of atoms:                   6
      Number of AO shells:              44
      Number of SO shells:              44
      Number of primitives:             84
      Number of atomic orbitals:       130
      Number of basis functions:       116

      Number of irreps:                  1
      Integral cutoff                 0.00e+00
      Number of functions per irrep: [ 116 ]

 OEINTS: Overlap, kinetic, potential, dipole, and quadrupole integrals
         stored in file 35.

      Computing two-electron integrals...done
      Computed 22875483 non-zero two-electron integrals.
        Stored in file 33.


*** tstart() called on n004
*** at Fri Sep 18 18:19:10 2020


	Wfn Parameters:
	--------------------
	Wavefunction         = CCSD_T
	Number of irreps     = 1
	Number of MOs        = 116
	Number of active MOs = 116
	AO-Basis             = NONE
	Semicanonical        = false
	Reference            = RHF
	Print Level          = 1

	IRREP	# MOs	# FZDC	# DOCC	# SOCC	# VIRT	# FZVR
	-----	-----	------	------	------	------	------
	 A	   116	    0	    9	    0	    107	    0
	Transforming integrals...
	IWL integrals will be deleted.
	(OO|OO)...
	Presorting SO-basis two-electron integrals.
	Sorting File: SO Ints (nn|nn) nbuckets = 1
	Transforming the one-electron integrals and constructing Fock matrices
	Starting first half-transformation.
	Sorting half-transformed integrals.
	First half integral transformation complete.
	Starting second half-transformation.
	Two-electron integral transformation complete.
	(OO|OV)...
	Starting second half-transformation.
	Two-electron integral transformation complete.
	(OO|VV)...
	Starting second half-transformation.
	Two-electron integral transformation complete.
	(OV|OO)...
	Starting first half-transformation.
	Sorting half-transformed integrals.
	First half integral transformation complete.
	Starting second half-transformation.
	Two-electron integral transformation complete.
	(OV|OV)...
	Starting second half-transformation.
	Two-electron integral transformation complete.
	(OV|VV)...
	Starting second half-transformation.
	Two-electron integral transformation complete.
	(VV|OO)...
	Starting first half-transformation.
	Sorting half-transformed integrals.
	First half integral transformation complete.
	Starting second half-transformation.
	Two-electron integral transformation complete.
	(VV|OV)...
	Starting second half-transformation.
	Two-electron integral transformation complete.
	(VV|VV)...
	Starting second half-transformation.
	Two-electron integral transformation complete.
	Frozen core energy     =      0.00000000000000

	Size of irrep 0 of <ab|cd> integrals:    131.080 (MW) /   1048.637 (MB)
	Total:                                   131.080 (MW) /   1048.637 (MB)

	Size of irrep 0 of <ia|bc> integrals:     11.025 (MW) /     88.203 (MB)
	Total:                                    11.025 (MW) /     88.203 (MB)

	Size of irrep 0 of tijab amplitudes:       0.927 (MW) /      7.419 (MB)
	Total:                                     0.927 (MW) /      7.419 (MB)

	Nuclear Rep. energy          =     40.42466934868261
	SCF energy                   =   -115.08940399602025
	One-electron energy          =   -237.12611776145621
	Two-electron energy          =     81.61204441675349
	Reference energy             =   -115.08940399602011

*** tstop() called on n004 at Fri Sep 18 18:19:39 2020
Module time:
	user time   =      23.09 seconds =       0.38 minutes
	system time =       5.66 seconds =       0.09 minutes
	total time  =         29 seconds =       0.48 minutes
Total time:
	user time   =      32.56 seconds =       0.54 minutes
	system time =       6.08 seconds =       0.10 minutes
	total time  =         39 seconds =       0.65 minutes
            **************************
            *                        *
            *        CCENERGY        *
            *                        *
            **************************

    Nuclear Rep. energy (wfn)     =   40.424669348682613
    SCF energy          (wfn)     = -115.089403996020252
    Reference energy    (file100) = -115.089403996020110

    Input parameters:
    -----------------
    Wave function   =     CCSD_T
    Reference wfn   =     RHF
    Brueckner       =     No
    Memory (Mbytes) =     14000.0
    Maxiter         =    300
    R_Convergence   =     1.0e-08
    E_Convergence   =     1.0e-10
    Restart         =     Yes
    DIIS            =     Yes
    AO Basis        =     NONE
    ABCD            =     NEW
    Cache Level     =     2
    Cache Type      =     LOW
    Print Level     =     1
    Num. of threads =     1
    # Amps to Print =     10
    Print MP2 Amps? =     No
    Analyze T2 Amps =     No
    Print Pair Ener =     No
    Local CC        =     No
    SCS-MP2         =     False
    SCSN-MP2        =     False
    SCS-CCSD        =     False

MP2 correlation energy -0.4574290339975232
                Solving CC Amplitude Equations
                ------------------------------
  Iter             Energy              RMS        T1Diag      D1Diag    New D1Diag    D2Diag
  ----     ---------------------    ---------   ----------  ----------  ----------   --------
     0        -0.457429033997523    0.000e+00    0.000000    0.000000    0.000000    0.128070
     1        -0.464956796984234    4.762e-02    0.006483    0.014789    0.014789    0.129188
     2        -0.474909038141200    1.562e-02    0.006591    0.014750    0.014750    0.134894
     3        -0.476380347303424    5.473e-03    0.007386    0.016825    0.016825    0.136319
     4        -0.476277195138746    1.202e-03    0.007438    0.016960    0.016960    0.136544
     5        -0.476316971958632    4.339e-04    0.007470    0.017092    0.017092    0.136640
     6        -0.476325540259148    1.223e-04    0.007480    0.017141    0.017141    0.136647
     7        -0.476323370322509    4.530e-05    0.007481    0.017155    0.017155    0.136644
     8        -0.476323235473868    1.683e-05    0.007483    0.017164    0.017164    0.136644
     9        -0.476323342159065    4.882e-06    0.007483    0.017165    0.017165    0.136644
    10        -0.476323097247452    1.558e-06    0.007483    0.017166    0.017166    0.136644
    11        -0.476323164373806    4.784e-07    0.007483    0.017166    0.017166    0.136644
    12        -0.476323150048329    1.170e-07    0.007483    0.017166    0.017166    0.136644
    13        -0.476323153106752    4.185e-08    0.007483    0.017166    0.017166    0.136644
    14        -0.476323154257435    1.199e-08    0.007483    0.017166    0.017166    0.136644
    15        -0.476323154301028    4.991e-09    0.007483    0.017166    0.017166    0.136644
    16        -0.476323154329713    1.607e-09    0.007483    0.017166    0.017166    0.136644

    Iterations converged.


    Largest TIA Amplitudes:
              5   6        -0.0079930177
              5  14        -0.0076147345
              5   9        -0.0070334805
              8  14         0.0063552018
              6   7         0.0059721653
              6   3        -0.0059230913
              7   8         0.0058101325
              5   2        -0.0056956773
              8   6         0.0053112795
              6   5        -0.0050984093

    Largest TIjAb Amplitudes:
      5   5   9   9        -0.0229916317
      8   8  14  14        -0.0211394006
      6   6   7   7        -0.0210191984
      7   7  12  12        -0.0205101884
      4   4   7   7        -0.0191014716
      6   6   8   8        -0.0162701254
      5   5  14  14        -0.0151439580
      7   7   7   7        -0.0151090402
      5   5   2   9        -0.0149344007
      5   5   9   2        -0.0149344007

    SCF energy       (wfn)                    = -115.089403996020252
    Reference energy (file100)                = -115.089403996020110

    Opposite-spin MP2 correlation energy      =   -0.353850359991977
    Same-spin MP2 correlation energy          =   -0.103578674005546
    Singles MP2 correlation energy            =   -0.000000000000000
    MP2 correlation energy                    =   -0.457429033997523
      * MP2 total energy                      = -115.546833030017638

    Opposite-spin CCSD correlation energy     =   -0.381808268691151
    Same-spin CCSD correlation energy         =   -0.094514885638561
    Singles CCSD correlation energy           =    0.000000000000000
    CCSD correlation energy                   =   -0.476323154329713
      * CCSD total energy                     = -115.565727150349829

            **************************
            *                        *
            *        CCTRIPLES       *
            *                        *
            **************************


    Wave function   =    CCSD_T
    Reference wfn   =      RHF

    Nuclear Rep. energy (wfn)                =   40.424669348682613
    SCF energy          (wfn)                = -115.089403996020252
    Reference energy    (file100)            = -115.089403996020110
    CCSD energy         (file100)            =   -0.476323154329713
    Total CCSD energy   (file100)            = -115.565727150349829

    Number of ijk index combinations:              165
    Memory available in words        :      1750000000
    ~Words needed per explicit thread:         4900172
    Number of threads for explicit ijk threading:    1

    MKL num_threads set to 1 for explicit threading.

    (T) energy                                =   -0.015046616930730
      * CCSD(T) total energy                  = -115.580773767280547


    Psi4 stopped on: Friday, 18 September 2020 06:22PM
    Psi4 wall time for execution: 0:03:00.89

*** Psi4 exiting successfully. Buy a developer a beer!
