
 Primary working directories    : /tmp/601556.24.gen4.q
 Secondary working directories  : /tmp/601556.24.gen4.q
 Wavefunction directory         : /home/vulcan/mel64643/wfu/
 Main file repository           : /tmp/601556.24.gen4.q/

 ARCHNAME  : Linux/x86_64
 FC        : /opt/intel/compilers_and_libraries_2016.1.150/linux/bin/intel64/ifort
 FCVERSION : 16.0.1
 BLASLIB   : -mkl
 id        : ccgc

 Nodes     nprocs
 n049         1
 ga_uses_ma=false, calling ma_init with nominal heap.
 GA-space will be limited to   8.0 MW (determined by -G option)

 Using customized tuning parameters: mindgm=10; mindgv=16; mindgc=4; mindgr=1; noblas=0; mincuda=1000; minvec=7
 default implementation of scratch files=df  

 ***,Optimization of min3
 memory,1000,m
 gthresh,energy=1.0d-12,orbital=1.0d-10,oneint=1.0d-16,twoint=1.0d-16,optgrad=1.0d-6,compress=1.0d-13
 geomtyp=xyz
 
  bohr
  geometry = {
  6
  arbitrary comment
  C   -1.3743773970   -0.0252447199    0.0000006810
  O    1.3070560935    0.1173253256    0.0000005035
  H   -2.0758186386    1.9092993733   -0.0000807314
  H   -2.1089838122   -0.9796933861    1.6819649038
  H   -2.1089778830   -0.9798234754   -1.6818926498
  H    1.9373774772   -1.5719952376   -0.0000011173
 }
 
 basis=cc-pvtz
 {rhf;maxit,200}
 {ccsd(t);maxit,200}

 Variables initialized (661), CPU time= 0.01 sec
 Commands  initialized (458), CPU time= 0.00 sec, 486 directives.
 Default parameters read. Elapsed time= 0.05 sec

 Checking input...
 Passed
1


                                         ***  PROGRAM SYSTEM MOLPRO  ***
                         Copyright, University College Cardiff Consultants Limited, 2008

                                    Version 2010.1 linked May 16 2016 07:17:05


 **********************************************************************************************************************************
 LABEL *   Optimization of min3                                                          
 Linux-4.4.3/n049(x86_64) 64 bit mpp version                                             DATE: 06-Nov-21          TIME: 15:42:01  
 **********************************************************************************************************************************

 SHA1:             9e8077add272b0f3cad6f7df79ec5211205f459d
 **********************************************************************************************************************************

 THRESHOLDS:

 ZERO    =  1.00D-12  ONEINT  =  1.00D-16  TWOINT  =  1.00D-16  PREFAC  =  1.00D-14  LOCALI  =  1.00D-09  EORDER  =  1.00D-04
 ENERGY  =  1.00D-12  ETEST   =  0.00D+00  EDENS   =  0.00D+00  THRDEDEF=  1.00D-06  GRADIENT=  1.00D-02  STEP    =  1.00D-03
 ORBITAL =  1.00D-10  CIVEC   =  1.00D-05  COEFF   =  1.00D-04  PRINTCI =  5.00D-02  PUNCHCI =  9.90D+01  OPTGRAD =  1.00D-06
 OPTENERG=  1.00D-06  OPTSTEP =  3.00D-04  THRGRAD =  1.00D-10  COMPRESS=  1.00D-13  VARMIN  =  1.00D-07  VARMAX  =  1.00D-03
 THRDOUB =  0.00D+00  THRDIV  =  1.00D-05  THRRED  =  1.00D-07  THRPSP  =  1.00D+00  THRDC   =  1.00D-10  THRCS   =  1.00D-10
 THRNRM  =  1.00D-08  THREQ   =  0.00D+00  THRDE   =  1.00D+00  THRREF  =  1.00D-05  SPARFAC =  1.00D+00  THRDLP  =  1.00D-07
 THRDIA  =  1.00D-10  THRDLS  =  1.00D-07  THRGPS  =  0.00D+00  THRKEX  =  0.00D+00  THRDIS  =  2.00D-01  THRVAR  =  1.00D-10
 THRLOC  =  1.00D-06  THRGAP  =  1.00D-06  THRLOCT = -1.00D+00  THRGAPT = -1.00D+00  THRORB  =  1.00D-06  THRMLTP =  0.00D+00
 THRCPQCI=  1.00D-10  KEXTA   =  0.00D+00  THRCOARS=  0.00D+00  SYMTOL  =  1.00D-06  GRADTOL =  1.00D-06  THROVL  =  1.00D-08
 THRORTH =  1.00D-08  GRID    =  1.00D-06  GRIDMAX =  1.00D-03  DTMAX   =  0.00D+00

 SETTING GEOMTYP        =    XYZ
 ZUNIT=BOHR
 

 Variable memory set to 1000000000 words,  buffer space   230000 words

 SETTING BASIS          =    CC-PVTZ


 Recomputing integrals since basis changed


 Using spherical harmonics

 Library entry C      S cc-pVTZ              selected for orbital group  1
 Library entry C      P cc-pVTZ              selected for orbital group  1
 Library entry C      D cc-pVTZ              selected for orbital group  1
 Library entry C      F cc-pVTZ              selected for orbital group  1
 Library entry O      S cc-pVTZ              selected for orbital group  2
 Library entry O      P cc-pVTZ              selected for orbital group  2
 Library entry O      D cc-pVTZ              selected for orbital group  2
 Library entry O      F cc-pVTZ              selected for orbital group  2
 Library entry H      S cc-pVTZ              selected for orbital group  3
 Library entry H      P cc-pVTZ              selected for orbital group  3
 Library entry H      D cc-pVTZ              selected for orbital group  3

1PROGRAM * SEWARD (Integral evaluation for generally contracted gaussian basis sets)     Author: Roland Lindh, 1990

 Geometry written to block  1 of record 700


 Point group  C1  



 ATOMIC COORDINATES

 NR  ATOM    CHARGE       X              Y              Z

   1  C       6.00   -1.374377397   -0.025244720    0.000000681
   2  O       8.00    1.307056093    0.117325326    0.000000504
   3  H       1.00   -2.075818639    1.909299373   -0.000080731
   4  H       1.00   -2.108983812   -0.979693386    1.681964904
   5  H       1.00   -2.108977883   -0.979823475   -1.681892650
   6  H       1.00    1.937377477   -1.571995238   -0.000001117

 Bond lengths in Bohr (Angstrom)

 1-2  2.685220993  1-3  2.057785380  1-4  2.068724846  1-5  2.068725127  2-6  1.803083196
     ( 1.420957751)     ( 1.088933124)     ( 1.094722040)     ( 1.094722189)     ( 0.954150533)

 Bond angles

  1-2-6  107.41810039   2-1-3  106.88649181   2-1-4  112.27772426   2-1-5  112.27774393

  3-1-4  108.22365591   3-1-5  108.22339777   4-1-5  108.78543458

 NUCLEAR CHARGE:                   18
 NUMBER OF PRIMITIVE AOS:         162
 NUMBER OF SYMMETRY AOS:          148
 NUMBER OF CONTRACTIONS:          116   ( 116A   )
 NUMBER OF CORE ORBITALS:           2   (   2A   )
 NUMBER OF VALENCE ORBITALS:       12   (  12A   )


 NUCLEAR REPULSION ENERGY   40.33402829


 Eigenvalues of metric

         1 0.133E-02 0.180E-02 0.191E-02 0.232E-02 0.329E-02 0.458E-02 0.723E-02 0.998E-02


 Contracted 2-electron integrals neglected if value below      1.0D-16
 AO integral compression algorithm  1   Integral accuracy      1.0D-16

     196.346 MB (compressed) written to integral file ( 92.1%)

     Node minimum: 196.346 MB, node maximum: 196.346 MB


 NUMBER OF SORTED TWO-ELECTRON INTEGRALS:   23028291.     BUFFER LENGTH:  32768
 NUMBER OF SEGMENTS:   2  SEGMENT LENGTH:   15997996      RECORD LENGTH: 524288

 Memory used in sort:      16.56 MW

 SORT1 READ    26631627. AND WROTE    22813263. INTEGRALS IN     67 RECORDS. CPU TIME:     0.25 SEC, REAL TIME:     0.40 SEC
 SORT2 READ    22813263. AND WROTE    23028291. INTEGRALS IN    749 RECORDS. CPU TIME:     0.23 SEC, REAL TIME:     0.32 SEC

 FILE SIZES:   FILE 1:   175.9 MBYTE,  FILE 4:   281.1 MBYTE,   TOTAL:    457.0 MBYTE

 OPERATOR DM      FOR CENTER  0  COORDINATES:    0.000000    0.000000    0.000000


 **********************************************************************************************************************************
 DATASETS  * FILE   NREC   LENGTH (MB)   RECORD NAMES
              1      19      176.07       500      610      700      900      950      970     1000      129      960     1100   
                                          VAR    BASINP    GEOM    SYMINP    ZMAT    AOBASIS   BASIS     P2S    ABASIS      S 
                                         1400     1410     1200     1210     1080     1600     1650     1300     1700   
                                           T        V       H0       H01     AOSYM     SMH    MOLCAS    ERIS     OPER   

 PROGRAMS   *        TOTAL       INT
 CPU TIMES  *         1.59      1.54
 REAL TIME  *         2.11 SEC
 DISK USED  *       653.95 MB      
 GA USED    *         0.00 MB       (max)       0.00 MB       (current)
 **********************************************************************************************************************************

1PROGRAM * RHF-SCF (CLOSED SHELL)       Authors: W. Meyer, H.-J. Werner


 NUMBER OF ELECTRONS:       9+    9-    SPACE SYMMETRY=1    SPIN SYMMETRY: Singlet 
 CONVERGENCE THRESHOLDS:    1.00E-10 (Density)    1.00E-13 (Energy)
 MAX. NUMBER OF ITERATIONS:      200
 INTERPOLATION TYPE:            DIIS
 INTERPOLATION STEPS:              2 (START)      1 (STEP)
 LEVEL SHIFTS:                  0.00 (CLOSED)  0.00 (OPEN) 



 Orbital guess generated from atomic densities. Full valence occupancy:   14

 Molecular orbital dump at record        2100.2

 ITERATION    DDIFF          GRAD             ENERGY        2-EL.EN.            DIPOLE MOMENTS         DIIS
    1      0.000D+00      0.000D+00      -115.05343511    164.473092   -0.49103   -0.89873   -0.00000    0
    2      0.000D+00      0.474D-02      -115.08171472    162.034307   -0.30037   -0.49990   -0.00000    1
    3      0.786D-02      0.254D-02      -115.08876543    163.198204   -0.39209   -0.59665   -0.00000    2
    4      0.257D-02      0.496D-03      -115.08926854    163.043809   -0.38485   -0.59103   -0.00000    3
    5      0.686D-03      0.973D-04      -115.08929887    163.050868   -0.38830   -0.58643   -0.00000    4
    6      0.185D-03      0.183D-04      -115.08930019    163.049443   -0.38865   -0.58645   -0.00000    5
    7      0.475D-04      0.382D-05      -115.08930024    163.048553   -0.38883   -0.58625   -0.00000    6
    8      0.890D-05      0.115D-05      -115.08930024    163.049001   -0.38885   -0.58623   -0.00000    7
    9      0.224D-05      0.313D-06      -115.08930024    163.048898   -0.38886   -0.58622   -0.00000    6
   10      0.738D-06      0.580D-07      -115.08930024    163.048909   -0.38886   -0.58621   -0.00000    6
   11      0.154D-06      0.143D-07      -115.08930024    163.048912   -0.38886   -0.58622   -0.00000    6
   12      0.286D-07      0.600D-08      -115.08930024    163.048910   -0.38886   -0.58622   -0.00000    7
   13      0.105D-07      0.160D-08      -115.08930024    163.048911   -0.38886   -0.58622   -0.00000    7
   14      0.320D-08      0.337D-09      -115.08930024    163.048911   -0.38886   -0.58622   -0.00000    7
   15      0.808D-09      0.857D-10      -115.08930024    163.048911   -0.38886   -0.58622   -0.00000    7
   16      0.177D-09      0.209D-10      -115.08930024    163.048911   -0.38886   -0.58622   -0.00000    7
   17      0.484D-10      0.669D-11      -115.08930024    163.048911   -0.38886   -0.58622   -0.00000    7
   18      0.132D-10      0.146D-11      -115.08930024    163.048911   -0.38886   -0.58622   -0.00000    7
   19      0.282D-11      0.463D-12      -115.08930024    163.048911   -0.38886   -0.58622   -0.00000    7
   20      0.113D-11      0.112D-12      -115.08930024    163.048911   -0.38886   -0.58622   -0.00000    7
   21      0.269D-12      0.585D-13      -115.08930024    163.048911   -0.38886   -0.58622   -0.00000    0

 Final occupancy:   9

 !RHF STATE 1.1 Energy               -115.089300243901
 Nuclear energy                        40.33402829
 One-electron energy                 -236.94778389
 Two-electron energy                   81.52445536
 Virial quotient                       -1.00120194
 !RHF STATE 1.1 Dipole moment          -0.38886282    -0.58621525    -0.00000253
 Dipole moment /Debye                  -0.98832596    -1.48991296    -0.00000642

 Orbital energies:

         1.1          2.1          3.1          4.1          5.1          6.1          7.1          8.1          9.1         10.1
    -20.552112   -11.269836    -1.355297    -0.923594    -0.688903    -0.617749    -0.590219    -0.502419    -0.449307     0.138600

        11.1
      0.178962


 **********************************************************************************************************************************
 DATASETS  * FILE   NREC   LENGTH (MB)   RECORD NAMES
              1      19      176.07       500      610      700      900      950      970     1000      129      960     1100   
                                          VAR    BASINP    GEOM    SYMINP    ZMAT    AOBASIS   BASIS     P2S    ABASIS      S 
                                         1400     1410     1200     1210     1080     1600     1650     1300     1700   
                                           T        V       H0       H01     AOSYM     SMH    MOLCAS    ERIS     OPER   

              2       3        0.63       700     1000     2100   
                                         GEOM     BASIS     RHF  

 PROGRAMS   *        TOTAL       RHF       INT
 CPU TIMES  *         5.11      3.52      1.54
 REAL TIME  *         6.11 SEC
 DISK USED  *       653.95 MB      
 GA USED    *         0.00 MB       (max)       0.00 MB       (current)
 **********************************************************************************************************************************


1PROGRAM * CCSD (Closed-shell coupled cluster)     Authors: C. Hampel, H.-J. Werner, 1991, M. Deegan, P.J. Knowles, 1992


 Convergence thresholds:  THRVAR = 1.00D-08  THRDEN = 1.00D-12

 CCSD(T)     terms to be evaluated (factor= 1.000)


 Number of core orbitals:           2 (   2 )
 Number of closed-shell orbitals:   7 (   7 )
 Number of external orbitals:     107 ( 107 )

 Molecular orbitals read from record     2100.2  Type=RHF/CANONICAL (state 1.1)

 Number of N-1 electron functions:               7
 Number of N-2 electron functions:              28
 Number of singly external CSFs:               749
 Number of doubly external CSFs:            280875
 Total number of CSFs:                      281625

 Length of J-op  integral file:               0.00 MB
 Length of K-op  integral file:               0.96 MB
 Length of 3-ext integral record:             0.00 MB

 Memory could be reduced to 12.77 Mwords without degradation in triples

 Integral transformation finished. Total CPU:   0.61 sec, npass=  1  Memory used:   7.23 MW

 Reference energy:                   -115.08930024

 MP2 singlet pair energy:              -0.28089268
 MP2 triplet pair energy:              -0.14722753
 MP2 correlation energy:               -0.42812021
 MP2 total energy:                   -115.51742045

 SCS-MP2 correlation energy:           -0.42867945   (PS=  1.200000  PT=  0.333333)
 SCS-MP2 total energy:               -115.51797970

 ITER.      SQ.NORM     CORR.ENERGY   TOTAL ENERGY   ENERGY CHANGE        DEN1      VAR(S)    VAR(P)  DIIS     TIME
   1      1.11787205    -0.44543604  -115.53473629    -0.01731583    -0.00699455  0.12D-02  0.18D-02  1  1     1.24
   2      1.12572937    -0.44661868  -115.53591892    -0.00118263    -0.00942795  0.16D-04  0.21D-03  2  2     1.92
   3      1.12830445    -0.44669432  -115.53599456    -0.00007564    -0.00177407  0.75D-05  0.10D-04  3  3     2.62
   4      1.12893993    -0.44669547  -115.53599572    -0.00000116    -0.00033103  0.34D-06  0.83D-06  4  4     3.31
   5      1.12904446    -0.44669730  -115.53599754    -0.00000183    -0.00003967  0.11D-06  0.65D-07  5  5     4.00
   6      1.12906911    -0.44669515  -115.53599539     0.00000215    -0.00000739  0.17D-07  0.49D-08  6  6     4.70
   7      1.12907260    -0.44669505  -115.53599530     0.00000010    -0.00000027  0.25D-08  0.87D-09  6  2     5.38
   8      1.12907390    -0.44669501  -115.53599525     0.00000005     0.00000002  0.42D-09  0.10D-09  6  1     6.08
   9      1.12907462    -0.44669495  -115.53599520     0.00000005    -0.00000003  0.28D-10  0.17D-10  6  3     6.77
  10      1.12907470    -0.44669497  -115.53599521    -0.00000002     0.00000006  0.25D-11  0.18D-11  6  4     7.47
  11      1.12907456    -0.44669498  -115.53599522    -0.00000001     0.00000011  0.22D-12  0.12D-12  6  6     8.17
  12      1.12907455    -0.44669498  -115.53599522    -0.00000000     0.00000001  0.26D-13  0.10D-13  6  5     8.86
  13      1.12907455    -0.44669498  -115.53599522    -0.00000000    -0.00000000  0.54D-14  0.17D-14  6  2     9.54
  14      1.12907455    -0.44669498  -115.53599522     0.00000000    -0.00000000  0.42D-15  0.13D-15  6  1    10.23
  15      1.12907455    -0.44669498  -115.53599522    -0.00000000    -0.00000000  0.60D-16  0.27D-16  6  3    10.92
  16      1.12907455    -0.44669498  -115.53599522     0.00000000     0.00000000  0.17D-16  0.32D-17  6  4    11.60
  17      1.12907455    -0.44669498  -115.53599522    -0.00000000     0.00000000  0.11D-17  0.69D-18  6  5    12.29
  18      1.12907455    -0.44669498  -115.53599522    -0.00000000     0.00000000  0.87D-19  0.43D-19  6  6    12.97
  19      1.12907455    -0.44669498  -115.53599522     0.00000000    -0.00000000  0.18D-19  0.92D-20  6  2    13.66
  20      1.12907455    -0.44669498  -115.53599522     0.00000000    -0.00000000  0.12D-20  0.69D-21  6  1    14.36

 Norm of t1 vector:      0.04457008      S-energy:    -0.00000000      T1 diagnostic:  0.00842295
                                                                       D1 diagnostic:  0.01718352


 Total CPU time for triples:      7.20 sec


 RESULTS
 =======

  Reference energy                   -115.089300243901
  CCSD singlet pair energy             -0.312971828359
  CCSD triplet pair energy             -0.133723150482
  CCSD correlation energy              -0.446694978841

  Triples (T) contribution             -0.014764195425
  Total correlation energy             -0.461459174265

  CCSD total energy                  -115.535995222742
  CCSD[T] energy                     -115.551224045510
  CCSD-T energy                      -115.550494691585
 !CCSD(T) total energy               -115.550759418166

 Timing summary (sec):

 STEP                 CPU(USER)    SYS     CPU(TOT)    WALL
 Transformation          0.62      0.06      0.68      0.69
 CCSD iterations        13.74      0.77     14.51     14.54
 Triples                 7.20      0.15      7.35      7.35

 Program statistics:

 Available memory in ccsd:               999999704
 Min. memory needed in ccsd:                915605
 Max. memory used in ccsd:                 1141922
 Max. memory used in cckext:                874802 (20 integral passes)



 **********************************************************************************************************************************
 DATASETS  * FILE   NREC   LENGTH (MB)   RECORD NAMES
              1      20      215.47       500      610      700      900      950      970     1000      129      960     1100   
                                          VAR    BASINP    GEOM    SYMINP    ZMAT    AOBASIS   BASIS     P2S    ABASIS      S 
                                         1400     1410     1200     1210     1080     1600     1650     1300     1700     1380   
                                           T        V       H0       H01     AOSYM     SMH    MOLCAS    ERIS     OPER     JKOP   

              2       3        0.63       700     1000     2100   
                                         GEOM     BASIS     RHF  

 PROGRAMS   *        TOTAL   CCSD(T)       RHF       INT
 CPU TIMES  *        26.67     21.56      3.52      1.54
 REAL TIME  *        28.72 SEC
 DISK USED  *       653.95 MB      
 GA USED    *         0.00 MB       (max)       0.00 MB       (current)
 **********************************************************************************************************************************

        CCSD(T)         RHF-SCF 
   -115.55075942   -115.08930024
 **********************************************************************************************************************************
 Variable memory released
