
 Working directory              : /scratch/mel64643/tmp/40073373/
 Global scratch directory       : /scratch/mel64643/tmp/40073373/
 Wavefunction directory         : /home/mel64643/wfu/
 Main file repository           : /scratch/mel64643/tmp/40073373/

 id        : ccgc

 Nodes     nprocs
 a1-8         3
 Distribution of processes:   nprocs(total)=    4   nprocs(compute)=    3   nprocs(helper)=    1
 GA implementation: MPI file
 GA implementation (serial work in mppx): MPI file

 Using customized tuning parameters: mindgm=1; mindgv=20; mindgc=4; mindgr=1; noblas=0; minvec=7
 default implementation of scratch files=sf  


 Variables initialized (1015), CPU time= 0.01 sec
 ***,Optimization of min3
 memory,1000,m
 gthresh,energy=1.0d-12,orbital=1.0d-10,oneint=1.0d-16,twoint=1.0d-16,optgrad=1.0d-6,compress=1.0d-13
 geomtyp=xyz
 
  bohr
  geometry = {
  6
  arbitrary comment
  C   -1.3763880969   -0.0237983420    0.0017498545
  O    1.3191946864    0.1253633041   -0.0034602496
  H   -2.0790421003    1.9073862565    0.0034632366
  H   -2.1259734354   -0.9762781112    1.6827833643
  H   -2.0987805301   -0.9843247638   -1.6758272171
  H    1.9372653164   -1.5784804636   -0.0087173987
 }
 
 basis=cc-pvdz
 {rhf;maxit,200}
 {ccsd(t);maxit,200}
 Commands initialized (818), CPU time= 0.01 sec, 672 directives.
 Default parameters read. Elapsed time= 0.11 sec

 Checking input...
 Passed
1


                                         ***  PROGRAM SYSTEM MOLPRO  ***
                                       Copyright, TTI GmbH Stuttgart, 2015
                                    Version 2022.1 linked Mar  4 2022 00:40:14


 **********************************************************************************************************************************
 LABEL *   Optimization of min3                                                          
  64 bit mpp version                                                                     DATE: 07-Aug-25          TIME: 21:26:36  
 **********************************************************************************************************************************

 SHA1:             31073afc4d8441e10870424e0d77336a33bc4286
 **********************************************************************************************************************************

 Memory per process:      1000 MW
 Total memory per node:   3000 MW

 GA preallocation disabled
 GA check disabled

 Variable memory set to 1000.0 MW


 THRESHOLDS:

 ZERO    =  1.00D-12  ONEINT  =  1.00D-16  TWOINT  =  1.00D-16  PREFAC  =  1.00D-14  XXXXXX  =  1.00D-09  EORDER  =  1.00D-04
 ENERGY  =  1.00D-12  ETEST   =  0.00D+00  EDENS   =  0.00D+00  THRDEDEF=  1.00D-06  GRADIENT=  1.00D-05  STEP    =  1.00D-03
 ORBITAL =  1.00D-10  CIVEC   =  1.00D-05  COEFF   =  1.00D-04  PRINTCI =  5.00D-02  PUNCHCI =  9.90D+01  OPTGRAD =  1.00D-06
 OPTENERG=  1.00D-06  OPTSTEP =  3.00D-04  THRGRAD =  1.00D-10  COMPRESS=  1.00D-13  VARMIN  =  1.00D-07  VARMAX  =  1.00D-03
 THRDOUB =  0.00D+00  THRDIV  =  1.00D-05  THRRED  =  1.00D-07  THRPSP  =  1.00D+00  THRDC   =  1.00D-10  THRCS   =  1.00D-10
 THRNRM  =  1.00D-08  THREQ   =  0.00D+00  THRDE   =  1.00D+00  THRREF  =  1.00D-05  SPARFAC =  1.00D+00  THRDLP  =  1.00D-07
 THRDIA  =  1.00D-10  THRDLS  =  1.00D-07  THRGPS  =  0.00D+00  THRKEX  =  0.00D+00  THRDIS  =  2.00D-01  THRVAR  =  1.00D-10
 THRLOC  =  1.00D-06  THRGAP  =  1.00D-06  THRLOCT = -1.00D+00  THRGAPT = -1.00D+00  THRORB  =  1.00D-06  THRMLTP =  0.00D+00
 THRCPQCI=  1.00D-10  KEXTA   =  0.00D+00  THRCOARS=  0.00D+00  SYMTOL  =  1.00D-06  GRADTOL =  1.00D-06  THROVL  =  1.00D-08
 THRORTH =  1.00D-08  THRDLOVL= -1.00D+00  GRID    =  1.00D-06  GRIDMAX =  1.00D-03  DTMAX   =  0.00D+00  THROCCDE=  1.00D-01
 THROCCDE=  1.00D-01  THRPRINT=  2.50D-01

 SETTING GEOMTYP        =    XYZ
 ZUNIT=BOHR

 SETTING BASIS          =    CC-PVDZ


 Recomputing integrals since basis changed


 Using spherical harmonics

 Library entry C      S cc-pVDZ              selected for orbital group  1
 Library entry C      P cc-pVDZ              selected for orbital group  1
 Library entry C      D cc-pVDZ              selected for orbital group  1
 Library entry O      S cc-pVDZ              selected for orbital group  2
 Library entry O      P cc-pVDZ              selected for orbital group  2
 Library entry O      D cc-pVDZ              selected for orbital group  2
 Library entry H      S cc-pVDZ              selected for orbital group  3
 Library entry H      P cc-pVDZ              selected for orbital group  3


 PROGRAM * SEWARD (Integral evaluation for generally contracted gaussian basis sets)     Author: Roland Lindh, 1990

 Geometry written to block  1 of record 700


 Point group  C1  



 ATOMIC COORDINATES

 NR  ATOM    CHARGE       X              Y              Z

   1  C       6.00   -1.376388097   -0.023798342    0.001749855
   2  O       8.00    1.319194686    0.125363304   -0.003460250
   3  H       1.00   -2.079042100    1.907386256    0.003463237
   4  H       1.00   -2.125973435   -0.976278111    1.682783364
   5  H       1.00   -2.098780530   -0.984324764   -1.675827217
   6  H       1.00    1.937265316   -1.578480464   -0.008717399

 Bond lengths in Bohr (Angstrom)

 1-2  2.699711630  1-3  2.055042466  1-4  2.072430832  1-5  2.063668255  2-6  1.812490697
     ( 1.428625870)     ( 1.087481641)     ( 1.096683167)     ( 1.092046211)     ( 0.959128772)

 Bond angles

  1-2-6  106.77124358   2-1-3  106.82651261   2-1-4  112.83627170   2-1-5  111.94181139

  3-1-4  107.91164274   3-1-5  108.56512834   4-1-5  108.59375574

 NUCLEAR CHARGE:                   18
 NUMBER OF PRIMITIVE AOS:          82
 NUMBER OF SYMMETRY AOS:           80
 NUMBER OF CONTRACTIONS:           48   (   48A   )
 NUMBER OF INNER CORE ORBITALS:     0   (    0A   )
 NUMBER OF OUTER CORE ORBITALS:     2   (    2A   )
 NUMBER OF VALENCE ORBITALS:       12   (   12A   )


 NUCLEAR REPULSION ENERGY   40.19927523

 Eigenvalues of metric

         1 0.969E-02 0.177E-01 0.368E-01 0.374E-01 0.382E-01 0.474E-01 0.479E-01 0.516E-01


 Contracted 2-electron integrals neglected if value below      1.0D-16
 AO integral compression algorithm  1   Integral accuracy      1.0D-16

     7.340 MB (compressed) written to integral file (100.0%)

     Node minimum: 2.359 MB, node maximum: 2.621 MB


 NUMBER OF SORTED TWO-ELECTRON INTEGRALS:     231084.     BUFFER LENGTH:  32768
 NUMBER OF SEGMENTS:   1  SEGMENT LENGTH:     231084      RECORD LENGTH: 524288

 Memory used in sort:       0.79 MW

 SORT1 READ      832256. AND WROTE      227683. INTEGRALS IN      1 RECORDS. CPU TIME:     0.01 SEC, REAL TIME:     0.02 SEC
 SORT2 READ      682150. AND WROTE      692076. INTEGRALS IN     30 RECORDS. CPU TIME:     0.01 SEC, REAL TIME:     0.03 SEC

 Node minimum:      230300.  Node maximum:      231084. integrals

 OPERATOR DM      FOR CENTER  0  COORDINATES:    0.000000    0.000000    0.000000


 **********************************************************************************************************************************
 DATASETS  * FILE   NREC   LENGTH (MB)   RECORD NAMES
              1      18       28.73       500      610      700      900      950      970     1000      129      960     1100   
                                          VAR    BASINP    GEOM    SYMINP    ZMAT    AOBASIS   BASIS     P2S    ABASIS      S 
                                         1400     1410     1200     1210     1080     1600     1650     1700   
                                           T        V       H0       H01     AOSYM     SMH    MOLCAS    OPER   

 PROGRAMS   *        TOTAL       INT
 CPU TIMES  *         0.47      0.31
 REAL TIME  *         1.65 SEC
 DISK USED  *        29.07 MB (local),      104.71 MB (total)
 GA USED    *         0.00 MB       (max)       0.00 MB       (current)
 **********************************************************************************************************************************


 Program * Restricted Hartree-Fock

 Orbital guess generated from atomic densities. Full valence occupancy:   14

 Initial occupancy:   9

 NELEC=   18   SYM=1   MS2= 0   THRE=1.0D-12   THRD=1.0D-10   THRG=1.0D-10  HFMA2=F  DIIS_START=2   DIIS_MAX=10   DIIS_INCORE=F

 Level shifts:    0.00 (CLOSED)    0.00 (OPEN)    0.30 (GAP_MIN)

 ITER           ETOT              DE          GRAD        DDIFF     DIIS  NEXP   TIME(IT)  TIME(TOT)  DIAG
   1     -115.01381115    -115.01381115     0.00D+00     0.16D+00     0     0       0.00      0.00    start
   2     -115.04217725      -0.02836610     0.10D-01     0.21D-01     1     0       0.01      0.01    diag
   3     -115.04828129      -0.00610404     0.49D-02     0.64D-02     2     0       0.00      0.01    diag
   4     -115.04874672      -0.00046543     0.10D-02     0.20D-02     3     0       0.00      0.01    diag
   5     -115.04876802      -0.00002130     0.19D-03     0.44D-03     4     0       0.00      0.01    diag
   6     -115.04876883      -0.00000081     0.33D-04     0.93D-04     5     0       0.02      0.03    diag
   7     -115.04876886      -0.00000003     0.68D-05     0.15D-04     6     0       0.00      0.03    diag
   8     -115.04876886      -0.00000000     0.22D-05     0.50D-05     7     0       0.00      0.03    fixocc
   9     -115.04876886      -0.00000000     0.45D-06     0.14D-05     8     0       0.00      0.03    diag
  10     -115.04876886      -0.00000000     0.70D-07     0.23D-06     9     0       0.01      0.04    diag/orth
  11     -115.04876886      -0.00000000     0.16D-07     0.45D-07     9     0       0.00      0.04    diag
  12     -115.04876886      -0.00000000     0.43D-08     0.13D-07     9     0       0.00      0.04    diag
  13     -115.04876886       0.00000000     0.71D-09     0.20D-08     9     0       0.01      0.05    diag
  14     -115.04876886       0.00000000     0.16D-09     0.41D-09     9     0       0.00      0.05    diag
  15     -115.04876886       0.00000000     0.68D-10     0.13D-09     9     0       0.00      0.05    diag
  16     -115.04876886      -0.00000000     0.19D-10     0.43D-10     9     0       0.00      0.05    diag
  17     -115.04876886       0.00000000     0.46D-11     0.75D-11     0     0       0.00      0.05    diag

 Final occupancy:   9

 !RHF STATE 1.1 Energy               -115.048768864905
  RHF One-electron energy            -236.665955171608
  RHF Two-electron energy              81.417911079688
  RHF Kinetic energy                  114.931298041838
  RHF Nuclear energy                   40.199275227015
  RHF Virial quotient                  -1.001022096027

 !RHF STATE 1.1 Dipole moment          -0.40890519    -0.59687780    -0.00160314
 Dipole moment /Debye                  -1.03933333    -1.51711204    -0.00407476

 Orbital energies:

           1.1          2.1          3.1          4.1          5.1          6.1          7.1          8.1          9.1         10.1
    -20.550423   -11.275193    -1.347732    -0.921801    -0.681536    -0.612534    -0.582970    -0.498875    -0.444001     0.184475

          11.1
      0.224386


 HOMO      9.1    -0.444001 =     -12.0819eV
 LUMO     10.1     0.184475 =       5.0198eV
 LUMO-HOMO         0.628476 =      17.1017eV

 Orbitals saved in record  2100.2


 **********************************************************************************************************************************
 DATASETS  * FILE   NREC   LENGTH (MB)   RECORD NAMES
              1      18       28.73       500      610      700      900      950      970     1000      129      960     1100   
                                          VAR    BASINP    GEOM    SYMINP    ZMAT    AOBASIS   BASIS     P2S    ABASIS      S 
                                         1400     1410     1200     1210     1080     1600     1650     1700   
                                           T        V       H0       H01     AOSYM     SMH    MOLCAS    OPER   

              2       4        0.47       700     1000      520     2100   
                                         GEOM     BASIS   MCVARS     RHF  

 PROGRAMS   *        TOTAL   RHF-SCF       INT
 CPU TIMES  *         0.53      0.06      0.31
 REAL TIME  *         1.90 SEC
 DISK USED  *        29.40 MB (local),      105.70 MB (total)
 GA USED    *         0.00 MB       (max)       0.00 MB       (current)
 **********************************************************************************************************************************


 PROGRAM * CCSD (Closed-shell coupled cluster)     Authors: C. Hampel, H.-J. Werner, 1991, M. Deegan, P.J. Knowles, 1992


 Convergence thresholds:  THRVAR = 1.00D-08  THRDEN = 1.00D-12

 CCSD(T)     terms to be evaluated (factor= 1.000)


 Number of core orbitals:           2 (   2 )
 Number of closed-shell orbitals:   7 (   7 )
 Number of external orbitals:      39 (  39 )

 Molecular orbitals read from record     2100.2  Type=RHF/CANONICAL  

 Number of N-1 electron functions:               7
 Number of N-2 electron functions:              28
 Number of singly external CSFs:               273
 Number of doubly external CSFs:             37401
 Total number of CSFs:                       37675

 Length of J-op  integral file:               0.00 MB
 Length of K-op  integral file:               0.16 MB
 Length of 3-ext integral record:             0.00 MB

 Memory could be reduced to 0.73 Mwords without degradation in triples

 Integral transformation finished. Total CPU:   0.02 sec, npass=  1  Memory used:   0.66 MW

 Reference energy:                   -115.04876886

 MP2 singlet pair energy:              -0.21884852
 MP2 triplet pair energy:              -0.11990486
 MP2 correlation energy:               -0.33875338
 MP2 total energy:                   -115.38752225

 SCS-MP2 correlation energy:           -0.33722569   (PS=  1.200000  PT=  0.333333)
 SCS-MP2 total energy:               -115.38599456

 ITER.      SQ.NORM     CORR.ENERGY   TOTAL ENERGY   ENERGY CHANGE        DEN1      VAR(S)    VAR(P)  DIIS     TIME  TIME/IT
   1      1.10756293    -0.36152927  -115.41029814    -0.02277589    -0.01405630  0.93D-03  0.17D-02  1  1     0.05     0.04
   2      1.11612887    -0.36347872  -115.41224759    -0.00194945    -0.00927760  0.20D-04  0.16D-03  2  2     0.08     0.04
   3      1.11803629    -0.36360778  -115.41237665    -0.00012906    -0.00121795  0.97D-05  0.87D-05  3  3     0.10     0.04
   4      1.11856003    -0.36360622  -115.41237509     0.00000156    -0.00025837  0.34D-06  0.69D-06  4  4     0.12     0.04
   5      1.11866045    -0.36360660  -115.41237547    -0.00000038    -0.00003681  0.10D-06  0.50D-07  5  5     0.14     0.03
   6      1.11867997    -0.36360520  -115.41237407     0.00000140    -0.00000444  0.16D-07  0.42D-08  6  6     0.16     0.03
   7      1.11868482    -0.36360477  -115.41237364     0.00000043    -0.00000035  0.20D-08  0.74D-09  6  1     0.18     0.03
   8      1.11868612    -0.36360488  -115.41237374    -0.00000010     0.00000076  0.26D-09  0.74D-10  6  3     0.20     0.03
   9      1.11868721    -0.36360475  -115.41237362     0.00000013    -0.00000039  0.13D-10  0.11D-10  6  2     0.22     0.03
  10      1.11868713    -0.36360475  -115.41237362    -0.00000000     0.00000007  0.11D-11  0.90D-12  6  5     0.24     0.03
  11      1.11868717    -0.36360475  -115.41237362     0.00000000    -0.00000000  0.19D-12  0.51D-13  6  4     0.26     0.03
  12      1.11868715    -0.36360475  -115.41237362    -0.00000000     0.00000001  0.19D-13  0.10D-13  6  1     0.28     0.03
  13      1.11868715    -0.36360475  -115.41237362    -0.00000000    -0.00000000  0.24D-14  0.95D-15  6  6     0.31     0.03
  14      1.11868715    -0.36360475  -115.41237362     0.00000000    -0.00000000  0.24D-15  0.13D-15  6  3     0.33     0.03
  15      1.11868715    -0.36360475  -115.41237362    -0.00000000    -0.00000000  0.29D-16  0.17D-16  6  2     0.35     0.03
  16      1.11868715    -0.36360475  -115.41237362    -0.00000000    -0.00000000  0.66D-17  0.18D-17  6  5     0.37     0.03
  17      1.11868715    -0.36360475  -115.41237362    -0.00000000    -0.00000000  0.78D-18  0.29D-18  6  4     0.39     0.03
  18      1.11868715    -0.36360475  -115.41237362     0.00000000    -0.00000000  0.14D-18  0.54D-19  6  1     0.41     0.03
  19      1.11868715    -0.36360475  -115.41237362    -0.00000000    -0.00000000  0.22D-19  0.59D-20  6  6     0.43     0.03
  20      1.11868715    -0.36360475  -115.41237362     0.00000000     0.00000000  0.42D-20  0.11D-20  6  3     0.45     0.03

 Norm of t1 vector:      0.04199292      S-energy:    -0.00000000      T1 diagnostic:  0.00793592
                                                                       D1 diagnostic:  0.01785764
                                                                       D2 diagnostic:  0.13494355 (internal)


 Total CPU time for triples:      0.09 sec


 RESULTS
 =======

  Reference energy                   -115.048768864905
  CCSD singlet pair energy             -0.254855587946
  CCSD triplet pair energy             -0.108749165001
  CCSD correlation energy              -0.363604752947

  Triples (T) contribution             -0.007777078970
  Total correlation energy             -0.371381831917

  CCSD total energy                  -115.412373617853
  CCSD[T] energy                     -115.420444755567
  CCSD-T energy                      -115.419998716763
 !CCSD(T) total energy               -115.420150696823

 Timing summary (sec):

 STEP                 CPU(USER)    SYS     CPU(TOT)    WALL
 Transformation          0.03      0.01      0.04      0.05
 CCSD iterations         0.42      0.07      0.49      0.65
 Triples                 0.09      0.00      0.09      0.09

 Program statistics:

 Available memory in ccsd:               999999795
 Min. memory needed in ccsd:                136177
 Max. memory used in ccsd:                  162910
 Max. memory used in cckext:                178997 (20 integral passes)



 **********************************************************************************************************************************
 DATASETS  * FILE   NREC   LENGTH (MB)   RECORD NAMES
              1      19       31.13       500      610      700      900      950      970     1000      129      960     1100   
                                          VAR    BASINP    GEOM    SYMINP    ZMAT    AOBASIS   BASIS     P2S    ABASIS      S 
                                         1400     1410     1200     1210     1080     1600     1650     1700     1380   
                                           T        V       H0       H01     AOSYM     SMH    MOLCAS    OPER     JKOP   

              2       4        0.47       700     1000      520     2100   
                                         GEOM     BASIS   MCVARS     RHF  

 PROGRAMS   *        TOTAL   CCSD(T)   RHF-SCF       INT
 CPU TIMES  *         1.10      0.57      0.06      0.31
 REAL TIME  *         2.75 SEC
 DISK USED  *        35.56 MB (local),      116.35 MB (total)
 SF USED    *         5.97 MB
 GA USED    *         0.00 MB       (max)       0.00 MB       (current)
 **********************************************************************************************************************************

 CCSD(T)/cc-pVDZ energy=   -115.420150696823

         CCSD(T)         RHF-SCF
   -115.42015070   -115.04876886
 **********************************************************************************************************************************
 Molpro calculation terminated
