
    -----------------------------------------------------------------------
          Psi4: An Open-Source Ab Initio Electronic Structure Package
                               Psi4 1.4a2.dev629 

                         Git: Rev {master} 2938fc2 dirty


    D. G. A. Smith, L. A. Burns, A. C. Simmonett, R. M. Parrish,
    M. C. Schieber, R. Galvelis, P. Kraus, H. Kruse, R. Di Remigio,
    A. Alenaizan, A. M. James, S. Lehtola, J. P. Misiewicz, M. Scheurer,
    R. A. Shaw, J. B. Schriber, Y. Xie, Z. L. Glick, D. A. Sirianni,
    J. S. O'Brien, J. M. Waldrop, A. Kumar, E. G. Hohenstein,
    B. P. Pritchard, B. R. Brooks, H. F. Schaefer III, A. Yu. Sokolov,
    K. Patkowski, A. E. DePrince III, U. Bozkaya, R. A. King,
    F. A. Evangelista, J. M. Turney, T. D. Crawford, C. D. Sherrill,
    J. Chem. Phys. 152(18) 184108 (2020). https://doi.org/10.1063/5.0006002

                            Additional Code Authors
    E. T. Seidl, C. L. Janssen, E. F. Valeev, M. L. Leininger,
    J. F. Gonthier, R. M. Richard, H. R. McAlexander, M. Saitow, X. Wang,
    P. Verma, and M. H. Lechner

             Previous Authors, Complete List of Code Contributors,
                       and Citations for Specific Modules
    https://github.com/psi4/psi4/blob/master/codemeta.json
    https://github.com/psi4/psi4/graphs/contributors
    http://psicode.org/psi4manual/master/introduction.html#citing-psifour

    -----------------------------------------------------------------------


    Psi4 started on: Monday, 06 September 2021 06:16PM

    Process ID: 14230
    Host:       n045
    PSIDATADIR: /opt/psi/4/master/share/psi4
    Memory:     500.0 MiB
    Threads:    1
    
  ==> Input File <==

--------------------------------------------------------------------------
# o-Benzyne preliminary computations

memory 14 gb

molecule {
  0 1
  units bohr
 H   -0.0000000000   -1.4256006426    0.9985291389
 O    0.0000000000   -0.0000000000   -0.1307146577
 H    0.0000000000    1.4256006426    0.9985291389
}

set {
  basis cc-pvdz
  reference rhf
  e_convergence 10 
  d_convergence 10
  r_convergence 8
  maxiter 300
  freeze_core True
}

e, wfn = energy('ccsd(t)', return_wfn = True)
psi4.print_out('Giraffe The Energy is %.12f \n'%(e))
--------------------------------------------------------------------------

  Memory set to  13.039 GiB by Python driver.

Scratch directory: /tmp/

*** tstart() called on n045
*** at Mon Sep  6 18:16:03 2021

   => Loading Basis Set <=

    Name: CC-PVDZ
    Role: ORBITAL
    Keyword: BASIS
    atoms 1, 3 entry H          line    22 file /opt/psi/4/master/share/psi4/basis/cc-pvdz.gbs 
    atoms 2    entry O          line   198 file /opt/psi/4/master/share/psi4/basis/cc-pvdz.gbs 


         ---------------------------------------------------------
                                   SCF
               by Justin Turney, Rob Parrish, Andy Simmonett
                          and Daniel G. A. Smith
                              RHF Reference
                        1 Threads,  13351 MiB Core
         ---------------------------------------------------------

  ==> Geometry <==

    Molecular point group: c2v
    Full point group: C2v

    Geometry (in Bohr), charge = 0, multiplicity = 1:

       Center              X                  Y                   Z               Mass       
    ------------   -----------------  -----------------  -----------------  -----------------
         H            0.000000000000    -1.425600642600     1.002864620192     1.007825032230
         O            0.000000000000     0.000000000000    -0.126379176408    15.994914619570
         H           -0.000000000000     1.425600642600     1.002864620192     1.007825032230

  Running in c2v symmetry.

  Rotational constants: A =     26.37236  B =     14.69546  C =      9.43693 [cm^-1]
  Rotational constants: A = 790623.59909  B = 440558.95377  C = 282911.98964 [MHz]
  Nuclear repulsion =    9.148409518235631

  Charge       = 0
  Multiplicity = 1
  Electrons    = 10
  Nalpha       = 5
  Nbeta        = 5

  ==> Algorithm <==

  SCF Algorithm Type is PK.
  DIIS enabled.
  MOM disabled.
  Fractional occupation disabled.
  Guess Type is SAD.
  Energy threshold   = 1.00e-10
  Density threshold  = 1.00e-10
  Integral threshold = 0.00e+00

  ==> Primary Basis <==

  Basis Set: CC-PVDZ
    Blend: CC-PVDZ
    Number of shells: 12
    Number of basis function: 24
    Number of Cartesian functions: 25
    Spherical Harmonics?: true
    Max angular momentum: 2

  ==> Integral Setup <==

  Using in-core PK algorithm.
   Calculation information:
      Number of atoms:                   3
      Number of AO shells:              12
      Number of primitives:             32
      Number of atomic orbitals:        25
      Number of basis functions:        24

      Integral cutoff                 1.00e-12
      Number of threads:                 1

  Performing in-core PK
  Using 90300 doubles for integral storage.
  We computed 3081 shell quartets total.
  Whereas there are 3081 unique shell quartets.

  ==> DiskJK: Disk-Based J/K Matrices <==

    J tasked:                  Yes
    K tasked:                  Yes
    wK tasked:                  No
    Memory [MiB]:            10013
    Schwarz Cutoff:          1E-12

    OpenMP threads:              1

  Minimum eigenvalue in the overlap matrix is 3.2687790421E-02.
  Reciprocal condition number of the overlap matrix is 1.0385918001E-02.
    Using symmetric orthogonalization.

  ==> Pre-Iterations <==

  SCF Guess: Superposition of Atomic Densities via on-the-fly atomic UHF (no occupation information).

   -------------------------
    Irrep   Nso     Nmo    
   -------------------------
     A1        11      11 
     A2         2       2 
     B1         4       4 
     B2         7       7 
   -------------------------
    Total      24      24
   -------------------------

  ==> Iterations <==

                        Total Energy        Delta E     RMS |[F,P]|

   @RHF iter SAD:   -75.50589070728320   -7.55059e+01   0.00000e+00 
   @RHF iter   1:   -75.95326543959239   -4.47375e-01   3.03220e-02 DIIS
   @RHF iter   2:   -76.00671808377209   -5.34526e-02   1.74458e-02 DIIS
   @RHF iter   3:   -76.02608083625867   -1.93628e-02   1.59027e-03 DIIS
   @RHF iter   4:   -76.02647125985729   -3.90424e-04   3.69649e-04 DIIS
   @RHF iter   5:   -76.02649124865357   -1.99888e-05   6.73800e-05 DIIS
   @RHF iter   6:   -76.02649217536039   -9.26707e-07   1.04539e-05 DIIS
   @RHF iter   7:   -76.02649219957591   -2.42155e-08   1.38891e-06 DIIS
   @RHF iter   8:   -76.02649220001280   -4.36884e-10   3.25820e-07 DIIS
   @RHF iter   9:   -76.02649220004182   -2.90186e-11   6.03345e-08 DIIS
   @RHF iter  10:   -76.02649220004275   -9.37916e-13   4.96368e-09 DIIS
   @RHF iter  11:   -76.02649220004272    2.84217e-14   8.65647e-10 DIIS
   @RHF iter  12:   -76.02649220004275   -2.84217e-14   4.85258e-11 DIIS
  Energy and wave function converged.


  ==> Post-Iterations <==

    Orbital Energies [Eh]
    ---------------------

    Doubly Occupied:                                                      

       1A1   -20.552037     2A1    -1.335110     1B2    -0.694117  
       3A1    -0.568245     1B1    -0.493248  

    Virtual:                                                              

       4A1     0.184439     2B2     0.255636     3B2     0.781331  
       5A1     0.855237     6A1     1.164925     2B1     1.199978  
       4B2     1.254964     7A1     1.433540     1A2     1.479168  
       3B1     1.666553     8A1     1.865631     5B2     1.936766  
       6B2     2.437472     9A1     2.479934     4B1     3.287742  
       2A2     3.329020    10A1     3.508683    11A1     3.850866  
       7B2     4.148841  

    Final Occupation by Irrep:
             A1    A2    B1    B2 
    DOCC [     3,    0,    1,    1 ]

  @RHF Final Energy:   -76.02649220004275

   => Energetics <=

    Nuclear Repulsion Energy =              9.1484095182356313
    One-Electron Energy =                -123.0642884243760022
    Two-Electron Energy =                  37.8893867060976177
    Total Energy =                        -76.0264922000427532

Computation Completed


Properties will be evaluated at   0.000000,   0.000000,   0.000000 [a0]

Properties computed using the SCF density matrix

  Nuclear Dipole Moment: [e a0]
     X:     0.0000      Y:     0.0000      Z:     0.9947

  Electronic Dipole Moment: [e a0]
     X:     0.0000      Y:     0.0000      Z:    -0.1761

  Dipole Moment: [e a0]
     X:     0.0000      Y:     0.0000      Z:     0.8186     Total:     0.8186

  Dipole Moment: [D]
     X:     0.0000      Y:     0.0000      Z:     2.0806     Total:     2.0806


*** tstop() called on n045 at Mon Sep  6 18:16:03 2021
Module time:
	user time   =       0.50 seconds =       0.01 minutes
	system time =       0.00 seconds =       0.00 minutes
	total time  =          0 seconds =       0.00 minutes
Total time:
	user time   =       0.50 seconds =       0.01 minutes
	system time =       0.00 seconds =       0.00 minutes
	total time  =          0 seconds =       0.00 minutes
 MINTS: Wrapper to libmints.
   by Justin Turney

   Calculation information:
      Number of threads:                 1
      Number of atoms:                   3
      Number of AO shells:              12
      Number of SO shells:               9
      Number of primitives:             32
      Number of atomic orbitals:        25
      Number of basis functions:        24

      Number of irreps:                  4
      Integral cutoff                 0.00e+00
      Number of functions per irrep: [  11    2    4    7 ]

 OEINTS: Overlap, kinetic, potential, dipole, and quadrupole integrals
         stored in file 35.

      Computing two-electron integrals...done
      Computed 11486 non-zero two-electron integrals.
        Stored in file 33.


*** tstart() called on n045
*** at Mon Sep  6 18:16:03 2021


	Wfn Parameters:
	--------------------
	Wavefunction         = CCSD_T
	Number of irreps     = 4
	Number of MOs        = 24
	Number of active MOs = 23
	AO-Basis             = NONE
	Semicanonical        = false
	Reference            = RHF
	Print Level          = 1

	IRREP	# MOs	# FZDC	# DOCC	# SOCC	# VIRT	# FZVR
	-----	-----	------	------	------	------	------
	 A1	   11	    1	    2	    0	    8	    0
	 A2	   2	    0	    0	    0	    2	    0
	 B1	   4	    0	    1	    0	    3	    0
	 B2	   7	    0	    1	    0	    6	    0
	Transforming integrals...
	IWL integrals will be deleted.
	(OO|OO)...
	Presorting SO-basis two-electron integrals.
	Sorting File: SO Ints (nn|nn) nbuckets = 1
	Transforming the one-electron integrals and constructing Fock matrices
	Starting first half-transformation.
	Sorting half-transformed integrals.
	First half integral transformation complete.
	Starting second half-transformation.
	Two-electron integral transformation complete.
	(OO|OV)...
	Starting second half-transformation.
	Two-electron integral transformation complete.
	(OO|VV)...
	Starting second half-transformation.
	Two-electron integral transformation complete.
	(OV|OO)...
	Starting first half-transformation.
	Sorting half-transformed integrals.
	First half integral transformation complete.
	Starting second half-transformation.
	Two-electron integral transformation complete.
	(OV|OV)...
	Starting second half-transformation.
	Two-electron integral transformation complete.
	(OV|VV)...
	Starting second half-transformation.
	Two-electron integral transformation complete.
	(VV|OO)...
	Starting first half-transformation.
	Sorting half-transformed integrals.
	First half integral transformation complete.
	Starting second half-transformation.
	Two-electron integral transformation complete.
	(VV|OV)...
	Starting second half-transformation.
	Two-electron integral transformation complete.
	(VV|VV)...
	Starting second half-transformation.
	Two-electron integral transformation complete.
	Frozen core energy     =    -61.30449140664435

	Size of irrep 0 of <ab|cd> integrals:      0.013 (MW) /      0.102 (MB)
	Size of irrep 1 of <ab|cd> integrals:      0.005 (MW) /      0.037 (MB)
	Size of irrep 2 of <ab|cd> integrals:      0.005 (MW) /      0.041 (MB)
	Size of irrep 3 of <ab|cd> integrals:      0.012 (MW) /      0.093 (MB)
	Total:                                     0.034 (MW) /      0.274 (MB)

	Size of irrep 0 of <ia|bc> integrals:      0.003 (MW) /      0.023 (MB)
	Size of irrep 1 of <ia|bc> integrals:      0.001 (MW) /      0.007 (MB)
	Size of irrep 2 of <ia|bc> integrals:      0.001 (MW) /      0.009 (MB)
	Size of irrep 3 of <ia|bc> integrals:      0.002 (MW) /      0.019 (MB)
	Total:                                     0.007 (MW) /      0.058 (MB)

	Size of irrep 0 of tijab amplitudes:       0.001 (MW) /      0.005 (MB)
	Size of irrep 1 of tijab amplitudes:       0.000 (MW) /      0.001 (MB)
	Size of irrep 2 of tijab amplitudes:       0.000 (MW) /      0.002 (MB)
	Size of irrep 3 of tijab amplitudes:       0.000 (MW) /      0.003 (MB)
	Total:                                     0.002 (MW) /      0.012 (MB)

	Nuclear Rep. energy          =      9.14840951823563
	SCF energy                   =    -76.02649220004275
	One-electron energy          =    -41.55937963021534
	Two-electron energy          =     17.68896931858128
	Reference energy             =    -76.02649220004278

*** tstop() called on n045 at Mon Sep  6 18:16:04 2021
Module time:
	user time   =       0.03 seconds =       0.00 minutes
	system time =       0.02 seconds =       0.00 minutes
	total time  =          1 seconds =       0.02 minutes
Total time:
	user time   =       0.57 seconds =       0.01 minutes
	system time =       0.02 seconds =       0.00 minutes
	total time  =          1 seconds =       0.02 minutes
            **************************
            *                        *
            *        CCENERGY        *
            *                        *
            **************************

    Nuclear Rep. energy (wfn)     =    9.148409518235631
    SCF energy          (wfn)     =  -76.026492200042753
    Reference energy    (file100) =  -76.026492200042782

    Input parameters:
    -----------------
    Wave function   =     CCSD_T
    Reference wfn   =     RHF
    Brueckner       =     No
    Memory (Mbytes) =     14000.0
    Maxiter         =    300
    R_Convergence   =     1.0e-08
    E_Convergence   =     1.0e-10
    Restart         =     Yes
    DIIS            =     Yes
    AO Basis        =     NONE
    ABCD            =     NEW
    Cache Level     =     2
    Cache Type      =     LOW
    Print Level     =     1
    Num. of threads =     1
    # Amps to Print =     10
    Print MP2 Amps? =     No
    Analyze T2 Amps =     No
    Print Pair Ener =     No
    Local CC        =     No
    SCS-MP2         =     False
    SCSN-MP2        =     False
    SCS-CCSD        =     False

MP2 correlation energy -0.2021240192173857
                Solving CC Amplitude Equations
                ------------------------------
  Iter             Energy              RMS        T1Diag      D1Diag    New D1Diag    D2Diag
  ----     ---------------------    ---------   ----------  ----------  ----------   --------
     0        -0.202124019217386    0.000e+00    0.000000    0.000000    0.000000    0.110067
     1        -0.207241117411502    2.684e-02    0.004559    0.008719    0.008719    0.117066
     2        -0.211236707381425    9.498e-03    0.005398    0.010049    0.010049    0.122495
     3        -0.211658109502022    2.479e-03    0.005891    0.010890    0.010890    0.123740
     4        -0.211669473203909    5.706e-04    0.005939    0.011112    0.011112    0.123943
     5        -0.211680868084945    1.701e-04    0.005966    0.011226    0.011226    0.123978
     6        -0.211678945924915    5.636e-05    0.005975    0.011272    0.011272    0.123971
     7        -0.211678717941812    1.513e-05    0.005979    0.011287    0.011287    0.123969
     8        -0.211678587212621    2.627e-06    0.005979    0.011289    0.011289    0.123969
     9        -0.211678540491226    6.371e-07    0.005979    0.011289    0.011289    0.123969
    10        -0.211678555026572    1.289e-07    0.005979    0.011289    0.011289    0.123969
    11        -0.211678553633467    2.752e-08    0.005979    0.011290    0.011290    0.123969
    12        -0.211678554058532    4.613e-09    0.005979    0.011290    0.011290    0.123969
    13        -0.211678553939748    1.005e-09    0.005979    0.011290    0.011290    0.123969
    14        -0.211678553932172    2.023e-10    0.005979    0.011290    0.011290    0.123969
    15        -0.211678553929241    5.546e-11    0.005979    0.011290    0.011290    0.123969

    Iterations converged.


    Largest TIA Amplitudes:
              1   0         0.0076570329
              3  17        -0.0074144830
              3  13         0.0060118882
              1   5        -0.0050829226
              3  15         0.0047258140
              0   2         0.0042515023
              0   0         0.0036564907
              2  11         0.0033337110
              2  10         0.0031191003
              1   1         0.0030955841

    Largest TIjAb Amplitudes:
      2   2  10  10        -0.0514209315
      3   3  14  14        -0.0362746258
      1   1   2   2        -0.0349371707
      3   3  13  13        -0.0300268160
      1   2   2  10         0.0283784039
      2   1  10   2         0.0283784039
      3   3   1   1        -0.0279741542
      1   1  14  14        -0.0258029848
      2   3  10  15         0.0228827967
      3   2  15  10         0.0228827967

    SCF energy       (wfn)                    =  -76.026492200042753
    Reference energy (file100)                =  -76.026492200042782

    Opposite-spin MP2 correlation energy      =   -0.151316051768997
    Same-spin MP2 correlation energy          =   -0.050807967448388
    Singles MP2 correlation energy            =   -0.000000000000000
    MP2 correlation energy                    =   -0.202124019217386
      * MP2 total energy                      =  -76.228616219260161

    Opposite-spin CCSD correlation energy     =   -0.166346784205852
    Same-spin CCSD correlation energy         =   -0.045331769723389
    Singles CCSD correlation energy           =    0.000000000000000
    CCSD correlation energy                   =   -0.211678553929241
      * CCSD total energy                     =  -76.238170753972028

            **************************
            *                        *
            *        CCTRIPLES       *
            *                        *
            **************************


    Wave function   =    CCSD_T
    Reference wfn   =      RHF

    Nuclear Rep. energy (wfn)                =    9.148409518235631
    SCF energy          (wfn)                =  -76.026492200042753
    Reference energy    (file100)            =  -76.026492200042782
    CCSD energy         (file100)            =   -0.211678553929241
    Total CCSD energy   (file100)            =  -76.238170753972028

    Number of ijk index combinations:               20
    Memory available in words        :      1750000000
    ~Words needed per explicit thread:            2048
    Number of threads for explicit ijk threading:    1

    MKL num_threads set to 1 for explicit threading.

    (T) energy                                =   -0.003070961257992
      * CCSD(T) total energy                  =  -76.241241715230018

Giraffe The Energy is -76.241241715230 

    Psi4 stopped on: Monday, 06 September 2021 06:16PM
    Psi4 wall time for execution: 0:00:03.18

*** Psi4 exiting successfully. Buy a developer a beer!
