
 Primary working directories    : /tmp/667822.4.gen4.q
 Secondary working directories  : /tmp/667822.4.gen4.q
 Wavefunction directory         : /home/vulcan/nlk36701/wfu/
 Main file repository           : /tmp/667822.4.gen4.q/

 ARCHNAME  : Linux/x86_64
 FC        : /opt/intel/compilers_and_libraries_2016.1.150/linux/bin/intel64/ifort
 FCVERSION : 16.0.1
 BLASLIB   : -mkl
 id        : ccgc

 Nodes     nprocs
 n027         1
 ga_uses_ma=false, calling ma_init with nominal heap.
 GA-space will be limited to   8.0 MW (determined by -G option)

 Using customized tuning parameters: mindgm=10; mindgv=16; mindgc=4; mindgr=1; noblas=0; mincuda=1000; minvec=7
 default implementation of scratch files=df  

 ***,Optimization of min3
 memory,1000,m
 gthresh,energy=1.0d-12,orbital=1.0d-10,oneint=1.0d-16,twoint=1.0d-16,optgrad=1.0d-6,compress=1.0d-13
 geomtyp=xyz
 
  bohr
  geometry = {
  3
  arbitrary comment
  H    0.0000000000   -1.4190018365    0.9944779334
  O    0.0000000000   -0.0000089984   -0.1226193301
  H    0.0000000000    1.4190108350    0.9944850167
 }
 
 basis=cc-pvtz
 {rhf;maxit,200}
 {ccsd(t);maxit,200}

 Variables initialized (661), CPU time= 0.00 sec
 Commands  initialized (458), CPU time= 0.00 sec, 486 directives.
 Default parameters read. Elapsed time= 0.05 sec

 Checking input...
 Passed
1


                                         ***  PROGRAM SYSTEM MOLPRO  ***
                         Copyright, University College Cardiff Consultants Limited, 2008

                                    Version 2010.1 linked May 16 2016 07:17:05


 **********************************************************************************************************************************
 LABEL *   Optimization of min3                                                          
 Linux-4.4.3/n027(x86_64) 64 bit mpp version                                             DATE: 28-Mar-22          TIME: 11:16:01  
 **********************************************************************************************************************************

 SHA1:             9e8077add272b0f3cad6f7df79ec5211205f459d
 **********************************************************************************************************************************

 THRESHOLDS:

 ZERO    =  1.00D-12  ONEINT  =  1.00D-16  TWOINT  =  1.00D-16  PREFAC  =  1.00D-14  LOCALI  =  1.00D-09  EORDER  =  1.00D-04
 ENERGY  =  1.00D-12  ETEST   =  0.00D+00  EDENS   =  0.00D+00  THRDEDEF=  1.00D-06  GRADIENT=  1.00D-02  STEP    =  1.00D-03
 ORBITAL =  1.00D-10  CIVEC   =  1.00D-05  COEFF   =  1.00D-04  PRINTCI =  5.00D-02  PUNCHCI =  9.90D+01  OPTGRAD =  1.00D-06
 OPTENERG=  1.00D-06  OPTSTEP =  3.00D-04  THRGRAD =  1.00D-10  COMPRESS=  1.00D-13  VARMIN  =  1.00D-07  VARMAX  =  1.00D-03
 THRDOUB =  0.00D+00  THRDIV  =  1.00D-05  THRRED  =  1.00D-07  THRPSP  =  1.00D+00  THRDC   =  1.00D-10  THRCS   =  1.00D-10
 THRNRM  =  1.00D-08  THREQ   =  0.00D+00  THRDE   =  1.00D+00  THRREF  =  1.00D-05  SPARFAC =  1.00D+00  THRDLP  =  1.00D-07
 THRDIA  =  1.00D-10  THRDLS  =  1.00D-07  THRGPS  =  0.00D+00  THRKEX  =  0.00D+00  THRDIS  =  2.00D-01  THRVAR  =  1.00D-10
 THRLOC  =  1.00D-06  THRGAP  =  1.00D-06  THRLOCT = -1.00D+00  THRGAPT = -1.00D+00  THRORB  =  1.00D-06  THRMLTP =  0.00D+00
 THRCPQCI=  1.00D-10  KEXTA   =  0.00D+00  THRCOARS=  0.00D+00  SYMTOL  =  1.00D-06  GRADTOL =  1.00D-06  THROVL  =  1.00D-08
 THRORTH =  1.00D-08  GRID    =  1.00D-06  GRIDMAX =  1.00D-03  DTMAX   =  0.00D+00

 SETTING GEOMTYP        =    XYZ
 ZUNIT=BOHR
 

 Variable memory set to 1000000000 words,  buffer space   230000 words

 SETTING BASIS          =    CC-PVTZ


 Recomputing integrals since basis changed


 Using spherical harmonics

 Library entry H      S cc-pVTZ              selected for orbital group  1
 Library entry H      P cc-pVTZ              selected for orbital group  1
 Library entry H      D cc-pVTZ              selected for orbital group  1
 Library entry O      S cc-pVTZ              selected for orbital group  2
 Library entry O      P cc-pVTZ              selected for orbital group  2
 Library entry O      D cc-pVTZ              selected for orbital group  2
 Library entry O      F cc-pVTZ              selected for orbital group  2

1PROGRAM * SEWARD (Integral evaluation for generally contracted gaussian basis sets)     Author: Roland Lindh, 1990

 Geometry written to block  1 of record 700


 Point group  Cs  



 ATOMIC COORDINATES

 NR  ATOM    CHARGE       X              Y              Z

   1  H       1.00    0.000000000   -1.419001836    0.994477933
   2  O       8.00    0.000000000   -0.000008998   -0.122619330
   3  H       1.00    0.000000000    1.419010835    0.994485017

 Bond lengths in Bohr (Angstrom)

 1-2  1.805947666  2-3  1.805973258
     ( 0.955666345)     ( 0.955679888)

 Bond angles

  1-2-3  103.57741513

 NUCLEAR CHARGE:                   10
 NUMBER OF PRIMITIVE AOS:          81
 NUMBER OF SYMMETRY AOS:           74
 NUMBER OF CONTRACTIONS:           58   (  40A'  +  18A"  )
 NUMBER OF CORE ORBITALS:           1   (   1A'  +   0A"  )
 NUMBER OF VALENCE ORBITALS:        6   (   5A'  +   1A"  )


 NUCLEAR REPULSION ENERGY    9.21191090


 Eigenvalues of metric

         1 0.257E-02 0.472E-02 0.574E-02 0.747E-02 0.108E-01 0.415E-01 0.480E-01 0.684E-01
         2 0.400E-01 0.108E+00 0.114E+00 0.243E+00 0.315E+00 0.447E+00 0.523E+00 0.538E+00


 Contracted 2-electron integrals neglected if value below      1.0D-16
 AO integral compression algorithm  1   Integral accuracy      1.0D-16

     7.864 MB (compressed) written to integral file ( 98.4%)

     Node minimum: 7.864 MB, node maximum: 7.864 MB


 NUMBER OF SORTED TWO-ELECTRON INTEGRALS:     771976.     BUFFER LENGTH:  32768
 NUMBER OF SEGMENTS:   1  SEGMENT LENGTH:     771976      RECORD LENGTH: 524288

 Memory used in sort:       1.33 MW

 SORT1 READ      966916. AND WROTE      721454. INTEGRALS IN      3 RECORDS. CPU TIME:     0.01 SEC, REAL TIME:     0.02 SEC
 SORT2 READ      721454. AND WROTE      771976. INTEGRALS IN     30 RECORDS. CPU TIME:     0.02 SEC, REAL TIME:     0.03 SEC

 FILE SIZES:   FILE 1:     8.5 MBYTE,  FILE 4:    12.6 MBYTE,   TOTAL:     21.2 MBYTE

 OPERATOR DM      FOR CENTER  0  COORDINATES:    0.000000    0.000000    0.000000


 **********************************************************************************************************************************
 DATASETS  * FILE   NREC   LENGTH (MB)   RECORD NAMES
              1      19        8.56       500      610      700      900      950      970     1000      129      960     1100   
                                          VAR    BASINP    GEOM    SYMINP    ZMAT    AOBASIS   BASIS     P2S    ABASIS      S 
                                         1400     1410     1200     1210     1080     1600     1650     1300     1700   
                                           T        V       H0       H01     AOSYM     SMH    MOLCAS    ERIS     OPER   

 PROGRAMS   *        TOTAL       INT
 CPU TIMES  *         0.35      0.29
 REAL TIME  *         0.53 SEC
 DISK USED  *        29.54 MB      
 GA USED    *         0.00 MB       (max)       0.00 MB       (current)
 **********************************************************************************************************************************

1PROGRAM * RHF-SCF (CLOSED SHELL)       Authors: W. Meyer, H.-J. Werner


 NUMBER OF ELECTRONS:       5+    5-
 CONVERGENCE THRESHOLDS:    1.00E-10 (Density)    1.00E-13 (Energy)
 MAX. NUMBER OF ITERATIONS:      200
 INTERPOLATION TYPE:            DIIS
 INTERPOLATION STEPS:              2 (START)      1 (STEP)
 LEVEL SHIFTS:                  0.00 (CLOSED)  0.00 (OPEN) 



 Orbital guess generated from atomic densities. Full valence occupancy:    6   1

 Molecular orbital dump at record        2100.2

 Initial alpha occupancy:   4   1
 Initial beta  occupancy:   4   1
 Wave function symmetry:    1

 ITERATION    DDIFF          GRAD             ENERGY        2-EL.EN.            DIPOLE MOMENTS         DIIS
    1      0.000D+00      0.000D+00       -76.01910486     77.788087    0.00000    0.00002    1.14986    0
    2      0.000D+00      0.139D-01       -76.04706711     74.369552    0.00000    0.00001    0.71096    1
    3      0.240D-01      0.822D-02       -76.05698818     75.824019    0.00000    0.00001    0.81037    2
    4      0.785D-02      0.784D-03       -76.05717502     75.744830    0.00000    0.00001    0.80535    3
    5      0.117D-02      0.219D-03       -76.05719437     75.756492    0.00000    0.00001    0.80282    4
    6      0.399D-03      0.414D-04       -76.05719538     75.755170    0.00000    0.00001    0.80221    5
    7      0.896D-04      0.713D-05       -76.05719541     75.755279    0.00000    0.00001    0.80207    6
    8      0.182D-04      0.106D-05       -76.05719541     75.755224    0.00000    0.00001    0.80204    5
    9      0.244D-05      0.199D-06       -76.05719541     75.755251    0.00000    0.00001    0.80204    6
   10      0.444D-06      0.437D-07       -76.05719541     75.755245    0.00000    0.00001    0.80204    6
   11      0.858D-07      0.100D-07       -76.05719541     75.755246    0.00000    0.00001    0.80204    6
   12      0.265D-07      0.202D-08       -76.05719541     75.755246    0.00000    0.00001    0.80204    6
   13      0.473D-08      0.410D-09       -76.05719541     75.755246    0.00000    0.00001    0.80204    6
   14      0.117D-08      0.115D-09       -76.05719541     75.755246    0.00000    0.00001    0.80204    6
   15      0.317D-09      0.275D-10       -76.05719541     75.755246    0.00000    0.00001    0.80204    6
   16      0.636D-10      0.844D-11       -76.05719541     75.755246    0.00000    0.00001    0.80204    0

 Final occupancy:   4   1

 !RHF STATE 1.1 Energy                -76.057195411092
 Nuclear energy                         9.21191090
 One-electron energy                 -123.14672927
 Two-electron energy                   37.87762295
 Virial quotient                       -1.00057487
 !RHF STATE 1.1 Dipole moment           0.00000000     0.00000660     0.80204411
 Dipole moment /Debye                   0.00000000     0.00001679     2.03845927

 Orbital energies:

         1.1          2.1          3.1          4.1          5.1          6.1
    -20.554917    -1.347193    -0.708839    -0.579880     0.142249     0.204390

         1.2          2.2          3.2
     -0.504913     0.787219     0.863448


 **********************************************************************************************************************************
 DATASETS  * FILE   NREC   LENGTH (MB)   RECORD NAMES
              1      19        8.56       500      610      700      900      950      970     1000      129      960     1100   
                                          VAR    BASINP    GEOM    SYMINP    ZMAT    AOBASIS   BASIS     P2S    ABASIS      S 
                                         1400     1410     1200     1210     1080     1600     1650     1300     1700   
                                           T        V       H0       H01     AOSYM     SMH    MOLCAS    ERIS     OPER   

              2       3        0.33       700     1000     2100   
                                         GEOM     BASIS     RHF  

 PROGRAMS   *        TOTAL       RHF       INT
 CPU TIMES  *         0.42      0.07      0.29
 REAL TIME  *         0.65 SEC
 DISK USED  *        29.54 MB      
 GA USED    *         0.00 MB       (max)       0.00 MB       (current)
 **********************************************************************************************************************************


1PROGRAM * CCSD (Closed-shell coupled cluster)     Authors: C. Hampel, H.-J. Werner, 1991, M. Deegan, P.J. Knowles, 1992


 Convergence thresholds:  THRVAR = 1.00D-08  THRDEN = 1.00D-12

 CCSD(T)     terms to be evaluated (factor= 1.000)


 Number of core orbitals:           1 (   1   0 )
 Number of closed-shell orbitals:   4 (   3   1 )
 Number of external orbitals:      53 (  36  17 )

 Molecular orbitals read from record     2100.2  Type=RHF/CANONICAL (state 1.1)

 Number of N-1 electron functions:               4
 Number of N-2 electron functions:              10
 Number of singly external CSFs:               125
 Number of doubly external CSFs:             11703
 Total number of CSFs:                       11829

 Length of J-op  integral file:               0.00 MB
 Length of K-op  integral file:               0.17 MB
 Length of 3-ext integral record:             0.00 MB

 Memory could be reduced to 0.82 Mwords without degradation in triples

 Integral transformation finished. Total CPU:   0.01 sec, npass=  1  Memory used:   0.24 MW

 Reference energy:                    -76.05719541

 MP2 singlet pair energy:              -0.16618194
 MP2 triplet pair energy:              -0.09525816
 MP2 correlation energy:               -0.26144010
 MP2 total energy:                    -76.31863551

 SCS-MP2 correlation energy:           -0.25869007   (PS=  1.200000  PT=  0.333333)
 SCS-MP2 total energy:                -76.31588548

 ITER.      SQ.NORM     CORR.ENERGY   TOTAL ENERGY   ENERGY CHANGE        DEN1      VAR(S)    VAR(P)  DIIS     TIME
   1      1.06040758    -0.26687097   -76.32406638    -0.00543087    -0.00047540  0.44D-03  0.81D-03  1  1     0.03
   2      1.06351768    -0.26728580   -76.32448121    -0.00041483    -0.00445518  0.75D-05  0.85D-04  2  2     0.04
   3      1.06452976    -0.26734628   -76.32454169    -0.00006049    -0.00080409  0.15D-05  0.39D-05  3  3     0.06
   4      1.06479303    -0.26735615   -76.32455156    -0.00000987    -0.00015899  0.97D-07  0.19D-06  4  4     0.07
   5      1.06482806    -0.26735356   -76.32454897     0.00000259    -0.00001816  0.33D-07  0.11D-07  5  5     0.09
   6      1.06483380    -0.26735342   -76.32454883     0.00000014    -0.00000166  0.51D-08  0.11D-08  6  6     0.10
   7      1.06483535    -0.26735354   -76.32454895    -0.00000012    -0.00000030  0.79D-09  0.16D-09  6  1     0.12
   8      1.06483593    -0.26735355   -76.32454896    -0.00000001     0.00000041  0.28D-10  0.12D-10  6  2     0.13
   9      1.06483612    -0.26735354   -76.32454895     0.00000002    -0.00000007  0.12D-11  0.10D-11  6  3     0.15
  10      1.06483616    -0.26735353   -76.32454894     0.00000000     0.00000002  0.39D-13  0.53D-13  6  4     0.16
  11      1.06483616    -0.26735353   -76.32454894     0.00000000    -0.00000001  0.18D-14  0.38D-14  6  5     0.18
  12      1.06483616    -0.26735353   -76.32454894    -0.00000000     0.00000000  0.16D-15  0.27D-15  6  6     0.20
  13      1.06483616    -0.26735353   -76.32454894    -0.00000000     0.00000000  0.26D-16  0.21D-16  6  1     0.21
  14      1.06483616    -0.26735353   -76.32454894    -0.00000000     0.00000000  0.42D-17  0.20D-17  6  2     0.23
  15      1.06483616    -0.26735353   -76.32454894    -0.00000000     0.00000000  0.11D-17  0.18D-18  6  3     0.24
  16      1.06483616    -0.26735353   -76.32454894    -0.00000000     0.00000000  0.10D-18  0.17D-19  6  4     0.26
  17      1.06483616    -0.26735353   -76.32454894    -0.00000000     0.00000000  0.84D-20  0.21D-20  6  5     0.27
  18      1.06483616    -0.26735353   -76.32454894    -0.00000000    -0.00000000  0.38D-21  0.17D-21  6  6     0.29

 Norm of t1 vector:      0.02604785      S-energy:    -0.00000000      T1 diagnostic:  0.00651196
                                                                       D1 diagnostic:  0.01074368


 Total CPU time for triples:      0.05 sec


 RESULTS
 =======

  Reference energy                    -76.057195411092
  CCSD singlet pair energy             -0.182356348805
  CCSD triplet pair energy             -0.084997183642
  CCSD correlation energy              -0.267353532448

  Triples (T) contribution             -0.007640211052
  Total correlation energy             -0.274993743500

  CCSD total energy                   -76.324548943540
  CCSD[T] energy                      -76.332380965858
  CCSD-T energy                       -76.332053352045
 !CCSD(T) total energy                -76.332189154592

 Timing summary (sec):

 STEP                 CPU(USER)    SYS     CPU(TOT)    WALL
 Transformation          0.01      0.01      0.02      0.02
 CCSD iterations         0.28      0.03      0.31      0.36
 Triples                 0.05      0.00      0.05      0.05

 Program statistics:

 Available memory in ccsd:               999999836
 Min. memory needed in ccsd:                 61793
 Max. memory used in ccsd:                   69544
 Max. memory used in cckext:                110816 (18 integral passes)



 **********************************************************************************************************************************
 DATASETS  * FILE   NREC   LENGTH (MB)   RECORD NAMES
              1      20       10.06       500      610      700      900      950      970     1000      129      960     1100   
                                          VAR    BASINP    GEOM    SYMINP    ZMAT    AOBASIS   BASIS     P2S    ABASIS      S 
                                         1400     1410     1200     1210     1080     1600     1650     1300     1700     1380   
                                           T        V       H0       H01     AOSYM     SMH    MOLCAS    ERIS     OPER     JKOP   

              2       3        0.33       700     1000     2100   
                                         GEOM     BASIS     RHF  

 PROGRAMS   *        TOTAL   CCSD(T)       RHF       INT
 CPU TIMES  *         0.78      0.36      0.07      0.29
 REAL TIME  *         1.11 SEC
 DISK USED  *        29.54 MB      
 GA USED    *         0.00 MB       (max)       0.00 MB       (current)
 **********************************************************************************************************************************

        CCSD(T)         RHF-SCF 
    -76.33218915    -76.05719541
 **********************************************************************************************************************************
 Variable memory released
