[Molden Format]                                                                 
[ATOMS] AU                                                                      
C        1    6       -1.3811265843       -0.0237860915        0.0000690993     
O        2    8        1.3112260969        0.1270090779        0.0030992955     
H        3    1       -2.1178534544       -1.0295940477        1.6670549795     
H        4    1       -2.0136761536       -0.9976187533       -1.7189980433     
H        5    1       -2.1774439167        1.8918180591       -0.0004748010     
H        6    1        1.9437014622       -1.5971145714        0.0024070437     
[Molden Format]                                                                 
[GTO]                                                                           
  1 0
s  10 1.00
   8236.00000000000       5.310000000000000E-004                                
   1235.00000000000       4.108000000000000E-003                                
   280.800000000000       2.108700000000000E-002                                
   79.2700000000000       8.185300000000000E-002                                
   25.5900000000000       0.234817000000000                                     
   8.99700000000000       0.434401000000000                                     
   3.31900000000000       0.346129000000000                                     
  0.905900000000000       3.937800000000000E-002                                
  0.364300000000000      -8.983000000000000E-003                                
  0.128500000000000       2.385000000000000E-003                                
s  10 1.00
   8236.00000000000      -1.130000000000000E-004                                
   1235.00000000000      -8.780000000000000E-004                                
   280.800000000000      -4.540000000000000E-003                                
   79.2700000000000      -1.813300000000000E-002                                
   25.5900000000000      -5.576000000000000E-002                                
   8.99700000000000      -0.126895000000000                                     
   3.31900000000000      -0.170352000000000                                     
  0.905900000000000       0.140382000000000                                     
  0.364300000000000       0.598684000000000                                     
  0.128500000000000       0.395389000000000                                     
s  10 1.00
   8236.00000000000       0.000000000000000E+000                                
   1235.00000000000       0.000000000000000E+000                                
   280.800000000000       0.000000000000000E+000                                
   79.2700000000000       0.000000000000000E+000                                
   25.5900000000000       0.000000000000000E+000                                
   8.99700000000000       0.000000000000000E+000                                
   3.31900000000000       0.000000000000000E+000                                
  0.905900000000000        1.00000000000000                                     
  0.364300000000000       0.000000000000000E+000                                
  0.128500000000000       0.000000000000000E+000                                
s  10 1.00
   8236.00000000000       0.000000000000000E+000                                
   1235.00000000000       0.000000000000000E+000                                
   280.800000000000       0.000000000000000E+000                                
   79.2700000000000       0.000000000000000E+000                                
   25.5900000000000       0.000000000000000E+000                                
   8.99700000000000       0.000000000000000E+000                                
   3.31900000000000       0.000000000000000E+000                                
  0.905900000000000       0.000000000000000E+000                                
  0.364300000000000       0.000000000000000E+000                                
  0.128500000000000        1.00000000000000                                     
p   5 1.00
   18.7100000000000       1.403100000000000E-002                                
   4.13300000000000       8.686600000000000E-002                                
   1.20000000000000       0.290216000000000                                     
  0.382700000000000       0.501008000000000                                     
  0.120900000000000       0.343406000000000                                     
p   5 1.00
   18.7100000000000       0.000000000000000E+000                                
   4.13300000000000       0.000000000000000E+000                                
   1.20000000000000       0.000000000000000E+000                                
  0.382700000000000        1.00000000000000                                     
  0.120900000000000       0.000000000000000E+000                                
p   5 1.00
   18.7100000000000       0.000000000000000E+000                                
   4.13300000000000       0.000000000000000E+000                                
   1.20000000000000       0.000000000000000E+000                                
  0.382700000000000       0.000000000000000E+000                                
  0.120900000000000        1.00000000000000                                     
d   2 1.00
   1.09700000000000        1.00000000000000                                     
  0.318000000000000       0.000000000000000E+000                                
d   2 1.00
   1.09700000000000       0.000000000000000E+000                                
  0.318000000000000        1.00000000000000                                     
f   1 1.00
  0.761000000000000        1.00000000000000                                     
 
  2 0
s  10 1.00
   15330.0000000000       5.080000000000000E-004                                
   2299.00000000000       3.929000000000000E-003                                
   522.400000000000       2.024300000000000E-002                                
   147.300000000000       7.918100000000000E-002                                
   47.5500000000000       0.230687000000000                                     
   16.7600000000000       0.433118000000000                                     
   6.20700000000000       0.350260000000000                                     
   1.75200000000000       4.272800000000000E-002                                
  0.688200000000000      -8.154000000000000E-003                                
  0.238400000000000       2.381000000000000E-003                                
s  10 1.00
   15330.0000000000      -1.150000000000000E-004                                
   2299.00000000000      -8.950000000000000E-004                                
   522.400000000000      -4.636000000000000E-003                                
   147.300000000000      -1.872400000000000E-002                                
   47.5500000000000      -5.846300000000000E-002                                
   16.7600000000000      -0.136463000000000                                     
   6.20700000000000      -0.175740000000000                                     
   1.75200000000000       0.160934000000000                                     
  0.688200000000000       0.603418000000000                                     
  0.238400000000000       0.378765000000000                                     
s  10 1.00
   15330.0000000000       0.000000000000000E+000                                
   2299.00000000000       0.000000000000000E+000                                
   522.400000000000       0.000000000000000E+000                                
   147.300000000000       0.000000000000000E+000                                
   47.5500000000000       0.000000000000000E+000                                
   16.7600000000000       0.000000000000000E+000                                
   6.20700000000000       0.000000000000000E+000                                
   1.75200000000000        1.00000000000000                                     
  0.688200000000000       0.000000000000000E+000                                
  0.238400000000000       0.000000000000000E+000                                
s  10 1.00
   15330.0000000000       0.000000000000000E+000                                
   2299.00000000000       0.000000000000000E+000                                
   522.400000000000       0.000000000000000E+000                                
   147.300000000000       0.000000000000000E+000                                
   47.5500000000000       0.000000000000000E+000                                
   16.7600000000000       0.000000000000000E+000                                
   6.20700000000000       0.000000000000000E+000                                
   1.75200000000000       0.000000000000000E+000                                
  0.688200000000000       0.000000000000000E+000                                
  0.238400000000000        1.00000000000000                                     
p   5 1.00
   34.4600000000000       1.592800000000000E-002                                
   7.74900000000000       9.974000000000000E-002                                
   2.28000000000000       0.310492000000000                                     
  0.715600000000000       0.491026000000000                                     
  0.214000000000000       0.336337000000000                                     
p   5 1.00
   34.4600000000000       0.000000000000000E+000                                
   7.74900000000000       0.000000000000000E+000                                
   2.28000000000000       0.000000000000000E+000                                
  0.715600000000000        1.00000000000000                                     
  0.214000000000000       0.000000000000000E+000                                
p   5 1.00
   34.4600000000000       0.000000000000000E+000                                
   7.74900000000000       0.000000000000000E+000                                
   2.28000000000000       0.000000000000000E+000                                
  0.715600000000000       0.000000000000000E+000                                
  0.214000000000000        1.00000000000000                                     
d   2 1.00
   2.31400000000000        1.00000000000000                                     
  0.645000000000000       0.000000000000000E+000                                
d   2 1.00
   2.31400000000000       0.000000000000000E+000                                
  0.645000000000000        1.00000000000000                                     
f   1 1.00
   1.42800000000000        1.00000000000000                                     
 
  3 0
s   5 1.00
   33.8700000000000       6.068000000000000E-003                                
   5.09500000000000       4.530800000000000E-002                                
   1.15900000000000       0.202822000000000                                     
  0.325800000000000       0.503903000000000                                     
  0.102700000000000       0.383421000000000                                     
s   5 1.00
   33.8700000000000       0.000000000000000E+000                                
   5.09500000000000       0.000000000000000E+000                                
   1.15900000000000       0.000000000000000E+000                                
  0.325800000000000        1.00000000000000                                     
  0.102700000000000       0.000000000000000E+000                                
s   5 1.00
   33.8700000000000       0.000000000000000E+000                                
   5.09500000000000       0.000000000000000E+000                                
   1.15900000000000       0.000000000000000E+000                                
  0.325800000000000       0.000000000000000E+000                                
  0.102700000000000        1.00000000000000                                     
p   2 1.00
   1.40700000000000        1.00000000000000                                     
  0.388000000000000       0.000000000000000E+000                                
p   2 1.00
   1.40700000000000       0.000000000000000E+000                                
  0.388000000000000        1.00000000000000                                     
d   1 1.00
   1.05700000000000        1.00000000000000                                     
 
  4 0
s   5 1.00
   33.8700000000000       6.068000000000000E-003                                
   5.09500000000000       4.530800000000000E-002                                
   1.15900000000000       0.202822000000000                                     
  0.325800000000000       0.503903000000000                                     
  0.102700000000000       0.383421000000000                                     
s   5 1.00
   33.8700000000000       0.000000000000000E+000                                
   5.09500000000000       0.000000000000000E+000                                
   1.15900000000000       0.000000000000000E+000                                
  0.325800000000000        1.00000000000000                                     
  0.102700000000000       0.000000000000000E+000                                
s   5 1.00
   33.8700000000000       0.000000000000000E+000                                
   5.09500000000000       0.000000000000000E+000                                
   1.15900000000000       0.000000000000000E+000                                
  0.325800000000000       0.000000000000000E+000                                
  0.102700000000000        1.00000000000000                                     
p   2 1.00
   1.40700000000000        1.00000000000000                                     
  0.388000000000000       0.000000000000000E+000                                
p   2 1.00
   1.40700000000000       0.000000000000000E+000                                
  0.388000000000000        1.00000000000000                                     
d   1 1.00
   1.05700000000000        1.00000000000000                                     
 
  5 0
s   5 1.00
   33.8700000000000       6.068000000000000E-003                                
   5.09500000000000       4.530800000000000E-002                                
   1.15900000000000       0.202822000000000                                     
  0.325800000000000       0.503903000000000                                     
  0.102700000000000       0.383421000000000                                     
s   5 1.00
   33.8700000000000       0.000000000000000E+000                                
   5.09500000000000       0.000000000000000E+000                                
   1.15900000000000       0.000000000000000E+000                                
  0.325800000000000        1.00000000000000                                     
  0.102700000000000       0.000000000000000E+000                                
s   5 1.00
   33.8700000000000       0.000000000000000E+000                                
   5.09500000000000       0.000000000000000E+000                                
   1.15900000000000       0.000000000000000E+000                                
  0.325800000000000       0.000000000000000E+000                                
  0.102700000000000        1.00000000000000                                     
p   2 1.00
   1.40700000000000        1.00000000000000                                     
  0.388000000000000       0.000000000000000E+000                                
p   2 1.00
   1.40700000000000       0.000000000000000E+000                                
  0.388000000000000        1.00000000000000                                     
d   1 1.00
   1.05700000000000        1.00000000000000                                     
 
  6 0
s   5 1.00
   33.8700000000000       6.068000000000000E-003                                
   5.09500000000000       4.530800000000000E-002                                
   1.15900000000000       0.202822000000000                                     
  0.325800000000000       0.503903000000000                                     
  0.102700000000000       0.383421000000000                                     
s   5 1.00
   33.8700000000000       0.000000000000000E+000                                
   5.09500000000000       0.000000000000000E+000                                
   1.15900000000000       0.000000000000000E+000                                
  0.325800000000000        1.00000000000000                                     
  0.102700000000000       0.000000000000000E+000                                
s   5 1.00
   33.8700000000000       0.000000000000000E+000                                
   5.09500000000000       0.000000000000000E+000                                
   1.15900000000000       0.000000000000000E+000                                
  0.325800000000000       0.000000000000000E+000                                
  0.102700000000000        1.00000000000000                                     
p   2 1.00
   1.40700000000000        1.00000000000000                                     
  0.388000000000000       0.000000000000000E+000                                
p   2 1.00
   1.40700000000000       0.000000000000000E+000                                
  0.388000000000000        1.00000000000000                                     
d   1 1.00
   1.05700000000000        1.00000000000000                                     
 
                                                                                
[MO]
 Sym= A
 Ene=  -20.5533572998751     
 Spin= Alpha
 Occup= 1.0
  1        0.0002536873
  2        0.0008770128
  3       -0.0004427204
  4       -0.0019528592
  5       -0.0002988252
  6        0.0000244366
  7        0.0000104346
  8        0.0016900760
  9       -0.0001822579
 10       -0.0000344983
 11        0.0000775576
 12       -0.0001517584
 13       -0.0000023339
 14        0.0001732744
 15       -0.0000921015
 16       -0.0000811729
 17        0.0000328749
 18        0.0000028526
 19        0.0000009276
 20        0.0004628813
 21       -0.0002594133
 22       -0.0002034680
 23        0.0001887986
 24       -0.0000136655
 25        0.0000348879
 26        0.0000761105
 27       -0.0000047274
 28       -0.0000005981
 29       -0.0000966812
 30       -0.0000047702
 31        0.0000031145
 32       -0.0001316505
 33        0.0000189525
 34       -0.0000013201
 35        0.0000012691
 36        0.9990900328
 37       -0.0017631792
 38        0.0011495182
 39       -0.0000091187
 40       -0.0027896844
 41       -0.0039967267
 42        0.0000190150
 43        0.0025309488
 44        0.0031352477
 45       -0.0000094658
 46        0.0006391985
 47        0.0014437678
 48       -0.0000010823
 49       -0.0000192672
 50        0.0000229366
 51       -0.0000036694
 52       -0.0000158541
 53        0.0000037370
 54        0.0000017218
 55       -0.0002118393
 56       -0.0000910565
 57        0.0003028958
 58        0.0001800662
 59       -0.0000046460
 60       -0.0000030519
 61        0.0000251596
 62        0.0000130017
 63       -0.0000001749
 64       -0.0000478433
 65       -0.0000080748
 66        0.0000008290
 67       -0.0000276356
 68       -0.0000309303
 69       -0.0000003044
 70        0.0000015185
 71       -0.0001425268
 72        0.0005860738
 73        0.0001954136
 74        0.0000141758
 75       -0.0000103459
 76        0.0000066159
 77        0.0000699916
 78        0.0000892407
 79       -0.0001085835
 80       -0.0000297929
 81        0.0000191332
 82        0.0000106597
 83       -0.0000076035
 84       -0.0000044386
 85        0.0000113322
 86       -0.0001156315
 87        0.0005017912
 88        0.0001886608
 89        0.0000158243
 90       -0.0000119829
 91       -0.0000077151
 92        0.0000003537
 93        0.0000879309
 94        0.0000865703
 95       -0.0000378381
 96        0.0000253801
 97        0.0000124580
 98       -0.0000139918
 99       -0.0000073519
100       -0.0000121890
101       -0.0001825767
102        0.0010175909
103        0.0003054698
104       -0.0000003422
105       -0.0000042128
106        0.0000012994
107        0.0000786510
108       -0.0003439152
109       -0.0000154447
110       -0.0000494014
111        0.0000376342
112        0.0000117672
113        0.0000020904
114       -0.0000004926
115        0.0000031041
116        0.0020207218
117       -0.0000951179
118       -0.0009174178
119       -0.0001289440
120        0.0002418945
121       -0.0000003449
122       -0.0001819831
123        0.0005032448
124        0.0000016166
125        0.0000467945
126       -0.0000609562
127        0.0000141616
128        0.0000110575
129       -0.0000006342
130        0.0000002822
 Sym= A
 Ene=  -11.2728673872241     
 Spin= Alpha
 Occup= 1.0
  1        0.9998364789
  2        0.0030033053
  3        0.0010679523
  4        0.0014375082
  5        0.0026068321
  6       -0.0000007443
  7        0.0000894870
  8       -0.0028993355
  9       -0.0000751951
 10       -0.0001357655
 11       -0.0015427706
 12       -0.0000669722
 13       -0.0000655509
 14       -0.0000912023
 15        0.0000469875
 16        0.0000442148
 17       -0.0000237426
 18       -0.0000193055
 19        0.0000040326
 20       -0.0004028945
 21        0.0002028233
 22        0.0002000712
 23       -0.0000054910
 24        0.0000184807
 25        0.0000140595
 26        0.0001322430
 27        0.0001153525
 28       -0.0000080405
 29       -0.0002162528
 30        0.0000341588
 31        0.0000186658
 32       -0.0001804763
 33       -0.0003802163
 34        0.0000054556
 35        0.0000176859
 36       -0.0000404313
 37        0.0003677624
 38        0.0000473849
 39        0.0006124116
 40       -0.0006421687
 41       -0.0000171685
 42        0.0000018957
 43       -0.0000532744
 44       -0.0000119495
 45       -0.0000030109
 46       -0.0001690439
 47       -0.0002887557
 48       -0.0000048930
 49        0.0000418741
 50       -0.0000355876
 51       -0.0000062864
 52        0.0000156415
 53       -0.0000013579
 54        0.0000003674
 55       -0.0000575439
 56        0.0000759374
 57       -0.0000183935
 58       -0.0000283891
 59        0.0000074077
 60       -0.0000027842
 61        0.0000465347
 62       -0.0000085158
 63        0.0000002512
 64       -0.0000609717
 65        0.0000221439
 66       -0.0000014309
 67       -0.0000786325
 68        0.0000034034
 69        0.0000006773
 70        0.0000009022
 71        0.0006411746
 72       -0.0011937179
 73       -0.0010528130
 74       -0.0001175001
 75       -0.0001447016
 76        0.0002378544
 77       -0.0001105893
 78       -0.0001881519
 79        0.0003635635
 80        0.0000488455
 81        0.0000200233
 82       -0.0000688688
 83       -0.0000726813
 84        0.0001237863
 85        0.0001506042
 86        0.0006268968
 87       -0.0012889033
 88       -0.0010684783
 89       -0.0001022861
 90       -0.0001406931
 91       -0.0002481495
 92       -0.0000801698
 93       -0.0002132482
 94       -0.0004063286
 95        0.0000563476
 96        0.0000203103
 97       -0.0000766578
 98       -0.0000556629
 99       -0.0001038506
100       -0.0001508860
101        0.0005457171
102       -0.0010989157
103       -0.0009374241
104       -0.0001352761
105        0.0002813817
106       -0.0000013032
107       -0.0000740985
108        0.0003652769
109        0.0000125867
110        0.0000455581
111       -0.0001025476
112        0.0000569895
113        0.0001370339
114       -0.0000014712
115       -0.0000028243
116       -0.0003424409
117       -0.0001204656
118        0.0001199490
119        0.0000440887
120       -0.0000211996
121       -0.0000000717
122        0.0000154896
123        0.0000470465
124       -0.0000021635
125        0.0000327366
126        0.0000127464
127       -0.0000454829
128       -0.0000261993
129        0.0000004974
130       -0.0000012144
 Sym= A
 Ene=  -1.34927275900222     
 Spin= Alpha
 Occup= 1.0
  1        0.0071088128
  2       -0.2675352346
  3        0.0071253958
  4        0.0797905528
  5       -0.1441233602
  6       -0.0008787865
  7        0.0003460865
  8        0.0116225405
  9        0.0000839977
 10        0.0003274406
 11        0.0423800499
 12       -0.0000781902
 13       -0.0000713125
 14       -0.0064504405
 15        0.0031371058
 16        0.0033133347
 17       -0.0003593406
 18       -0.0000196979
 19       -0.0000270581
 20       -0.0078924326
 21        0.0042838210
 22        0.0036086116
 23        0.0014433498
 24        0.0001016534
 25       -0.0003560471
 26       -0.0016847451
 27       -0.0003790928
 28        0.0000318112
 29        0.0025509096
 30       -0.0002728699
 31       -0.0000784515
 32        0.0025033256
 33        0.0014101482
 34       -0.0000169822
 35       -0.0000686364
 36        0.0069186177
 37       -0.8409302168
 38        0.0084193812
 39        0.0487898644
 40        0.0617502479
 41        0.0857668083
 42        0.0006244075
 43        0.0077623016
 44        0.0050744055
 45       -0.0000683673
 46       -0.0133003322
 47       -0.0219798784
 48       -0.0001620232
 49       -0.0011585399
 50       -0.0008349586
 51        0.0019934984
 52        0.0010647302
 53       -0.0000177796
 54       -0.0000098963
 55       -0.0035830267
 56       -0.0008559466
 57        0.0044389734
 58        0.0008378733
 59        0.0000394031
 60        0.0000079723
 61        0.0009047415
 62        0.0002312421
 63        0.0000003250
 64       -0.0016747294
 65        0.0001271900
 66       -0.0000034830
 67       -0.0010394951
 68       -0.0008209162
 69        0.0000025080
 70       -0.0000110565
 71       -0.0535411080
 72        0.0145251794
 73        0.0186773951
 74       -0.0009647216
 75       -0.0003057825
 76        0.0004764491
 77       -0.0000726289
 78        0.0009263151
 79        0.0000159903
 80       -0.0000505583
 81        0.0000225536
 82        0.0000280047
 83       -0.0000456509
 84        0.0001301618
 85       -0.0002809652
 86       -0.0570145491
 87        0.0164439501
 88        0.0199691840
 89       -0.0010831832
 90       -0.0003567272
 91       -0.0006216574
 92        0.0003683537
 93        0.0009150473
 94        0.0002397061
 95       -0.0000320691
 96        0.0000051493
 97        0.0000269198
 98       -0.0001060463
 99       -0.0002130987
100        0.0002452946
101       -0.0532666015
102        0.0169456860
103        0.0194746444
104       -0.0011009451
105        0.0005906979
106       -0.0000060188
107        0.0002140406
108       -0.0018198846
109        0.0001069193
110       -0.0001067183
111        0.0002332547
112       -0.0001265364
113        0.0001351154
114        0.0000039680
115       -0.0000125061
116       -0.3497535848
117        0.1023840114
118        0.1288363442
119        0.0052321630
120       -0.0112848664
121        0.0000082910
122        0.0067146051
123       -0.0110635467
124        0.0000011536
125        0.0004449627
126       -0.0010007662
127        0.0005558034
128        0.0016748096
129        0.0000019355
130        0.0000029308
 Sym= A
 Ene= -0.919686072739837     
 Spin= Alpha
 Occup= 1.0
  1        0.0116472850
  2       -0.7277895016
  3        0.0139890833
  4        0.1271771338
  5        0.1062504102
  6       -0.0115048197
  7        0.0038504207
  8       -0.0123350436
  9       -0.0004342312
 10       -0.0003108421
 11       -0.0147897297
 12        0.0098844898
 13       -0.0011708363
 14        0.0027397588
 15       -0.0013992787
 16       -0.0013404800
 17       -0.0005301569
 18        0.0003588694
 19       -0.0000544129
 20        0.0037595368
 21       -0.0037073915
 22       -0.0000521454
 23        0.0002405761
 24        0.0004604690
 25       -0.0001680390
 26       -0.0015403351
 27       -0.0009347065
 28        0.0000640829
 29        0.0022191924
 30       -0.0006472070
 31       -0.0001458819
 32        0.0024018129
 33        0.0034513264
 34       -0.0000463668
 35       -0.0001862316
 36       -0.0018953664
 37        0.2460275968
 38        0.0004961503
 39        0.0254622531
 40        0.2537893726
 41       -0.0923996055
 42        0.0016272015
 43       -0.0024385242
 44       -0.0011305755
 45       -0.0000839223
 46       -0.0311034549
 47        0.0185895093
 48       -0.0002592075
 49       -0.0027076581
 50        0.0024909962
 51        0.0002166619
 52       -0.0025015499
 53       -0.0000275814
 54       -0.0000112848
 55       -0.0057414661
 56        0.0051850522
 57        0.0005564139
 58       -0.0054001289
 59        0.0000130712
 60        0.0000048667
 61        0.0002522030
 62       -0.0001461728
 63       -0.0000032114
 64        0.0001658352
 65       -0.0000771839
 66        0.0000087013
 67       -0.0009224443
 68        0.0005157022
 69        0.0000009330
 70       -0.0000040580
 71       -0.3421415323
 72        0.0719786964
 73        0.1183340686
 74       -0.0021306035
 75       -0.0038893598
 76        0.0066151891
 77       -0.0017296091
 78       -0.0038776978
 79        0.0042418336
 80        0.0002458312
 81        0.0000764585
 82       -0.0003222897
 83       -0.0003998771
 84        0.0005761866
 85        0.0010569086
 86       -0.3438695181
 87        0.0729112815
 88        0.1187423626
 89       -0.0018175161
 90       -0.0038185848
 91       -0.0068579568
 92       -0.0010420671
 93       -0.0036996990
 94       -0.0042618058
 95        0.0002745121
 96        0.0000836821
 97       -0.0003581942
 98       -0.0003514712
 99       -0.0005720755
100       -0.0010534087
101       -0.3568563114
102        0.0769164654
103        0.1194633885
104       -0.0027021399
105        0.0080421541
106        0.0000014897
107       -0.0007145452
108        0.0055128506
109        0.0000791557
110        0.0003460710
111       -0.0008004027
112        0.0004543316
113        0.0009505511
114        0.0000005838
115       -0.0000037686