
 Primary working directories    : /tmp/601555.43.gen4.q
 Secondary working directories  : /tmp/601555.43.gen4.q
 Wavefunction directory         : /home/vulcan/mel64643/wfu/
 Main file repository           : /tmp/601555.43.gen4.q/

 ARCHNAME  : Linux/x86_64
 FC        : /opt/intel/compilers_and_libraries_2016.1.150/linux/bin/intel64/ifort
 FCVERSION : 16.0.1
 BLASLIB   : -mkl
 id        : ccgc

 Nodes     nprocs
 n023         1
 ga_uses_ma=false, calling ma_init with nominal heap.
 GA-space will be limited to   8.0 MW (determined by -G option)

 Using customized tuning parameters: mindgm=10; mindgv=16; mindgc=4; mindgr=1; noblas=0; mincuda=1000; minvec=7
 default implementation of scratch files=df  

 ***,Optimization of min3
 memory,1000,m
 gthresh,energy=1.0d-12,orbital=1.0d-10,oneint=1.0d-16,twoint=1.0d-16,optgrad=1.0d-6,compress=1.0d-13
 geomtyp=xyz
 
  bohr
  geometry = {
  6
  arbitrary comment
  C   -1.3724152110   -0.0234618733   -0.0008214906
  O    1.3057067138    0.1204343865    0.0015437846
  H   -2.0787035991    1.9093201938   -0.0010101348
  H   -2.1030999692   -0.9807212119    1.6796323024
  H   -2.1164125080   -0.9782376642   -1.6837375114
  H    1.9412004136   -1.5774659510    0.0043846397
 }
 
 basis=cc-pvdz
 {rhf;maxit,200}
 {ccsd(t);maxit,200}

 Variables initialized (661), CPU time= 0.00 sec
 Commands  initialized (458), CPU time= 0.00 sec, 486 directives.
 Default parameters read. Elapsed time= 0.06 sec

 Checking input...
 Passed
1


                                         ***  PROGRAM SYSTEM MOLPRO  ***
                         Copyright, University College Cardiff Consultants Limited, 2008

                                    Version 2010.1 linked May 16 2016 07:17:05


 **********************************************************************************************************************************
 LABEL *   Optimization of min3                                                          
 Linux-4.4.3/n023(x86_64) 64 bit mpp version                                             DATE: 06-Nov-21          TIME: 15:39:01  
 **********************************************************************************************************************************

 SHA1:             9e8077add272b0f3cad6f7df79ec5211205f459d
 **********************************************************************************************************************************

 THRESHOLDS:

 ZERO    =  1.00D-12  ONEINT  =  1.00D-16  TWOINT  =  1.00D-16  PREFAC  =  1.00D-14  LOCALI  =  1.00D-09  EORDER  =  1.00D-04
 ENERGY  =  1.00D-12  ETEST   =  0.00D+00  EDENS   =  0.00D+00  THRDEDEF=  1.00D-06  GRADIENT=  1.00D-02  STEP    =  1.00D-03
 ORBITAL =  1.00D-10  CIVEC   =  1.00D-05  COEFF   =  1.00D-04  PRINTCI =  5.00D-02  PUNCHCI =  9.90D+01  OPTGRAD =  1.00D-06
 OPTENERG=  1.00D-06  OPTSTEP =  3.00D-04  THRGRAD =  1.00D-10  COMPRESS=  1.00D-13  VARMIN  =  1.00D-07  VARMAX  =  1.00D-03
 THRDOUB =  0.00D+00  THRDIV  =  1.00D-05  THRRED  =  1.00D-07  THRPSP  =  1.00D+00  THRDC   =  1.00D-10  THRCS   =  1.00D-10
 THRNRM  =  1.00D-08  THREQ   =  0.00D+00  THRDE   =  1.00D+00  THRREF  =  1.00D-05  SPARFAC =  1.00D+00  THRDLP  =  1.00D-07
 THRDIA  =  1.00D-10  THRDLS  =  1.00D-07  THRGPS  =  0.00D+00  THRKEX  =  0.00D+00  THRDIS  =  2.00D-01  THRVAR  =  1.00D-10
 THRLOC  =  1.00D-06  THRGAP  =  1.00D-06  THRLOCT = -1.00D+00  THRGAPT = -1.00D+00  THRORB  =  1.00D-06  THRMLTP =  0.00D+00
 THRCPQCI=  1.00D-10  KEXTA   =  0.00D+00  THRCOARS=  0.00D+00  SYMTOL  =  1.00D-06  GRADTOL =  1.00D-06  THROVL  =  1.00D-08
 THRORTH =  1.00D-08  GRID    =  1.00D-06  GRIDMAX =  1.00D-03  DTMAX   =  0.00D+00

 SETTING GEOMTYP        =    XYZ
 ZUNIT=BOHR
 

 Variable memory set to 1000000000 words,  buffer space   230000 words

 SETTING BASIS          =    CC-PVDZ


 Recomputing integrals since basis changed


 Using spherical harmonics

 Library entry C      S cc-pVDZ              selected for orbital group  1
 Library entry C      P cc-pVDZ              selected for orbital group  1
 Library entry C      D cc-pVDZ              selected for orbital group  1
 Library entry O      S cc-pVDZ              selected for orbital group  2
 Library entry O      P cc-pVDZ              selected for orbital group  2
 Library entry O      D cc-pVDZ              selected for orbital group  2
 Library entry H      S cc-pVDZ              selected for orbital group  3
 Library entry H      P cc-pVDZ              selected for orbital group  3

1PROGRAM * SEWARD (Integral evaluation for generally contracted gaussian basis sets)     Author: Roland Lindh, 1990

 Geometry written to block  1 of record 700


 Point group  C1  



 ATOMIC COORDINATES

 NR  ATOM    CHARGE       X              Y              Z

   1  C       6.00   -1.372415211   -0.023461873   -0.000821491
   2  O       8.00    1.305706714    0.120434387    0.001543785
   3  H       1.00   -2.078703599    1.909320194   -0.001010135
   4  H       1.00   -2.103099969   -0.980721212    1.679632302
   5  H       1.00   -2.116412508   -0.978237664   -1.683737511
   6  H       1.00    1.941200414   -1.577465951    0.004384640

 Bond lengths in Bohr (Angstrom)

 1-2  2.681985975  1-3  2.057787608  1-4  2.067406735  1-5  2.073001477  2-6  1.812932947
     ( 1.419245853)     ( 1.088934303)     ( 1.094024526)     ( 1.096985136)     ( 0.959362797)

 Bond angles

  1-2-6  107.44446769   2-1-3  106.99804310   2-1-4  112.15089335   2-1-5  112.56980391

  3-1-4  108.28019097   3-1-5  108.01942977   4-1-5  108.64925441

 NUCLEAR CHARGE:                   18
 NUMBER OF PRIMITIVE AOS:          82
 NUMBER OF SYMMETRY AOS:           80
 NUMBER OF CONTRACTIONS:           48   (  48A   )
 NUMBER OF CORE ORBITALS:           2   (   2A   )
 NUMBER OF VALENCE ORBITALS:       12   (  12A   )


 NUCLEAR REPULSION ENERGY   40.32437939


 Eigenvalues of metric

         1 0.967E-02 0.176E-01 0.369E-01 0.375E-01 0.381E-01 0.474E-01 0.479E-01 0.517E-01


 Contracted 2-electron integrals neglected if value below      1.0D-16
 AO integral compression algorithm  1   Integral accuracy      1.0D-16

     6.816 MB (compressed) written to integral file (100.0%)

     Node minimum: 6.816 MB, node maximum: 6.816 MB


 NUMBER OF SORTED TWO-ELECTRON INTEGRALS:     692076.     BUFFER LENGTH:  32768
 NUMBER OF SEGMENTS:   1  SEGMENT LENGTH:     692076      RECORD LENGTH: 524288

 Memory used in sort:       1.25 MW

 SORT1 READ      832256. AND WROTE      682150. INTEGRALS IN      2 RECORDS. CPU TIME:     0.01 SEC, REAL TIME:     0.01 SEC
 SORT2 READ      682150. AND WROTE      692076. INTEGRALS IN     26 RECORDS. CPU TIME:     0.03 SEC, REAL TIME:     0.02 SEC

 FILE SIZES:   FILE 1:     8.4 MBYTE,  FILE 4:     8.4 MBYTE,   TOTAL:     16.8 MBYTE

 OPERATOR DM      FOR CENTER  0  COORDINATES:    0.000000    0.000000    0.000000


 **********************************************************************************************************************************
 DATASETS  * FILE   NREC   LENGTH (MB)   RECORD NAMES
              1      19        8.41       500      610      700      900      950      970     1000      129      960     1100   
                                          VAR    BASINP    GEOM    SYMINP    ZMAT    AOBASIS   BASIS     P2S    ABASIS      S 
                                         1400     1410     1200     1210     1080     1600     1650     1300     1700   
                                           T        V       H0       H01     AOSYM     SMH    MOLCAS    ERIS     OPER   

 PROGRAMS   *        TOTAL       INT
 CPU TIMES  *         0.35      0.29
 REAL TIME  *         0.52 SEC
 DISK USED  *        24.25 MB      
 GA USED    *         0.00 MB       (max)       0.00 MB       (current)
 **********************************************************************************************************************************

1PROGRAM * RHF-SCF (CLOSED SHELL)       Authors: W. Meyer, H.-J. Werner


 NUMBER OF ELECTRONS:       9+    9-    SPACE SYMMETRY=1    SPIN SYMMETRY: Singlet 
 CONVERGENCE THRESHOLDS:    1.00E-10 (Density)    1.00E-13 (Energy)
 MAX. NUMBER OF ITERATIONS:      200
 INTERPOLATION TYPE:            DIIS
 INTERPOLATION STEPS:              2 (START)      1 (STEP)
 LEVEL SHIFTS:                  0.00 (CLOSED)  0.00 (OPEN) 



 Orbital guess generated from atomic densities. Full valence occupancy:   14

 Molecular orbital dump at record        2100.2

 ITERATION    DDIFF          GRAD             ENERGY        2-EL.EN.            DIPOLE MOMENTS         DIIS
    1      0.000D+00      0.000D+00      -115.01430137    164.416278   -0.49189   -0.90039   -0.00038    0
    2      0.000D+00      0.109D-01      -115.04265009    162.198657   -0.31384   -0.53537    0.00111    1
    3      0.205D-01      0.529D-02      -115.04866232    163.222761   -0.39725   -0.61035    0.00104    2
    4      0.638D-02      0.112D-02      -115.04912572    163.066368   -0.38712   -0.59920    0.00120    3
    5      0.204D-02      0.202D-03      -115.04914668    163.072842   -0.38993   -0.59489    0.00124    4
    6      0.433D-03      0.354D-04      -115.04914748    163.072982   -0.39023   -0.59469    0.00125    5
    7      0.928D-04      0.733D-05      -115.04914751    163.071801   -0.39037   -0.59452    0.00126    6
    8      0.150D-04      0.237D-05      -115.04914751    163.072182   -0.39040   -0.59449    0.00126    7
    9      0.502D-05      0.489D-06      -115.04914751    163.072141   -0.39041   -0.59449    0.00126    6
   10      0.141D-05      0.870D-07      -115.04914751    163.072140   -0.39042   -0.59449    0.00126    6
   11      0.234D-06      0.325D-07      -115.04914751    163.072145   -0.39042   -0.59449    0.00126    6
   12      0.590D-07      0.135D-07      -115.04914751    163.072143   -0.39042   -0.59449    0.00126    7
   13      0.252D-07      0.303D-08      -115.04914751    163.072144   -0.39042   -0.59449    0.00126    7
   14      0.752D-08      0.648D-09      -115.04914751    163.072144   -0.39042   -0.59449    0.00126    7
   15      0.165D-08      0.150D-09      -115.04914751    163.072144   -0.39042   -0.59449    0.00126    7
   16      0.334D-09      0.452D-10      -115.04914751    163.072144   -0.39042   -0.59449    0.00126    7
   17      0.871D-10      0.150D-10      -115.04914751    163.072144   -0.39042   -0.59449    0.00126    0

 Final occupancy:   9

 !RHF STATE 1.1 Energy               -115.049147509616
 Nuclear energy                        40.32437939
 One-electron energy                 -236.90959875
 Two-electron energy                   81.53607185
 Virial quotient                       -1.00092099
 !RHF STATE 1.1 Dipole moment          -0.39041674    -0.59449263     0.00125662
 Dipole moment /Debye                  -0.99227537    -1.51095057     0.00319381

 Orbital energies:

         1.1          2.1          3.1          4.1          5.1          6.1          7.1          8.1          9.1         10.1
    -20.550102   -11.274766    -1.350556    -0.921167    -0.683211    -0.613611    -0.585457    -0.496937    -0.442921     0.184551

        11.1
      0.224294


 **********************************************************************************************************************************
 DATASETS  * FILE   NREC   LENGTH (MB)   RECORD NAMES
              1      19        8.41       500      610      700      900      950      970     1000      129      960     1100   
                                          VAR    BASINP    GEOM    SYMINP    ZMAT    AOBASIS   BASIS     P2S    ABASIS      S 
                                         1400     1410     1200     1210     1080     1600     1650     1300     1700   
                                           T        V       H0       H01     AOSYM     SMH    MOLCAS    ERIS     OPER   

              2       3        0.39       700     1000     2100   
                                         GEOM     BASIS     RHF  

 PROGRAMS   *        TOTAL       RHF       INT
 CPU TIMES  *         0.45      0.10      0.29
 REAL TIME  *         0.65 SEC
 DISK USED  *        24.25 MB      
 GA USED    *         0.00 MB       (max)       0.00 MB       (current)
 **********************************************************************************************************************************


1PROGRAM * CCSD (Closed-shell coupled cluster)     Authors: C. Hampel, H.-J. Werner, 1991, M. Deegan, P.J. Knowles, 1992


 Convergence thresholds:  THRVAR = 1.00D-08  THRDEN = 1.00D-12

 CCSD(T)     terms to be evaluated (factor= 1.000)


 Number of core orbitals:           2 (   2 )
 Number of closed-shell orbitals:   7 (   7 )
 Number of external orbitals:      39 (  39 )

 Molecular orbitals read from record     2100.2  Type=RHF/CANONICAL (state 1.1)

 Number of N-1 electron functions:               7
 Number of N-2 electron functions:              28
 Number of singly external CSFs:               273
 Number of doubly external CSFs:             37401
 Total number of CSFs:                       37675

 Length of J-op  integral file:               0.00 MB
 Length of K-op  integral file:               0.19 MB
 Length of 3-ext integral record:             0.00 MB

 Memory could be reduced to 0.96 Mwords without degradation in triples

 Integral transformation finished. Total CPU:   0.02 sec, npass=  1  Memory used:   0.66 MW

 Reference energy:                   -115.04914751

 MP2 singlet pair energy:              -0.21863343
 MP2 triplet pair energy:              -0.11984040
 MP2 correlation energy:               -0.33847383
 MP2 total energy:                   -115.38762134

 SCS-MP2 correlation energy:           -0.33692748   (PS=  1.200000  PT=  0.333333)
 SCS-MP2 total energy:               -115.38607499

 ITER.      SQ.NORM     CORR.ENERGY   TOTAL ENERGY   ENERGY CHANGE        DEN1      VAR(S)    VAR(P)  DIIS     TIME
   1      1.10732515    -0.36127685  -115.41042436    -0.02280302    -0.01412539  0.91D-03  0.17D-02  1  1     0.08
   2      1.11585005    -0.36322174  -115.41236925    -0.00194489    -0.00924867  0.20D-04  0.16D-03  2  2     0.13
   3      1.11773037    -0.36334903  -115.41249654    -0.00012728    -0.00120324  0.95D-05  0.86D-05  3  3     0.18
   4      1.11824520    -0.36334768  -115.41249519     0.00000135    -0.00025485  0.33D-06  0.67D-06  4  4     0.23
   5      1.11834326    -0.36334808  -115.41249559    -0.00000041    -0.00003602  0.99D-07  0.49D-07  5  5     0.28
   6      1.11836231    -0.36334673  -115.41249424     0.00000135    -0.00000437  0.16D-07  0.41D-08  6  6     0.33
   7      1.11836705    -0.36334631  -115.41249382     0.00000042    -0.00000035  0.20D-08  0.72D-09  6  1     0.38
   8      1.11836831    -0.36334642  -115.41249393    -0.00000010     0.00000075  0.26D-09  0.72D-10  6  3     0.43
   9      1.11836937    -0.36334629  -115.41249380     0.00000012    -0.00000038  0.13D-10  0.10D-10  6  2     0.48
  10      1.11836930    -0.36334630  -115.41249381    -0.00000000     0.00000007  0.11D-11  0.87D-12  6  5     0.53
  11      1.11836933    -0.36334629  -115.41249380     0.00000000    -0.00000000  0.19D-12  0.50D-13  6  4     0.58
  12      1.11836932    -0.36334630  -115.41249381    -0.00000000     0.00000001  0.19D-13  0.10D-13  6  1     0.63
  13      1.11836932    -0.36334630  -115.41249381    -0.00000000    -0.00000000  0.24D-14  0.94D-15  6  6     0.68
  14      1.11836932    -0.36334630  -115.41249381     0.00000000    -0.00000000  0.22D-15  0.12D-15  6  3     0.73
  15      1.11836932    -0.36334630  -115.41249381    -0.00000000    -0.00000000  0.25D-16  0.16D-16  6  2     0.78
  16      1.11836932    -0.36334630  -115.41249381    -0.00000000    -0.00000000  0.56D-17  0.16D-17  6  5     0.83
  17      1.11836932    -0.36334630  -115.41249381    -0.00000000    -0.00000000  0.55D-18  0.25D-18  6  4     0.88
  18      1.11836932    -0.36334630  -115.41249381     0.00000000    -0.00000000  0.87D-19  0.43D-19  6  1     0.93
  19      1.11836932    -0.36334630  -115.41249381    -0.00000000    -0.00000000  0.11D-19  0.44D-20  6  6     0.98
  20      1.11836932    -0.36334630  -115.41249381     0.00000000     0.00000000  0.16D-20  0.60D-21  6  3     1.03

 Norm of t1 vector:      0.04163663      S-energy:    -0.00000000      T1 diagnostic:  0.00786858
                                                                       D1 diagnostic:  0.01742722


 Total CPU time for triples:      0.25 sec


 RESULTS
 =======

  Reference energy                   -115.049147509616
  CCSD singlet pair energy             -0.254584327407
  CCSD triplet pair energy             -0.108761968326
  CCSD correlation energy              -0.363346295734

  Triples (T) contribution             -0.007735995074
  Total correlation energy             -0.371082290808

  CCSD total energy                  -115.412493805350
  CCSD[T] energy                     -115.420519622381
  CCSD-T energy                      -115.420079949594
 !CCSD(T) total energy               -115.420229800424

 Timing summary (sec):

 STEP                 CPU(USER)    SYS     CPU(TOT)    WALL
 Transformation          0.02      0.01      0.03      0.03
 CCSD iterations         1.01      0.04      1.05      1.09
 Triples                 0.25      0.00      0.25      0.26

 Program statistics:

 Available memory in ccsd:               999999704
 Min. memory needed in ccsd:                136801
 Max. memory used in ccsd:                  163198
 Max. memory used in cckext:                182024 (20 integral passes)



 **********************************************************************************************************************************
 DATASETS  * FILE   NREC   LENGTH (MB)   RECORD NAMES
              1      20       10.95       500      610      700      900      950      970     1000      129      960     1100   
                                          VAR    BASINP    GEOM    SYMINP    ZMAT    AOBASIS   BASIS     P2S    ABASIS      S 
                                         1400     1410     1200     1210     1080     1600     1650     1300     1700     1380   
                                           T        V       H0       H01     AOSYM     SMH    MOLCAS    ERIS     OPER     JKOP   

              2       3        0.39       700     1000     2100   
                                         GEOM     BASIS     RHF  

 PROGRAMS   *        TOTAL   CCSD(T)       RHF       INT
 CPU TIMES  *         1.74      1.29      0.10      0.29
 REAL TIME  *         2.05 SEC
 DISK USED  *        25.68 MB      
 GA USED    *         0.00 MB       (max)       0.00 MB       (current)
 **********************************************************************************************************************************

        CCSD(T)         RHF-SCF 
   -115.42022980   -115.04914751
 **********************************************************************************************************************************
 Variable memory released
