
 Primary working directories    : /tmp/667822.6.gen4.q
 Secondary working directories  : /tmp/667822.6.gen4.q
 Wavefunction directory         : /home/vulcan/nlk36701/wfu/
 Main file repository           : /tmp/667822.6.gen4.q/

 ARCHNAME  : Linux/x86_64
 FC        : /opt/intel/compilers_and_libraries_2016.1.150/linux/bin/intel64/ifort
 FCVERSION : 16.0.1
 BLASLIB   : -mkl
 id        : ccgc

 Nodes     nprocs
 n056         1
 ga_uses_ma=false, calling ma_init with nominal heap.
 GA-space will be limited to   8.0 MW (determined by -G option)

 Using customized tuning parameters: mindgm=10; mindgv=16; mindgc=4; mindgr=1; noblas=0; mincuda=1000; minvec=7
 default implementation of scratch files=df  

 ***,Optimization of min3
 memory,1000,m
 gthresh,energy=1.0d-12,orbital=1.0d-10,oneint=1.0d-16,twoint=1.0d-16,optgrad=1.0d-6,compress=1.0d-13
 geomtyp=xyz
 
  bohr
  geometry = {
  3
  arbitrary comment
  H   -0.0000000000   -1.4221544034    0.9939658777
  O    0.0000000000   -0.0049723034   -0.1255022052
  H    0.0000000000    1.4271267067    0.9978799475
 }
 
 basis=cc-pvtz
 {rhf;maxit,200}
 {ccsd(t);maxit,200}

 Variables initialized (661), CPU time= 0.01 sec
 Commands  initialized (458), CPU time= 0.00 sec, 486 directives.
 Default parameters read. Elapsed time= 0.05 sec

 Checking input...
 Passed
1


                                         ***  PROGRAM SYSTEM MOLPRO  ***
                         Copyright, University College Cardiff Consultants Limited, 2008

                                    Version 2010.1 linked May 16 2016 07:17:05


 **********************************************************************************************************************************
 LABEL *   Optimization of min3                                                          
 Linux-4.4.3/n056(x86_64) 64 bit mpp version                                             DATE: 28-Mar-22          TIME: 11:16:01  
 **********************************************************************************************************************************

 SHA1:             9e8077add272b0f3cad6f7df79ec5211205f459d
 **********************************************************************************************************************************

 THRESHOLDS:

 ZERO    =  1.00D-12  ONEINT  =  1.00D-16  TWOINT  =  1.00D-16  PREFAC  =  1.00D-14  LOCALI  =  1.00D-09  EORDER  =  1.00D-04
 ENERGY  =  1.00D-12  ETEST   =  0.00D+00  EDENS   =  0.00D+00  THRDEDEF=  1.00D-06  GRADIENT=  1.00D-02  STEP    =  1.00D-03
 ORBITAL =  1.00D-10  CIVEC   =  1.00D-05  COEFF   =  1.00D-04  PRINTCI =  5.00D-02  PUNCHCI =  9.90D+01  OPTGRAD =  1.00D-06
 OPTENERG=  1.00D-06  OPTSTEP =  3.00D-04  THRGRAD =  1.00D-10  COMPRESS=  1.00D-13  VARMIN  =  1.00D-07  VARMAX  =  1.00D-03
 THRDOUB =  0.00D+00  THRDIV  =  1.00D-05  THRRED  =  1.00D-07  THRPSP  =  1.00D+00  THRDC   =  1.00D-10  THRCS   =  1.00D-10
 THRNRM  =  1.00D-08  THREQ   =  0.00D+00  THRDE   =  1.00D+00  THRREF  =  1.00D-05  SPARFAC =  1.00D+00  THRDLP  =  1.00D-07
 THRDIA  =  1.00D-10  THRDLS  =  1.00D-07  THRGPS  =  0.00D+00  THRKEX  =  0.00D+00  THRDIS  =  2.00D-01  THRVAR  =  1.00D-10
 THRLOC  =  1.00D-06  THRGAP  =  1.00D-06  THRLOCT = -1.00D+00  THRGAPT = -1.00D+00  THRORB  =  1.00D-06  THRMLTP =  0.00D+00
 THRCPQCI=  1.00D-10  KEXTA   =  0.00D+00  THRCOARS=  0.00D+00  SYMTOL  =  1.00D-06  GRADTOL =  1.00D-06  THROVL  =  1.00D-08
 THRORTH =  1.00D-08  GRID    =  1.00D-06  GRIDMAX =  1.00D-03  DTMAX   =  0.00D+00

 SETTING GEOMTYP        =    XYZ
 ZUNIT=BOHR
 

 Variable memory set to 1000000000 words,  buffer space   230000 words

 SETTING BASIS          =    CC-PVTZ


 Recomputing integrals since basis changed


 Using spherical harmonics

 Library entry H      S cc-pVTZ              selected for orbital group  1
 Library entry H      P cc-pVTZ              selected for orbital group  1
 Library entry H      D cc-pVTZ              selected for orbital group  1
 Library entry O      S cc-pVTZ              selected for orbital group  2
 Library entry O      P cc-pVTZ              selected for orbital group  2
 Library entry O      D cc-pVTZ              selected for orbital group  2
 Library entry O      F cc-pVTZ              selected for orbital group  2

1PROGRAM * SEWARD (Integral evaluation for generally contracted gaussian basis sets)     Author: Roland Lindh, 1990

 Geometry written to block  1 of record 700


 Point group  Cs  



 ATOMIC COORDINATES

 NR  ATOM    CHARGE       X              Y              Z

   1  H       1.00    0.000000000   -1.422154403    0.993965878
   2  O       8.00    0.000000000   -0.004972303   -0.125502205
   3  H       1.00    0.000000000    1.427126707    0.997879947

 Bond lengths in Bohr (Angstrom)

 1-2  1.805993880  2-3  1.820135994
     ( 0.955690801)     ( 0.963174485)

 Bond angles

  1-2-3  103.58217830

 NUCLEAR CHARGE:                   10
 NUMBER OF PRIMITIVE AOS:          81
 NUMBER OF SYMMETRY AOS:           74
 NUMBER OF CONTRACTIONS:           58   (  40A'  +  18A"  )
 NUMBER OF CORE ORBITALS:           1   (   1A'  +   0A"  )
 NUMBER OF VALENCE ORBITALS:        6   (   5A'  +   1A"  )


 NUCLEAR REPULSION ENERGY    9.17593522


 Eigenvalues of metric

         1 0.259E-02 0.475E-02 0.581E-02 0.762E-02 0.109E-01 0.419E-01 0.481E-01 0.690E-01
         2 0.403E-01 0.109E+00 0.116E+00 0.245E+00 0.317E+00 0.448E+00 0.524E+00 0.540E+00


 Contracted 2-electron integrals neglected if value below      1.0D-16
 AO integral compression algorithm  1   Integral accuracy      1.0D-16

     7.864 MB (compressed) written to integral file (100.0%)

     Node minimum: 7.864 MB, node maximum: 7.864 MB


 NUMBER OF SORTED TWO-ELECTRON INTEGRALS:     771976.     BUFFER LENGTH:  32768
 NUMBER OF SEGMENTS:   1  SEGMENT LENGTH:     771976      RECORD LENGTH: 524288

 Memory used in sort:       1.33 MW

 SORT1 READ      966916. AND WROTE      721545. INTEGRALS IN      3 RECORDS. CPU TIME:     0.00 SEC, REAL TIME:     0.02 SEC
 SORT2 READ      721545. AND WROTE      771976. INTEGRALS IN     30 RECORDS. CPU TIME:     0.02 SEC, REAL TIME:     0.02 SEC

 FILE SIZES:   FILE 1:     8.6 MBYTE,  FILE 4:    12.6 MBYTE,   TOTAL:     21.2 MBYTE

 OPERATOR DM      FOR CENTER  0  COORDINATES:    0.000000    0.000000    0.000000


 **********************************************************************************************************************************
 DATASETS  * FILE   NREC   LENGTH (MB)   RECORD NAMES
              1      19        8.64       500      610      700      900      950      970     1000      129      960     1100   
                                          VAR    BASINP    GEOM    SYMINP    ZMAT    AOBASIS   BASIS     P2S    ABASIS      S 
                                         1400     1410     1200     1210     1080     1600     1650     1300     1700   
                                           T        V       H0       H01     AOSYM     SMH    MOLCAS    ERIS     OPER   

 PROGRAMS   *        TOTAL       INT
 CPU TIMES  *         0.23      0.19
 REAL TIME  *         0.42 SEC
 DISK USED  *        29.62 MB      
 GA USED    *         0.00 MB       (max)       0.00 MB       (current)
 **********************************************************************************************************************************

1PROGRAM * RHF-SCF (CLOSED SHELL)       Authors: W. Meyer, H.-J. Werner


 NUMBER OF ELECTRONS:       5+    5-
 CONVERGENCE THRESHOLDS:    1.00E-10 (Density)    1.00E-13 (Energy)
 MAX. NUMBER OF ITERATIONS:      200
 INTERPOLATION TYPE:            DIIS
 INTERPOLATION STEPS:              2 (START)      1 (STEP)
 LEVEL SHIFTS:                  0.00 (CLOSED)  0.00 (OPEN) 



 Orbital guess generated from atomic densities. Full valence occupancy:    6   1

 Molecular orbital dump at record        2100.2

 Initial alpha occupancy:   4   1
 Initial beta  occupancy:   4   1
 Wave function symmetry:    1

 ITERATION    DDIFF          GRAD             ENERGY        2-EL.EN.            DIPOLE MOMENTS         DIIS
    1      0.000D+00      0.000D+00       -76.01871804     77.737358    0.00000    0.00993    1.15469    0
    2      0.000D+00      0.139D-01       -76.04669220     74.307416    0.00000    0.00346    0.71150    1
    3      0.239D-01      0.825D-02       -76.05670776     75.769123    0.00000    0.00445    0.81194    2
    4      0.788D-02      0.787D-03       -76.05689702     75.689642    0.00000    0.00394    0.80667    3
    5      0.117D-02      0.221D-03       -76.05691694     75.701402    0.00000    0.00372    0.80403    4
    6      0.403D-03      0.421D-04       -76.05691799     75.700037    0.00000    0.00365    0.80339    5
    7      0.911D-04      0.725D-05       -76.05691802     75.700148    0.00000    0.00364    0.80324    6
    8      0.185D-04      0.107D-05       -76.05691802     75.700092    0.00000    0.00364    0.80322    5
    9      0.245D-05      0.202D-06       -76.05691802     75.700119    0.00000    0.00364    0.80322    6
   10      0.451D-06      0.447D-07       -76.05691802     75.700114    0.00000    0.00364    0.80322    6
   11      0.874D-07      0.106D-07       -76.05691802     75.700114    0.00000    0.00364    0.80322    6
   12      0.276D-07      0.211D-08       -76.05691802     75.700114    0.00000    0.00364    0.80322    6
   13      0.496D-08      0.424D-09       -76.05691802     75.700114    0.00000    0.00364    0.80322    6
   14      0.123D-08      0.119D-09       -76.05691802     75.700114    0.00000    0.00364    0.80322    6
   15      0.328D-09      0.282D-10       -76.05691802     75.700114    0.00000    0.00364    0.80322    6
   16      0.645D-10      0.885D-11       -76.05691802     75.700114    0.00000    0.00364    0.80322    0

 Final occupancy:   4   1

 !RHF STATE 1.1 Energy                -76.056918018305
 Nuclear energy                         9.17593522
 One-electron energy                 -123.08291033
 Two-electron energy                   37.85005709
 Virial quotient                       -1.00076576
 !RHF STATE 1.1 Dipole moment           0.00000000     0.00363588     0.80321516
 Dipole moment /Debye                   0.00000000     0.00924089     2.04143558

 Orbital energies:

         1.1          2.1          3.1          4.1          5.1          6.1
    -20.555583    -1.345251    -0.706806    -0.579149     0.141857     0.204046

         1.2          2.2          3.2
     -0.504608     0.787191     0.862662


 **********************************************************************************************************************************
 DATASETS  * FILE   NREC   LENGTH (MB)   RECORD NAMES
              1      19        8.64       500      610      700      900      950      970     1000      129      960     1100   
                                          VAR    BASINP    GEOM    SYMINP    ZMAT    AOBASIS   BASIS     P2S    ABASIS      S 
                                         1400     1410     1200     1210     1080     1600     1650     1300     1700   
                                           T        V       H0       H01     AOSYM     SMH    MOLCAS    ERIS     OPER   

              2       3        0.33       700     1000     2100   
                                         GEOM     BASIS     RHF  

 PROGRAMS   *        TOTAL       RHF       INT
 CPU TIMES  *         0.29      0.05      0.19
 REAL TIME  *         0.52 SEC
 DISK USED  *        29.62 MB      
 GA USED    *         0.00 MB       (max)       0.00 MB       (current)
 **********************************************************************************************************************************


1PROGRAM * CCSD (Closed-shell coupled cluster)     Authors: C. Hampel, H.-J. Werner, 1991, M. Deegan, P.J. Knowles, 1992


 Convergence thresholds:  THRVAR = 1.00D-08  THRDEN = 1.00D-12

 CCSD(T)     terms to be evaluated (factor= 1.000)


 Number of core orbitals:           1 (   1   0 )
 Number of closed-shell orbitals:   4 (   3   1 )
 Number of external orbitals:      53 (  36  17 )

 Molecular orbitals read from record     2100.2  Type=RHF/CANONICAL (state 1.1)

 Number of N-1 electron functions:               4
 Number of N-2 electron functions:              10
 Number of singly external CSFs:               125
 Number of doubly external CSFs:             11703
 Total number of CSFs:                       11829

 Length of J-op  integral file:               0.00 MB
 Length of K-op  integral file:               0.17 MB
 Length of 3-ext integral record:             0.00 MB

 Memory could be reduced to 0.82 Mwords without degradation in triples

 Integral transformation finished. Total CPU:   0.01 sec, npass=  1  Memory used:   0.24 MW

 Reference energy:                    -76.05691802

 MP2 singlet pair energy:              -0.16636749
 MP2 triplet pair energy:              -0.09534393
 MP2 correlation energy:               -0.26171142
 MP2 total energy:                    -76.31862943

 SCS-MP2 correlation energy:           -0.25896610   (PS=  1.200000  PT=  0.333333)
 SCS-MP2 total energy:                -76.31588412

 ITER.      SQ.NORM     CORR.ENERGY   TOTAL ENERGY   ENERGY CHANGE        DEN1      VAR(S)    VAR(P)  DIIS     TIME
   1      1.06063245    -0.26711105   -76.32402907    -0.00539963    -0.00040569  0.45D-03  0.82D-03  1  1     0.02
   2      1.06377701    -0.26752995   -76.32444797    -0.00041890    -0.00448441  0.76D-05  0.87D-04  2  2     0.03
   3      1.06480944    -0.26759214   -76.32451016    -0.00006219    -0.00081606  0.15D-05  0.40D-05  3  3     0.05
   4      1.06507893    -0.26760230   -76.32452031    -0.00001016    -0.00016183  0.10D-06  0.20D-06  4  4     0.06
   5      1.06511512    -0.26759968   -76.32451770     0.00000262    -0.00001858  0.35D-07  0.11D-07  5  5     0.07
   6      1.06512114    -0.26759954   -76.32451755     0.00000014    -0.00000172  0.54D-08  0.12D-08  6  6     0.08
   7      1.06512277    -0.26759966   -76.32451768    -0.00000012    -0.00000031  0.82D-09  0.16D-09  6  1     0.10
   8      1.06512338    -0.26759967   -76.32451769    -0.00000001     0.00000042  0.29D-10  0.13D-10  6  2     0.11
   9      1.06512358    -0.26759966   -76.32451768     0.00000002    -0.00000008  0.12D-11  0.11D-11  6  3     0.12
  10      1.06512361    -0.26759965   -76.32451767     0.00000000     0.00000002  0.41D-13  0.57D-13  6  4     0.14
  11      1.06512362    -0.26759965   -76.32451767     0.00000000    -0.00000001  0.18D-14  0.42D-14  6  5     0.15
  12      1.06512362    -0.26759965   -76.32451767    -0.00000000     0.00000000  0.16D-15  0.29D-15  6  6     0.17
  13      1.06512362    -0.26759965   -76.32451767    -0.00000000     0.00000000  0.29D-16  0.23D-16  6  1     0.18
  14      1.06512362    -0.26759965   -76.32451767    -0.00000000     0.00000000  0.48D-17  0.23D-17  6  2     0.19
  15      1.06512362    -0.26759965   -76.32451767    -0.00000000     0.00000000  0.13D-17  0.20D-18  6  3     0.21
  16      1.06512362    -0.26759965   -76.32451767    -0.00000000     0.00000000  0.11D-18  0.19D-19  6  4     0.22
  17      1.06512362    -0.26759965   -76.32451767    -0.00000000     0.00000000  0.94D-20  0.24D-20  6  5     0.23
  18      1.06512362    -0.26759965   -76.32451767    -0.00000000    -0.00000000  0.42D-21  0.20D-21  6  6     0.25

 Norm of t1 vector:      0.02624552      S-energy:    -0.00000000      T1 diagnostic:  0.00656138
                                                                       D1 diagnostic:  0.01083479


 Total CPU time for triples:      0.04 sec


 RESULTS
 =======

  Reference energy                    -76.056918018305
  CCSD singlet pair energy             -0.182589150961
  CCSD triplet pair energy             -0.085010501038
  CCSD correlation energy              -0.267599651999

  Triples (T) contribution             -0.007671305056
  Total correlation energy             -0.275270957055

  CCSD total energy                   -76.324517670304
  CCSD[T] energy                      -76.332382696150
  CCSD-T energy                       -76.332051868199
 !CCSD(T) total energy                -76.332188975360

 Timing summary (sec):

 STEP                 CPU(USER)    SYS     CPU(TOT)    WALL
 Transformation          0.01      0.01      0.02      0.01
 CCSD iterations         0.24      0.02      0.26      0.30
 Triples                 0.04      0.01      0.05      0.04

 Program statistics:

 Available memory in ccsd:               999999836
 Min. memory needed in ccsd:                 61793
 Max. memory used in ccsd:                   69544
 Max. memory used in cckext:                110816 (18 integral passes)



 **********************************************************************************************************************************
 DATASETS  * FILE   NREC   LENGTH (MB)   RECORD NAMES
              1      20       10.14       500      610      700      900      950      970     1000      129      960     1100   
                                          VAR    BASINP    GEOM    SYMINP    ZMAT    AOBASIS   BASIS     P2S    ABASIS      S 
                                         1400     1410     1200     1210     1080     1600     1650     1300     1700     1380   
                                           T        V       H0       H01     AOSYM     SMH    MOLCAS    ERIS     OPER     JKOP   

              2       3        0.33       700     1000     2100   
                                         GEOM     BASIS     RHF  

 PROGRAMS   *        TOTAL   CCSD(T)       RHF       INT
 CPU TIMES  *         0.60      0.32      0.05      0.19
 REAL TIME  *         0.90 SEC
 DISK USED  *        29.62 MB      
 GA USED    *         0.00 MB       (max)       0.00 MB       (current)
 **********************************************************************************************************************************

        CCSD(T)         RHF-SCF 
    -76.33218898    -76.05691802
 **********************************************************************************************************************************
 Variable memory released
