
 Primary working directories    : /tmp/601555.104.gen4.q
 Secondary working directories  : /tmp/601555.104.gen4.q
 Wavefunction directory         : /home/vulcan/mel64643/wfu/
 Main file repository           : /tmp/601555.104.gen4.q/

 ARCHNAME  : Linux/x86_64
 FC        : /opt/intel/compilers_and_libraries_2016.1.150/linux/bin/intel64/ifort
 FCVERSION : 16.0.1
 BLASLIB   : -mkl
 id        : ccgc

 Nodes     nprocs
 n040         1
 ga_uses_ma=false, calling ma_init with nominal heap.
 GA-space will be limited to   8.0 MW (determined by -G option)

 Using customized tuning parameters: mindgm=10; mindgv=16; mindgc=4; mindgr=1; noblas=0; mincuda=1000; minvec=7
 default implementation of scratch files=df  

 ***,Optimization of min3
 memory,1000,m
 gthresh,energy=1.0d-12,orbital=1.0d-10,oneint=1.0d-16,twoint=1.0d-16,optgrad=1.0d-6,compress=1.0d-13
 geomtyp=xyz
 
  bohr
  geometry = {
  6
  arbitrary comment
  C   -1.3756652008   -0.0241890942    0.0015509254
  O    1.3125716515    0.1228882490    0.0002121559
  H   -2.0783626205    1.9088848042    0.0043571425
  H   -2.1103663642   -0.9755577560    1.6774749580
  H   -2.1110742832   -0.9843991186   -1.6834054742
  H    1.9391726571   -1.5777592044   -0.0001981176
 }
 
 basis=cc-pvdz
 {rhf;maxit,200}
 {ccsd(t);maxit,200}

 Variables initialized (661), CPU time= 0.01 sec
 Commands  initialized (458), CPU time= 0.00 sec, 486 directives.
 Default parameters read. Elapsed time= 0.07 sec

 Checking input...
 Passed
1


                                         ***  PROGRAM SYSTEM MOLPRO  ***
                         Copyright, University College Cardiff Consultants Limited, 2008

                                    Version 2010.1 linked May 16 2016 07:17:05


 **********************************************************************************************************************************
 LABEL *   Optimization of min3                                                          
 Linux-4.4.3/n040(x86_64) 64 bit mpp version                                             DATE: 06-Nov-21          TIME: 15:40:01  
 **********************************************************************************************************************************

 SHA1:             9e8077add272b0f3cad6f7df79ec5211205f459d
 **********************************************************************************************************************************

 THRESHOLDS:

 ZERO    =  1.00D-12  ONEINT  =  1.00D-16  TWOINT  =  1.00D-16  PREFAC  =  1.00D-14  LOCALI  =  1.00D-09  EORDER  =  1.00D-04
 ENERGY  =  1.00D-12  ETEST   =  0.00D+00  EDENS   =  0.00D+00  THRDEDEF=  1.00D-06  GRADIENT=  1.00D-02  STEP    =  1.00D-03
 ORBITAL =  1.00D-10  CIVEC   =  1.00D-05  COEFF   =  1.00D-04  PRINTCI =  5.00D-02  PUNCHCI =  9.90D+01  OPTGRAD =  1.00D-06
 OPTENERG=  1.00D-06  OPTSTEP =  3.00D-04  THRGRAD =  1.00D-10  COMPRESS=  1.00D-13  VARMIN  =  1.00D-07  VARMAX  =  1.00D-03
 THRDOUB =  0.00D+00  THRDIV  =  1.00D-05  THRRED  =  1.00D-07  THRPSP  =  1.00D+00  THRDC   =  1.00D-10  THRCS   =  1.00D-10
 THRNRM  =  1.00D-08  THREQ   =  0.00D+00  THRDE   =  1.00D+00  THRREF  =  1.00D-05  SPARFAC =  1.00D+00  THRDLP  =  1.00D-07
 THRDIA  =  1.00D-10  THRDLS  =  1.00D-07  THRGPS  =  0.00D+00  THRKEX  =  0.00D+00  THRDIS  =  2.00D-01  THRVAR  =  1.00D-10
 THRLOC  =  1.00D-06  THRGAP  =  1.00D-06  THRLOCT = -1.00D+00  THRGAPT = -1.00D+00  THRORB  =  1.00D-06  THRMLTP =  0.00D+00
 THRCPQCI=  1.00D-10  KEXTA   =  0.00D+00  THRCOARS=  0.00D+00  SYMTOL  =  1.00D-06  GRADTOL =  1.00D-06  THROVL  =  1.00D-08
 THRORTH =  1.00D-08  GRID    =  1.00D-06  GRIDMAX =  1.00D-03  DTMAX   =  0.00D+00

 SETTING GEOMTYP        =    XYZ
 ZUNIT=BOHR
 

 Variable memory set to 1000000000 words,  buffer space   230000 words

 SETTING BASIS          =    CC-PVDZ


 Recomputing integrals since basis changed


 Using spherical harmonics

 Library entry C      S cc-pVDZ              selected for orbital group  1
 Library entry C      P cc-pVDZ              selected for orbital group  1
 Library entry C      D cc-pVDZ              selected for orbital group  1
 Library entry O      S cc-pVDZ              selected for orbital group  2
 Library entry O      P cc-pVDZ              selected for orbital group  2
 Library entry O      D cc-pVDZ              selected for orbital group  2
 Library entry H      S cc-pVDZ              selected for orbital group  3
 Library entry H      P cc-pVDZ              selected for orbital group  3

1PROGRAM * SEWARD (Integral evaluation for generally contracted gaussian basis sets)     Author: Roland Lindh, 1990

 Geometry written to block  1 of record 700


 Point group  C1  



 ATOMIC COORDINATES

 NR  ATOM    CHARGE       X              Y              Z

   1  C       6.00   -1.375665201   -0.024189094    0.001550925
   2  O       8.00    1.312571652    0.122888249    0.000212156
   3  H       1.00   -2.078362621    1.908884804    0.004357143
   4  H       1.00   -2.110366364   -0.975557756    1.677474958
   5  H       1.00   -2.111074283   -0.984399119   -1.683405474
   6  H       1.00    1.939172657   -1.577759204   -0.000198118

 Bond lengths in Bohr (Angstrom)

 1-2  2.692257586  1-3  2.056834032  1-4  2.062428058  1-5  2.074104115  2-6  1.812410204
     ( 1.424681355)     ( 1.088429692)     ( 1.091389923)     ( 1.097568627)     ( 0.959086174)

 Bond angles

  1-2-6  107.09463513   2-1-3  106.84527082   2-1-4  112.41442679   2-1-5  112.26708205

  3-1-4  108.10253586   3-1-5  108.36502412   4-1-5  108.67958422

 NUCLEAR CHARGE:                   18
 NUMBER OF PRIMITIVE AOS:          82
 NUMBER OF SYMMETRY AOS:           80
 NUMBER OF CONTRACTIONS:           48   (  48A   )
 NUMBER OF CORE ORBITALS:           2   (   2A   )
 NUMBER OF VALENCE ORBITALS:       12   (  12A   )


 NUCLEAR REPULSION ENERGY   40.25473218


 Eigenvalues of metric

         1 0.968E-02 0.177E-01 0.368E-01 0.375E-01 0.382E-01 0.473E-01 0.479E-01 0.517E-01


 Contracted 2-electron integrals neglected if value below      1.0D-16
 AO integral compression algorithm  1   Integral accuracy      1.0D-16

     6.816 MB (compressed) written to integral file (100.0%)

     Node minimum: 6.816 MB, node maximum: 6.816 MB


 NUMBER OF SORTED TWO-ELECTRON INTEGRALS:     692076.     BUFFER LENGTH:  32768
 NUMBER OF SEGMENTS:   1  SEGMENT LENGTH:     692076      RECORD LENGTH: 524288

 Memory used in sort:       1.25 MW

 SORT1 READ      832256. AND WROTE      682150. INTEGRALS IN      2 RECORDS. CPU TIME:     0.00 SEC, REAL TIME:     0.01 SEC
 SORT2 READ      682150. AND WROTE      692076. INTEGRALS IN     26 RECORDS. CPU TIME:     0.02 SEC, REAL TIME:     0.02 SEC

 FILE SIZES:   FILE 1:     8.4 MBYTE,  FILE 4:     8.4 MBYTE,   TOTAL:     16.8 MBYTE

 OPERATOR DM      FOR CENTER  0  COORDINATES:    0.000000    0.000000    0.000000


 **********************************************************************************************************************************
 DATASETS  * FILE   NREC   LENGTH (MB)   RECORD NAMES
              1      19        8.40       500      610      700      900      950      970     1000      129      960     1100   
                                          VAR    BASINP    GEOM    SYMINP    ZMAT    AOBASIS   BASIS     P2S    ABASIS      S 
                                         1400     1410     1200     1210     1080     1600     1650     1300     1700   
                                           T        V       H0       H01     AOSYM     SMH    MOLCAS    ERIS     OPER   

 PROGRAMS   *        TOTAL       INT
 CPU TIMES  *         0.34      0.28
 REAL TIME  *         0.53 SEC
 DISK USED  *        24.24 MB      
 GA USED    *         0.00 MB       (max)       0.00 MB       (current)
 **********************************************************************************************************************************

1PROGRAM * RHF-SCF (CLOSED SHELL)       Authors: W. Meyer, H.-J. Werner


 NUMBER OF ELECTRONS:       9+    9-    SPACE SYMMETRY=1    SPIN SYMMETRY: Singlet 
 CONVERGENCE THRESHOLDS:    1.00E-10 (Density)    1.00E-13 (Energy)
 MAX. NUMBER OF ITERATIONS:      200
 INTERPOLATION TYPE:            DIIS
 INTERPOLATION STEPS:              2 (START)      1 (STEP)
 LEVEL SHIFTS:                  0.00 (CLOSED)  0.00 (OPEN) 



 Orbital guess generated from atomic densities. Full valence occupancy:   14

 Molecular orbital dump at record        2100.2

 ITERATION    DDIFF          GRAD             ENERGY        2-EL.EN.            DIPOLE MOMENTS         DIIS
    1      0.000D+00      0.000D+00      -115.01404787    164.279355   -0.50598   -0.90242   -0.00004    0
    2      0.000D+00      0.110D-01      -115.04240666    162.069645   -0.32371   -0.53617    0.00187    1
    3      0.205D-01      0.531D-02      -115.04847200    163.091699   -0.40823   -0.61174    0.00221    2
    4      0.640D-02      0.112D-02      -115.04893633    162.936198   -0.39776   -0.60064    0.00251    3
    5      0.204D-02      0.202D-03      -115.04895746    162.942554   -0.40054   -0.59636    0.00263    4
    6      0.434D-03      0.355D-04      -115.04895826    162.942688   -0.40083   -0.59616    0.00265    5
    7      0.931D-04      0.737D-05      -115.04895829    162.941498   -0.40096   -0.59600    0.00266    6
    8      0.150D-04      0.237D-05      -115.04895829    162.941880   -0.40100   -0.59597    0.00266    7
    9      0.502D-05      0.488D-06      -115.04895829    162.941839   -0.40101   -0.59597    0.00266    6
   10      0.140D-05      0.854D-07      -115.04895829    162.941838   -0.40101   -0.59597    0.00266    6
   11      0.230D-06      0.319D-07      -115.04895829    162.941843   -0.40101   -0.59597    0.00266    6
   12      0.572D-07      0.132D-07      -115.04895829    162.941841   -0.40101   -0.59597    0.00266    7
   13      0.245D-07      0.295D-08      -115.04895829    162.941841   -0.40101   -0.59597    0.00266    7
   14      0.736D-08      0.652D-09      -115.04895829    162.941841   -0.40101   -0.59597    0.00266    7
   15      0.168D-08      0.151D-09      -115.04895829    162.941841   -0.40101   -0.59597    0.00266    7
   16      0.336D-09      0.457D-10      -115.04895829    162.941841   -0.40101   -0.59597    0.00266    7
   17      0.896D-10      0.152D-10      -115.04895829    162.941841   -0.40101   -0.59597    0.00266    0

 Final occupancy:   9

 !RHF STATE 1.1 Energy               -115.048958291765
 Nuclear energy                        40.25473218
 One-electron energy                 -236.77461117
 Two-electron energy                   81.47092070
 Virial quotient                       -1.00097169
 !RHF STATE 1.1 Dipole moment          -0.40101144    -0.59597303     0.00265737
 Dipole moment /Debye                  -1.01920266    -1.51471314     0.00675392

 Orbital energies:

         1.1          2.1          3.1          4.1          5.1          6.1          7.1          8.1          9.1         10.1
    -20.550169   -11.274959    -1.348868    -0.921557    -0.682237    -0.613113    -0.583924    -0.497989    -0.443568     0.184532

        11.1
      0.224418


 **********************************************************************************************************************************
 DATASETS  * FILE   NREC   LENGTH (MB)   RECORD NAMES
              1      19        8.40       500      610      700      900      950      970     1000      129      960     1100   
                                          VAR    BASINP    GEOM    SYMINP    ZMAT    AOBASIS   BASIS     P2S    ABASIS      S 
                                         1400     1410     1200     1210     1080     1600     1650     1300     1700   
                                           T        V       H0       H01     AOSYM     SMH    MOLCAS    ERIS     OPER   

              2       3        0.39       700     1000     2100   
                                         GEOM     BASIS     RHF  

 PROGRAMS   *        TOTAL       RHF       INT
 CPU TIMES  *         0.44      0.10      0.28
 REAL TIME  *         0.66 SEC
 DISK USED  *        24.24 MB      
 GA USED    *         0.00 MB       (max)       0.00 MB       (current)
 **********************************************************************************************************************************


1PROGRAM * CCSD (Closed-shell coupled cluster)     Authors: C. Hampel, H.-J. Werner, 1991, M. Deegan, P.J. Knowles, 1992


 Convergence thresholds:  THRVAR = 1.00D-08  THRDEN = 1.00D-12

 CCSD(T)     terms to be evaluated (factor= 1.000)


 Number of core orbitals:           2 (   2 )
 Number of closed-shell orbitals:   7 (   7 )
 Number of external orbitals:      39 (  39 )

 Molecular orbitals read from record     2100.2  Type=RHF/CANONICAL (state 1.1)

 Number of N-1 electron functions:               7
 Number of N-2 electron functions:              28
 Number of singly external CSFs:               273
 Number of doubly external CSFs:             37401
 Total number of CSFs:                       37675

 Length of J-op  integral file:               0.00 MB
 Length of K-op  integral file:               0.19 MB
 Length of 3-ext integral record:             0.00 MB

 Memory could be reduced to 0.96 Mwords without degradation in triples

 Integral transformation finished. Total CPU:   0.01 sec, npass=  1  Memory used:   0.66 MW

 Reference energy:                   -115.04895829

 MP2 singlet pair energy:              -0.21874275
 MP2 triplet pair energy:              -0.11986804
 MP2 correlation energy:               -0.33861079
 MP2 total energy:                   -115.38756908

 SCS-MP2 correlation energy:           -0.33707586   (PS=  1.200000  PT=  0.333333)
 SCS-MP2 total energy:               -115.38603415

 ITER.      SQ.NORM     CORR.ENERGY   TOTAL ENERGY   ENERGY CHANGE        DEN1      VAR(S)    VAR(P)  DIIS     TIME
   1      1.10744418    -0.36139956  -115.41035785    -0.02278877    -0.01408924  0.92D-03  0.17D-02  1  1     0.06
   2      1.11598982    -0.36334677  -115.41230506    -0.00194721    -0.00926368  0.20D-04  0.16D-03  2  2     0.11
   3      1.11788419    -0.36347498  -115.41243327    -0.00012821    -0.00121099  0.96D-05  0.87D-05  3  3     0.16
   4      1.11840364    -0.36347352  -115.41243181     0.00000146    -0.00025665  0.34D-06  0.68D-06  4  4     0.20
   5      1.11850292    -0.36347391  -115.41243221    -0.00000039    -0.00003643  0.10D-06  0.50D-07  5  5     0.25
   6      1.11852222    -0.36347254  -115.41243083     0.00000138    -0.00000440  0.16D-07  0.42D-08  6  6     0.30
   7      1.11852702    -0.36347211  -115.41243040     0.00000042    -0.00000035  0.20D-08  0.73D-09  6  1     0.35
   8      1.11852830    -0.36347222  -115.41243051    -0.00000010     0.00000075  0.26D-09  0.73D-10  6  3     0.40
   9      1.11852938    -0.36347209  -115.41243038     0.00000013    -0.00000039  0.13D-10  0.11D-10  6  2     0.45
  10      1.11852930    -0.36347209  -115.41243038    -0.00000000     0.00000007  0.11D-11  0.89D-12  6  5     0.50
  11      1.11852934    -0.36347209  -115.41243038     0.00000000    -0.00000000  0.19D-12  0.51D-13  6  4     0.55
  12      1.11852932    -0.36347209  -115.41243038    -0.00000000     0.00000001  0.19D-13  0.10D-13  6  1     0.60
  13      1.11852932    -0.36347209  -115.41243038    -0.00000000    -0.00000000  0.25D-14  0.95D-15  6  6     0.65
  14      1.11852932    -0.36347209  -115.41243038     0.00000000    -0.00000000  0.25D-15  0.13D-15  6  3     0.69
  15      1.11852932    -0.36347209  -115.41243038    -0.00000000    -0.00000000  0.32D-16  0.17D-16  6  2     0.74
  16      1.11852932    -0.36347209  -115.41243038    -0.00000000    -0.00000000  0.75D-17  0.19D-17  6  5     0.79
  17      1.11852932    -0.36347209  -115.41243038    -0.00000000    -0.00000000  0.99D-18  0.31D-18  6  4     0.84
  18      1.11852932    -0.36347209  -115.41243038     0.00000000    -0.00000000  0.18D-18  0.63D-19  6  1     0.89
  19      1.11852932    -0.36347209  -115.41243038    -0.00000000    -0.00000000  0.31D-19  0.71D-20  6  6     0.94
  20      1.11852932    -0.36347209  -115.41243038     0.00000000     0.00000000  0.55D-20  0.14D-20  6  3     0.99

 Norm of t1 vector:      0.04182364      S-energy:    -0.00000000      T1 diagnostic:  0.00790392
                                                                       D1 diagnostic:  0.01768224


 Total CPU time for triples:      0.25 sec


 RESULTS
 =======

  Reference energy                   -115.048958291765
  CCSD singlet pair energy             -0.254722829459
  CCSD triplet pair energy             -0.108749262791
  CCSD correlation energy              -0.363472092251

  Triples (T) contribution             -0.007757017339
  Total correlation energy             -0.371229109590

  CCSD total energy                  -115.412430384016
  CCSD[T] energy                     -115.420479402057
  CCSD-T energy                      -115.420036435122
 !CCSD(T) total energy               -115.420187401355

 Timing summary (sec):

 STEP                 CPU(USER)    SYS     CPU(TOT)    WALL
 Transformation          0.01      0.01      0.02      0.04
 CCSD iterations         0.98      0.07      1.05      1.07
 Triples                 0.25      0.00      0.25      0.25

 Program statistics:

 Available memory in ccsd:               999999704
 Min. memory needed in ccsd:                136801
 Max. memory used in ccsd:                  163198
 Max. memory used in cckext:                182024 (20 integral passes)



 **********************************************************************************************************************************
 DATASETS  * FILE   NREC   LENGTH (MB)   RECORD NAMES
              1      20       10.94       500      610      700      900      950      970     1000      129      960     1100   
                                          VAR    BASINP    GEOM    SYMINP    ZMAT    AOBASIS   BASIS     P2S    ABASIS      S 
                                         1400     1410     1200     1210     1080     1600     1650     1300     1700     1380   
                                           T        V       H0       H01     AOSYM     SMH    MOLCAS    ERIS     OPER     JKOP   

              2       3        0.39       700     1000     2100   
                                         GEOM     BASIS     RHF  

 PROGRAMS   *        TOTAL   CCSD(T)       RHF       INT
 CPU TIMES  *         1.70      1.25      0.10      0.28
 REAL TIME  *         2.05 SEC
 DISK USED  *        25.67 MB      
 GA USED    *         0.00 MB       (max)       0.00 MB       (current)
 **********************************************************************************************************************************

        CCSD(T)         RHF-SCF 
   -115.42018740   -115.04895829
 **********************************************************************************************************************************
 Variable memory released
