
 Primary working directories    : /tmp/333988.46.gen4.q
 Secondary working directories  : /tmp/333988.46.gen4.q
 Wavefunction directory         : /home/vulcan/mel64643/wfu/
 Main file repository           : /tmp/333988.46.gen4.q/

 ARCHNAME  : Linux/x86_64
 FC        : /opt/intel/compilers_and_libraries_2016.1.150/linux/bin/intel64/ifort
 FCVERSION : 16.0.1
 BLASLIB   : -mkl
 id        : ccgc

 Nodes     nprocs
 n039         3
 Number of processes for MPI-2 version of Molpro:   nprocs(total)=    4   nprocs(compute)=    3   nprocs(helper)=    1
 ga_uses_ma=false, calling ma_init with nominal heap.
 GA-space will be limited to   8.0 MW (determined by -G option)

 Using customized tuning parameters: mindgm=10; mindgv=16; mindgc=4; mindgr=1; noblas=0; mincuda=1000; minvec=7
 default implementation of scratch files=sf  

 ***,Optimization of min3
 memory,1000,m
 gthresh,energy=1.0d-10,orbital=1.0d-10,oneint=1.0d-16,twoint=1.0d-16,optgrad=1.0d-6,compress=1.0d-13
 geomtyp=xyz
 
  bohr
  geometry = {
  12
  arbitrary comment
  C         -3.1016745928          1.5853813551          0.0193593623
  C         -0.8652382243         -0.0717893791         -0.6569532110
  C         -1.1187801941         -2.7796405156          0.2450456318
  O          1.3115498970          1.1050443469          0.5890484340
  O          3.4493449777          0.1200267835         -0.2518491677
  H         -4.8009215352          0.8397080997         -0.8791299472
  H         -2.8052105445          3.5275928931         -0.6026071052
  H         -3.3904574149          1.6130620485          2.0623718032
  H         -0.4570600568         -0.0021864097         -2.6772489778
  H         -2.7026911226         -3.6833215191         -0.7193042144
  H         -1.4580350381         -2.8339458690          2.2805172440
  H          0.6099945790         -3.8290540230         -0.1421914980
 }
 
 basis=cc-pvtz
 {rhf;maxit,200}
 {uccsd(t);maxit,200}

 Variables initialized (661), CPU time= 0.01 sec
 Commands  initialized (458), CPU time= 0.01 sec, 486 directives.
 Default parameters read. Elapsed time= 0.07 sec

 Checking input...
 Passed
1


                                         ***  PROGRAM SYSTEM MOLPRO  ***
                         Copyright, University College Cardiff Consultants Limited, 2008

                                    Version 2010.1 linked May 16 2016 07:17:05


 **********************************************************************************************************************************
 LABEL *   Optimization of min3                                                          
 Linux-4.4.3/n039(x86_64) 64 bit mpp version                                             DATE: 15-Jul-20          TIME: 17:32:08  
 **********************************************************************************************************************************

 SHA1:             9e8077add272b0f3cad6f7df79ec5211205f459d
 **********************************************************************************************************************************

 THRESHOLDS:

 ZERO    =  1.00D-12  ONEINT  =  1.00D-16  TWOINT  =  1.00D-16  PREFAC  =  1.00D-14  LOCALI  =  1.00D-09  EORDER  =  1.00D-04
 ENERGY  =  1.00D-10  ETEST   =  0.00D+00  EDENS   =  0.00D+00  THRDEDEF=  1.00D-06  GRADIENT=  1.00D-02  STEP    =  1.00D-03
 ORBITAL =  1.00D-10  CIVEC   =  1.00D-05  COEFF   =  1.00D-04  PRINTCI =  5.00D-02  PUNCHCI =  9.90D+01  OPTGRAD =  1.00D-06
 OPTENERG=  1.00D-06  OPTSTEP =  3.00D-04  THRGRAD =  1.00D-10  COMPRESS=  1.00D-13  VARMIN  =  1.00D-07  VARMAX  =  1.00D-03
 THRDOUB =  0.00D+00  THRDIV  =  1.00D-05  THRRED  =  1.00D-07  THRPSP  =  1.00D+00  THRDC   =  1.00D-10  THRCS   =  1.00D-10
 THRNRM  =  1.00D-08  THREQ   =  0.00D+00  THRDE   =  1.00D+00  THRREF  =  1.00D-05  SPARFAC =  1.00D+00  THRDLP  =  1.00D-07
 THRDIA  =  1.00D-10  THRDLS  =  1.00D-07  THRGPS  =  0.00D+00  THRKEX  =  0.00D+00  THRDIS  =  2.00D-01  THRVAR  =  1.00D-10
 THRLOC  =  1.00D-06  THRGAP  =  1.00D-06  THRLOCT = -1.00D+00  THRGAPT = -1.00D+00  THRORB  =  1.00D-06  THRMLTP =  0.00D+00
 THRCPQCI=  1.00D-10  KEXTA   =  0.00D+00  THRCOARS=  0.00D+00  SYMTOL  =  1.00D-06  GRADTOL =  1.00D-06  THROVL  =  1.00D-08
 THRORTH =  1.00D-08  GRID    =  1.00D-06  GRIDMAX =  1.00D-03  DTMAX   =  0.00D+00

 SETTING GEOMTYP        =    XYZ
 ZUNIT=BOHR
 

 Variable memory set to 1000000000 words,  buffer space   230000 words

 SETTING BASIS          =    CC-PVTZ


 Recomputing integrals since basis changed


 Using spherical harmonics

 Library entry C      S cc-pVTZ              selected for orbital group  1
 Library entry C      P cc-pVTZ              selected for orbital group  1
 Library entry C      D cc-pVTZ              selected for orbital group  1
 Library entry C      F cc-pVTZ              selected for orbital group  1
 Library entry O      S cc-pVTZ              selected for orbital group  2
 Library entry O      P cc-pVTZ              selected for orbital group  2
 Library entry O      D cc-pVTZ              selected for orbital group  2
 Library entry O      F cc-pVTZ              selected for orbital group  2
 Library entry H      S cc-pVTZ              selected for orbital group  3
 Library entry H      P cc-pVTZ              selected for orbital group  3
 Library entry H      D cc-pVTZ              selected for orbital group  3

1PROGRAM * SEWARD (Integral evaluation for generally contracted gaussian basis sets)     Author: Roland Lindh, 1990

 Geometry written to block  1 of record 700


 Point group  C1  



 ATOMIC COORDINATES

 NR  ATOM    CHARGE       X              Y              Z

   1  C       6.00   -3.101674593    1.585381355    0.019359362
   2  C       6.00   -0.865238224   -0.071789379   -0.656953211
   3  C       6.00   -1.118780194   -2.779640516    0.245045632
   4  O       8.00    1.311549897    1.105044347    0.589048434
   5  O       8.00    3.449344978    0.120026783   -0.251849168
   6  H       1.00   -4.800921535    0.839708100   -0.879129947
   7  H       1.00   -2.805210544    3.527592893   -0.602607105
   8  H       1.00   -3.390457415    1.613062049    2.062371803
   9  H       1.00   -0.457060057   -0.002186410   -2.677248978
  10  H       1.00   -2.702691123   -3.683321519   -0.719304214
  11  H       1.00   -1.458035038   -2.833945869    2.280517244
  12  H       1.00    0.609994579   -3.829054023   -0.142191498

 Bond lengths in Bohr (Angstrom)

 1-2  2.864482705  1-6  2.061735147  1-7  2.060805395  1-8  2.063507105  2-3  2.865369648
     ( 1.515818963)     ( 1.091023251)     ( 1.090531247)     ( 1.091960931)     ( 1.516288313)

  2- 4  2.770535010   2- 9  2.062292165   3-10  2.062858166   3-11  2.064264422   3-12  2.059097744
       ( 1.466103984)       ( 1.091318012)       ( 1.091617527)       ( 1.092361686)       ( 1.089627597)

 4-5  2.499507188
     ( 1.322682238)

 Bond angles

  1-2-3  113.78541485   1-2-4  105.15941463   1-2-9  111.48751728   2-1-6  109.35075369

  2- 1- 7  111.20196159   2- 1- 8  110.53515927   2- 3-10  109.55858772   2- 3-11  110.47543377

  2- 3-12  110.37357718   2- 4- 5  110.68904876   3- 2- 4  109.23028687   3- 2- 9  110.96459697

  4-2-9  105.70777488   6-1-7  109.14132979   6-1-8  108.72182190   7-1-8  107.83639998

 10- 3-11  108.85947210  10- 3-12  109.47955627  11- 3-12  108.06000664

 NUCLEAR CHARGE:                   41
 NUMBER OF PRIMITIVE AOS:         354
 NUMBER OF SYMMETRY AOS:          322
 NUMBER OF CONTRACTIONS:          248   ( 248A   )
 NUMBER OF CORE ORBITALS:           5   (   5A   )
 NUMBER OF VALENCE ORBITALS:       27   (  27A   )


 NUCLEAR REPULSION ENERGY  186.62276091


 Eigenvalues of metric

         1 0.808E-03 0.955E-03 0.110E-02 0.124E-02 0.137E-02 0.150E-02 0.159E-02 0.164E-02


 Contracted 2-electron integrals neglected if value below      1.0D-16
 AO integral compression algorithm  1   Integral accuracy      1.0D-16

     3372.483 MB (compressed) written to integral file ( 82.1%)

     Node minimum: 1077.412 MB, node maximum: 1175.978 MB


 NUMBER OF SORTED TWO-ELECTRON INTEGRALS:  158903334.     BUFFER LENGTH:  32768
 NUMBER OF SEGMENTS:  10  SEGMENT LENGTH:   15997437      RECORD LENGTH: 524288

 Memory used in sort:      16.55 MW

 SORT1 READ   513529852. AND WROTE   152632081. INTEGRALS IN    442 RECORDS. CPU TIME:    22.69 SEC, REAL TIME:    27.61 SEC
 SORT2 READ   459396532. AND WROTE   476679126. INTEGRALS IN  13458 RECORDS. CPU TIME:     2.71 SEC, REAL TIME:    16.04 SEC

 Node minimum:   158882750.  Node maximum:   158903334. integrals

 OPERATOR DM      FOR CENTER  0  COORDINATES:    0.000000    0.000000    0.000000


 **********************************************************************************************************************************
 DATASETS  * FILE   NREC   LENGTH (MB)   RECORD NAMES
              1      18        5.04       500      610      700      900      950      970     1000      129      960     1100   
                                          VAR    BASINP    GEOM    SYMINP    ZMAT    AOBASIS   BASIS     P2S    ABASIS      S 
                                         1400     1410     1200     1210     1080     1600     1650     1700   
                                           T        V       H0       H01     AOSYM     SMH    MOLCAS    OPER   

 PROGRAMS   *        TOTAL       INT
 CPU TIMES  *        32.92     32.81
 REAL TIME  *        52.53 SEC
 DISK USED  *         8.84 GB      
 GA USED    *         0.01 MB       (max)       0.00 MB       (current)
 **********************************************************************************************************************************

1PROGRAM * RHF-SCF (OPEN SHELL)       Authors: W. Meyer, H.-J. Werner


 NUMBER OF ELECTRONS:      21+   20-    SPACE SYMMETRY=1    SPIN SYMMETRY: Doublet 
 CONVERGENCE THRESHOLDS:    1.00E-10 (Density)    1.00E-11 (Energy)
 MAX. NUMBER OF ITERATIONS:      200
 INTERPOLATION TYPE:            DIIS
 INTERPOLATION STEPS:              2 (START)      1 (STEP)
 LEVEL SHIFTS:                 -0.30 (CLOSED)  0.00 (OPEN) 



 Orbital guess generated from atomic densities. Full valence occupancy:   32

 Molecular orbital dump at record        2100.2

 ITERATION    DDIFF          GRAD             ENERGY        2-EL.EN.            DIPOLE MOMENTS         DIIS
    1      0.000D+00      0.000D+00      -267.26102156    559.795166   -1.77120   -0.06652   -0.09121    0
    2      0.000D+00      0.326D-02      -267.33452905    562.641132   -1.01396   -0.42977   -0.35499    1
    3      0.471D-02      0.230D-02      -267.36105803    561.594948   -1.18780   -0.24147   -0.21278    2
    4      0.211D-02      0.546D-03      -267.36929073    561.781713   -0.97674   -0.31473   -0.29401    3
    5      0.926D-03      0.484D-03      -267.37351258    561.824266   -0.92135   -0.31703   -0.29848    4
    6      0.583D-03      0.272D-03      -267.37543969    561.791758   -0.88005   -0.31058   -0.29655    5
    7      0.485D-03      0.133D-03      -267.37577808    561.777590   -0.88988   -0.29903   -0.28848    6
    8      0.259D-03      0.356D-04      -267.37579985    561.774821   -0.88954   -0.29575   -0.28697    7
    9      0.843D-04      0.188D-04      -267.37581066    561.775067   -0.89205   -0.29629   -0.28703    8
   10      0.447D-04      0.822D-05      -267.37581248    561.774971   -0.89319   -0.29566   -0.28674    9
   11      0.199D-04      0.323D-05      -267.37581273    561.774907   -0.89383   -0.29549   -0.28657    9
   12      0.788D-05      0.149D-05      -267.37581279    561.775131   -0.89397   -0.29559   -0.28661    9
   13      0.371D-05      0.528D-06      -267.37581280    561.775186   -0.89398   -0.29565   -0.28664    9
   14      0.149D-05      0.299D-06      -267.37581280    561.775184   -0.89397   -0.29567   -0.28665    9
   15      0.819D-06      0.146D-06      -267.37581280    561.775191   -0.89397   -0.29567   -0.28665    9
   16      0.414D-06      0.737D-07      -267.37581280    561.775194   -0.89396   -0.29568   -0.28665    9
   17      0.170D-06      0.327D-07      -267.37581280    561.775189   -0.89396   -0.29567   -0.28665    9
   18      0.102D-06      0.181D-07      -267.37581280    561.775186   -0.89396   -0.29567   -0.28665    9
   19      0.539D-07      0.846D-08      -267.37581280    561.775188   -0.89396   -0.29567   -0.28665    9
   20      0.305D-07      0.487D-08      -267.37581280    561.775188   -0.89396   -0.29567   -0.28665    9
   21      0.220D-07      0.397D-08      -267.37581280    561.775188   -0.89396   -0.29567   -0.28665    9
   22      0.231D-07      0.342D-08      -267.37581280    561.775188   -0.89396   -0.29567   -0.28665    9
   23      0.310D-07      0.265D-08      -267.37581280    561.775188   -0.89396   -0.29567   -0.28665    9
   24      0.427D-07      0.186D-08      -267.37581280    561.775188   -0.89396   -0.29567   -0.28665    9
   25      0.376D-07      0.958D-09      -267.37581280    561.775189   -0.89396   -0.29567   -0.28665    9
   26      0.206D-07      0.397D-09      -267.37581280    561.775189   -0.89396   -0.29567   -0.28665    9
   27      0.390D-08      0.190D-09      -267.37581280    561.775189   -0.89396   -0.29567   -0.28665    9
   28      0.119D-08      0.885D-10      -267.37581280    561.775189   -0.89396   -0.29567   -0.28665    9
   29      0.620D-09      0.426D-10      -267.37581280    561.775189   -0.89396   -0.29567   -0.28665    9
   30      0.123D-09      0.193D-10      -267.37581280    561.775189   -0.89396   -0.29567   -0.28665    9
   31      0.604D-10      0.143D-10      -267.37581280    561.775189   -0.89396   -0.29567   -0.28665    0

 Final alpha occupancy:  21
 Final beta  occupancy:  20

 !RHF STATE 1.1 Energy               -267.375812800130
 Nuclear energy                       186.62276091
 One-electron energy                 -734.88616805
 Two-electron energy                  280.88759434
 Virial quotient                       -1.00116556
 !RHF STATE 1.1 Dipole moment          -0.89396026    -0.29567267    -0.28664786
 Dipole moment /Debye                  -2.27207152    -0.75147574    -0.72853848

 Orbital energies:

         1.1          2.1          3.1          4.1          5.1          6.1          7.1          8.1          9.1         10.1
    -20.648566   -20.640220   -11.297588   -11.229094   -11.225492    -1.523295    -1.170668    -1.034634    -0.952974    -0.819512

        11.1         12.1         13.1         14.1         15.1         16.1         17.1         18.1         19.1         20.1
     -0.695142    -0.668023    -0.652331    -0.594529    -0.563371    -0.557418    -0.545512    -0.501162    -0.489659    -0.464930

        21.1         22.1         23.1
     -0.562742     0.137732     0.174774


 **********************************************************************************************************************************
 DATASETS  * FILE   NREC   LENGTH (MB)   RECORD NAMES
              1      18        5.04       500      610      700      900      950      970     1000      129      960     1100   
                                          VAR    BASINP    GEOM    SYMINP    ZMAT    AOBASIS   BASIS     P2S    ABASIS      S 
                                         1400     1410     1200     1210     1080     1600     1650     1700   
                                           T        V       H0       H01     AOSYM     SMH    MOLCAS    OPER   

              2       3        2.21       700     1000     2100   
                                         GEOM     BASIS     RHF  

 PROGRAMS   *        TOTAL       RHF       INT
 CPU TIMES  *       104.60     71.68     32.81
 REAL TIME  *       128.99 SEC
 DISK USED  *         8.89 GB      
 SF USED    *         0.25 MB      
 GA USED    *         0.01 MB       (max)       0.00 MB       (current)
 **********************************************************************************************************************************


1PROGRAM * CCSD (Unrestricted open-shell coupled cluster)     Authors: C. Hampel, H.-J. Werner, 1991, M. Deegan, P.J. Knowles, 1992


 Convergence thresholds:  THRVAR = 1.00D-08  THRDEN = 1.00D-10

 CCSD(T)     terms to be evaluated (factor= 1.000)


 Number of core orbitals:           5 (   5 )
 Number of closed-shell orbitals:  15 (  15 )
 Number of active  orbitals:        1 (   1 )
 Number of external orbitals:     227 ( 227 )

 Memory could be reduced to 332.02 Mwords without degradation in triples

 Number of N-1 electron functions:              31
 Number of N-2 electron functions:             465
 Number of singly external CSFs:              7068
 Number of doubly external CSFs:          18353430
 Total number of CSFs:                    18360498

 Molecular orbitals read from record     2100.2  Type=RHF/CANONICAL (state 1.1)

 Integral transformation finished. Total CPU:  48.81 sec, npass=  1  Memory used: 145.25 MW

 Starting RMP2 calculation

 ITER.      SQ.NORM     CORR.ENERGY   TOTAL ENERGY   ENERGY CHANGE        DEN1      VAR(S)    VAR(P)  DIIS     TIME
   1      1.26539674    -0.96765246  -268.34346526    -0.96765246    -0.00323689  0.26D-04  0.11D-02  1  1    55.24
   2      1.26818233    -0.97114257  -268.34695537    -0.00349011    -0.00000666  0.10D-05  0.23D-05  2  2    59.73
   3      1.26826231    -0.97119550  -268.34700830    -0.00005293    -0.00000008  0.54D-07  0.11D-07  3  3    65.06
   4      1.26826402    -0.97119531  -268.34700811     0.00000019    -0.00000000  0.16D-08  0.12D-09  4  4    69.43
   5      1.26826428    -0.97119540  -268.34700820    -0.00000009    -0.00000000  0.19D-10  0.46D-11  5  5    73.83
   6      1.26826434    -0.97119543  -268.34700823    -0.00000003    -0.00000000  0.50D-13  0.56D-13  6  6    78.39
   7      1.26826434    -0.97119543  -268.34700823     0.00000000    -0.00000000  0.15D-14  0.85D-15  6  1    82.93
   8      1.26826434    -0.97119543  -268.34700823     0.00000000    -0.00000000  0.16D-16  0.79D-17  6  2    87.53
   9      1.26826434    -0.97119543  -268.34700823    -0.00000000    -0.00000000  0.31D-18  0.10D-18  6  3    91.98

 Norm of t1 vector:      0.04590516      S-energy:    -0.00446879      T1 diagnostic:  0.00074441
 Norm of t2 vector:      0.51590411      P-energy:    -0.96672664
                                         Alpha-Beta:  -0.73711597
                                         Alpha-Alpha: -0.11899253
                                         Beta-Beta:   -0.11061814

 Spin contamination <S**2-Sz**2-Sz>     0.00145507
  Reference energy                   -267.375812800125
  RHF-RMP2 correlation energy          -0.971195430454
 !RHF-RMP2 energy                    -268.347008230579

 Starting UCCSD calculation

 ITER.      SQ.NORM     CORR.ENERGY   TOTAL ENERGY   ENERGY CHANGE        DEN1      VAR(S)    VAR(P)  DIIS     TIME
   1      1.27986232    -0.97929375  -268.35510655    -0.97929375    -0.02934325  0.65D-02  0.54D-02  1  1   207.86
   2      1.30627686    -1.00592467  -268.38173747    -0.02663092    -0.00363795  0.62D-03  0.97D-03  2  2   315.98
   3      1.32294198    -1.01275278  -268.38856558    -0.00682811    -0.00091295  0.75D-03  0.76D-04  3  3   424.58
   4      1.33419564    -1.01541457  -268.39122737    -0.00266179    -0.00038557  0.31D-03  0.33D-04  4  4   533.41
   5      1.34928936    -1.01741382  -268.39322662    -0.00199925    -0.00011803  0.10D-03  0.90D-05  5  5   642.09
   6      1.36083671    -1.01843788  -268.39425068    -0.00102406    -0.00001813  0.93D-05  0.32D-05  6  6   751.46
   7      1.36452653    -1.01867829  -268.39449109    -0.00024041    -0.00000317  0.16D-05  0.61D-06  6  1   860.37
   8      1.36513193    -1.01872050  -268.39453330    -0.00004221    -0.00000067  0.27D-06  0.15D-06  6  2   969.31
   9      1.36545297    -1.01873899  -268.39455179    -0.00001848    -0.00000015  0.66D-07  0.32D-07  6  4  1078.29
  10      1.36543942    -1.01873771  -268.39455051     0.00000127    -0.00000002  0.11D-07  0.43D-08  6  3  1187.36
  11      1.36550213    -1.01874283  -268.39455563    -0.00000511    -0.00000000  0.24D-08  0.95D-09  6  5  1296.33
  12      1.36549460    -1.01874033  -268.39455313     0.00000249    -0.00000000  0.10D-08  0.21D-09  6  6  1405.25
  13      1.36549022    -1.01873918  -268.39455198     0.00000115    -0.00000000  0.62D-09  0.56D-10  6  1  1514.33
  14      1.36547740    -1.01873769  -268.39455049     0.00000149    -0.00000000  0.41D-09  0.21D-10  6  2  1623.89
  15      1.36547148    -1.01873698  -268.39454978     0.00000071    -0.00000000  0.33D-09  0.16D-10  6  3  1732.87
  16      1.36546851    -1.01873681  -268.39454961     0.00000016    -0.00000000  0.25D-09  0.13D-10  6  4  1843.06
  17      1.36546784    -1.01873682  -268.39454962    -0.00000000    -0.00000000  0.13D-09  0.13D-10  6  5  1951.95
  18      1.36547043    -1.01873698  -268.39454978    -0.00000017    -0.00000000  0.28D-10  0.55D-11  6  6  2061.10
  19      1.36547357    -1.01873730  -268.39455010    -0.00000032    -0.00000000  0.27D-11  0.17D-11  6  2  2170.10
  20      1.36547301    -1.01873717  -268.39454997     0.00000013    -0.00000000  0.65D-12  0.18D-12  6  1  2280.26
  21      1.36547331    -1.01873721  -268.39455001    -0.00000005    -0.00000000  0.23D-12  0.61D-13  6  4  2389.24
  22      1.36547322    -1.01873720  -268.39455000     0.00000001    -0.00000000  0.78D-13  0.20D-13  6  2  2498.65
  23      1.36547331    -1.01873721  -268.39455001    -0.00000001    -0.00000000  0.22D-13  0.41D-14  6  3  2608.57
  24      1.36547324    -1.01873720  -268.39455000     0.00000001    -0.00000000  0.23D-14  0.74D-15  6  5  2718.57
  25      1.36547323    -1.01873720  -268.39455000     0.00000000    -0.00000000  0.64D-15  0.21D-15  6  6  2827.58
  26      1.36547322    -1.01873720  -268.39455000     0.00000000    -0.00000000  0.30D-15  0.73D-16  6  1  2936.48
  27      1.36547322    -1.01873720  -268.39455000    -0.00000000    -0.00000000  0.18D-15  0.17D-16  6  4  3045.59
  28      1.36547322    -1.01873720  -268.39455000    -0.00000000    -0.00000000  0.13D-15  0.77D-17  6  2  3154.81
  29      1.36547322    -1.01873720  -268.39455000    -0.00000000    -0.00000000  0.10D-15  0.55D-17  6  3  3264.81
  30      1.36547322    -1.01873720  -268.39455000     0.00000000    -0.00000000  0.60D-16  0.48D-17  6  5  3373.70

 Norm of t1 vector:      0.23133449      S-energy:    -0.00501628      T1 diagnostic:  0.02850660
                                                                       D1 diagnostic:  0.14607959
 Norm of t2 vector:      0.55853162      P-energy:    -1.01372092
                                         Alpha-Beta:  -0.80141215
                                         Alpha-Alpha: -0.10868214
                                         Beta-Beta:   -0.10362663

 Singles amplitudes (print threshold =  0.500E-01):

         I         SYM. A    A   T(IA) [Beta-Beta]

         8         1         1     -0.09708725
         9         1         1      0.09851946
        12         1         1     -0.07834351
        14         1         1     -0.11090109

 Spin contamination <S**2-Sz**2-Sz>     0.00176294

 Memory could be reduced to 360.52 Mwords without degradation in triples
 

 RESULTS
 =======

  Reference energy                   -267.375812800125
  UCCSD singles energy                 -0.005016279307
  UCCSD pair energy                    -1.013720920948
  UCCSD correlation energy             -1.018737200255
  Triples (T) contribution             -0.040841836907
  Total correlation energy             -1.059579037162
 
  RHF-UCCSD energy                   -268.394550000380
  RHF-UCCSD[T] energy                -268.438717337016
  RHF-UCCSD-T energy                 -268.434894113482
 !RHF-UCCSD(T) energy                -268.435391837287

 Program statistics:

 Available memory in ccsd:               999997692
 Min. memory needed in ccsd:              51505734
 Max. memory used in ccsd:                74803578
 Max. memory used in cckext:              59475747 (30 integral passes)
 Max. memory used in cckint:             145249478 ( 1 integral passes)



 **********************************************************************************************************************************
 DATASETS  * FILE   NREC   LENGTH (MB)   RECORD NAMES
              1      18        5.04       500      610      700      900      950      970     1000      129      960     1100   
                                          VAR    BASINP    GEOM    SYMINP    ZMAT    AOBASIS   BASIS     P2S    ABASIS      S 
                                         1400     1410     1200     1210     1080     1600     1650     1700   
                                           T        V       H0       H01     AOSYM     SMH    MOLCAS    OPER   

              2       3        2.21       700     1000     2100   
                                         GEOM     BASIS     RHF  

 PROGRAMS   *        TOTAL  UCCSD(T)       RHF       INT
 CPU TIMES  *      5571.52   5466.92     71.68     32.81
 REAL TIME  *      5712.39 SEC
 DISK USED  *        15.86 GB      
 SF USED    *         6.57 GB      
 GA USED    *         0.01 MB       (max)       0.00 MB       (current)
 **********************************************************************************************************************************

        UCCSD(T)        RHF-SCF 
   -268.43539184   -267.37581280
 **********************************************************************************************************************************
 Variable memory released
