
 Primary working directories    : /tmp/601555.67.gen6.q
 Secondary working directories  : /tmp/601555.67.gen6.q
 Wavefunction directory         : /home/vulcan/mel64643/wfu/
 Main file repository           : /tmp/601555.67.gen6.q/

 ARCHNAME  : Linux/x86_64
 FC        : /opt/intel/compilers_and_libraries_2016.1.150/linux/bin/intel64/ifort
 FCVERSION : 16.0.1
 BLASLIB   : -mkl
 id        : ccgc

 Nodes     nprocs
 n079         1
 ga_uses_ma=false, calling ma_init with nominal heap.
 GA-space will be limited to   8.0 MW (determined by -G option)

 Using customized tuning parameters: mindgm=10; mindgv=16; mindgc=4; mindgr=1; noblas=0; mincuda=1000; minvec=7
 default implementation of scratch files=df  

 ***,Optimization of min3
 memory,1000,m
 gthresh,energy=1.0d-12,orbital=1.0d-10,oneint=1.0d-16,twoint=1.0d-16,optgrad=1.0d-6,compress=1.0d-13
 geomtyp=xyz
 
  bohr
  geometry = {
  6
  arbitrary comment
  C   -1.3716031906   -0.0241091124    0.0027189057
  O    1.3041342891    0.1234573628   -0.0009092933
  H   -2.0779627046    1.9079412717   -0.0010037281
  H   -2.1028089238   -0.9802422353    1.6813970092
  H   -2.1026230071   -0.9796617172   -1.6824172509
  H    1.9271393770   -1.5775176895    0.0002059475
 }
 
 basis=cc-pvdz
 {rhf;maxit,200}
 {ccsd(t);maxit,200}

 Variables initialized (661), CPU time= 0.01 sec
 Commands  initialized (458), CPU time= 0.00 sec, 486 directives.
 Default parameters read. Elapsed time= 0.04 sec

 Checking input...
 Passed
1


                                         ***  PROGRAM SYSTEM MOLPRO  ***
                         Copyright, University College Cardiff Consultants Limited, 2008

                                    Version 2010.1 linked May 16 2016 07:17:05


 **********************************************************************************************************************************
 LABEL *   Optimization of min3                                                          
 Linux-4.4.3/n079(x86_64) 64 bit mpp version                                             DATE: 06-Nov-21          TIME: 15:39:16  
 **********************************************************************************************************************************

 SHA1:             9e8077add272b0f3cad6f7df79ec5211205f459d
 **********************************************************************************************************************************

 THRESHOLDS:

 ZERO    =  1.00D-12  ONEINT  =  1.00D-16  TWOINT  =  1.00D-16  PREFAC  =  1.00D-14  LOCALI  =  1.00D-09  EORDER  =  1.00D-04
 ENERGY  =  1.00D-12  ETEST   =  0.00D+00  EDENS   =  0.00D+00  THRDEDEF=  1.00D-06  GRADIENT=  1.00D-02  STEP    =  1.00D-03
 ORBITAL =  1.00D-10  CIVEC   =  1.00D-05  COEFF   =  1.00D-04  PRINTCI =  5.00D-02  PUNCHCI =  9.90D+01  OPTGRAD =  1.00D-06
 OPTENERG=  1.00D-06  OPTSTEP =  3.00D-04  THRGRAD =  1.00D-10  COMPRESS=  1.00D-13  VARMIN  =  1.00D-07  VARMAX  =  1.00D-03
 THRDOUB =  0.00D+00  THRDIV  =  1.00D-05  THRRED  =  1.00D-07  THRPSP  =  1.00D+00  THRDC   =  1.00D-10  THRCS   =  1.00D-10
 THRNRM  =  1.00D-08  THREQ   =  0.00D+00  THRDE   =  1.00D+00  THRREF  =  1.00D-05  SPARFAC =  1.00D+00  THRDLP  =  1.00D-07
 THRDIA  =  1.00D-10  THRDLS  =  1.00D-07  THRGPS  =  0.00D+00  THRKEX  =  0.00D+00  THRDIS  =  2.00D-01  THRVAR  =  1.00D-10
 THRLOC  =  1.00D-06  THRGAP  =  1.00D-06  THRLOCT = -1.00D+00  THRGAPT = -1.00D+00  THRORB  =  1.00D-06  THRMLTP =  0.00D+00
 THRCPQCI=  1.00D-10  KEXTA   =  0.00D+00  THRCOARS=  0.00D+00  SYMTOL  =  1.00D-06  GRADTOL =  1.00D-06  THROVL  =  1.00D-08
 THRORTH =  1.00D-08  GRID    =  1.00D-06  GRIDMAX =  1.00D-03  DTMAX   =  0.00D+00

 SETTING GEOMTYP        =    XYZ
 ZUNIT=BOHR
 

 Variable memory set to 1000000000 words,  buffer space   230000 words

 SETTING BASIS          =    CC-PVDZ


 Recomputing integrals since basis changed


 Using spherical harmonics

 Library entry C      S cc-pVDZ              selected for orbital group  1
 Library entry C      P cc-pVDZ              selected for orbital group  1
 Library entry C      D cc-pVDZ              selected for orbital group  1
 Library entry O      S cc-pVDZ              selected for orbital group  2
 Library entry O      P cc-pVDZ              selected for orbital group  2
 Library entry O      D cc-pVDZ              selected for orbital group  2
 Library entry H      S cc-pVDZ              selected for orbital group  3
 Library entry H      P cc-pVDZ              selected for orbital group  3

1PROGRAM * SEWARD (Integral evaluation for generally contracted gaussian basis sets)     Author: Roland Lindh, 1990

 Geometry written to block  1 of record 700


 Point group  C1  



 ATOMIC COORDINATES

 NR  ATOM    CHARGE       X              Y              Z

   1  C       6.00   -1.371603191   -0.024109112    0.002718906
   2  O       8.00    1.304134289    0.123457363   -0.000909293
   3  H       1.00   -2.077962705    1.907941272   -0.001003728
   4  H       1.00   -2.102808924   -0.980242235    1.681397009
   5  H       1.00   -2.102623007   -0.979661717   -1.682417251
   6  H       1.00    1.927139377   -1.577517690    0.000205948

 Bond lengths in Bohr (Angstrom)

 1-2  2.679805980  1-3  2.057128170  1-4  2.065626430  1-5  2.070544522  2-6  1.811478046
     ( 1.418092249)     ( 1.088585344)     ( 1.093082429)     ( 1.095684971)     ( 0.958592897)

 Bond angles

  1-2-6  106.95921477   2-1-3  106.92561557   2-1-4  112.33610752   2-1-5  112.13757475

  3-1-4  108.34001569   3-1-5  108.10357013   4-1-5  108.83281447

 NUCLEAR CHARGE:                   18
 NUMBER OF PRIMITIVE AOS:          82
 NUMBER OF SYMMETRY AOS:           80
 NUMBER OF CONTRACTIONS:           48   (  48A   )
 NUMBER OF CORE ORBITALS:           2   (   2A   )
 NUMBER OF VALENCE ORBITALS:       12   (  12A   )


 NUCLEAR REPULSION ENERGY   40.36672921


 Eigenvalues of metric

         1 0.964E-02 0.176E-01 0.368E-01 0.374E-01 0.381E-01 0.473E-01 0.477E-01 0.516E-01


 Contracted 2-electron integrals neglected if value below      1.0D-16
 AO integral compression algorithm  1   Integral accuracy      1.0D-16

     6.816 MB (compressed) written to integral file (100.0%)

     Node minimum: 6.816 MB, node maximum: 6.816 MB


 NUMBER OF SORTED TWO-ELECTRON INTEGRALS:     692076.     BUFFER LENGTH:  32768
 NUMBER OF SEGMENTS:   1  SEGMENT LENGTH:     692076      RECORD LENGTH: 524288

 Memory used in sort:       1.25 MW

 SORT1 READ      832256. AND WROTE      682150. INTEGRALS IN      2 RECORDS. CPU TIME:     0.00 SEC, REAL TIME:     0.01 SEC
 SORT2 READ      682150. AND WROTE      692076. INTEGRALS IN     26 RECORDS. CPU TIME:     0.02 SEC, REAL TIME:     0.02 SEC

 FILE SIZES:   FILE 1:     8.4 MBYTE,  FILE 4:     8.4 MBYTE,   TOTAL:     16.8 MBYTE

 OPERATOR DM      FOR CENTER  0  COORDINATES:    0.000000    0.000000    0.000000


 **********************************************************************************************************************************
 DATASETS  * FILE   NREC   LENGTH (MB)   RECORD NAMES
              1      19        8.40       500      610      700      900      950      970     1000      129      960     1100   
                                          VAR    BASINP    GEOM    SYMINP    ZMAT    AOBASIS   BASIS     P2S    ABASIS      S 
                                         1400     1410     1200     1210     1080     1600     1650     1300     1700   
                                           T        V       H0       H01     AOSYM     SMH    MOLCAS    ERIS     OPER   

 PROGRAMS   *        TOTAL       INT
 CPU TIMES  *         0.19      0.15
 REAL TIME  *         0.37 SEC
 DISK USED  *        24.23 MB      
 GA USED    *         0.00 MB       (max)       0.00 MB       (current)
 **********************************************************************************************************************************

1PROGRAM * RHF-SCF (CLOSED SHELL)       Authors: W. Meyer, H.-J. Werner


 NUMBER OF ELECTRONS:       9+    9-    SPACE SYMMETRY=1    SPIN SYMMETRY: Singlet 
 CONVERGENCE THRESHOLDS:    1.00E-10 (Density)    1.00E-13 (Energy)
 MAX. NUMBER OF ITERATIONS:      200
 INTERPOLATION TYPE:            DIIS
 INTERPOLATION STEPS:              2 (START)      1 (STEP)
 LEVEL SHIFTS:                  0.00 (CLOSED)  0.00 (OPEN) 



 Orbital guess generated from atomic densities. Full valence occupancy:   14

 Molecular orbital dump at record        2100.2

 ITERATION    DDIFF          GRAD             ENERGY        2-EL.EN.            DIPOLE MOMENTS         DIIS
    1      0.000D+00      0.000D+00      -115.01427492    164.493321   -0.49512   -0.90161    0.00089    0
    2      0.000D+00      0.110D-01      -115.04267319    162.275728   -0.31616   -0.53563    0.00131    1
    3      0.205D-01      0.529D-02      -115.04868591    163.298948   -0.39972   -0.61118    0.00173    2
    4      0.638D-02      0.112D-02      -115.04914937    163.142734   -0.38955   -0.60006    0.00188    3
    5      0.204D-02      0.202D-03      -115.04917040    163.149231   -0.39240   -0.59579    0.00195    4
    6      0.433D-03      0.355D-04      -115.04917119    163.149367   -0.39271   -0.59559    0.00196    5
    7      0.930D-04      0.737D-05      -115.04917123    163.148184   -0.39285   -0.59542    0.00196    6
    8      0.150D-04      0.237D-05      -115.04917123    163.148567   -0.39288   -0.59540    0.00196    7
    9      0.503D-05      0.492D-06      -115.04917123    163.148525   -0.39290   -0.59540    0.00196    6
   10      0.141D-05      0.877D-07      -115.04917123    163.148524   -0.39290   -0.59540    0.00196    6
   11      0.235D-06      0.327D-07      -115.04917123    163.148530   -0.39290   -0.59540    0.00196    6
   12      0.587D-07      0.137D-07      -115.04917123    163.148528   -0.39290   -0.59540    0.00196    7
   13      0.256D-07      0.300D-08      -115.04917123    163.148528   -0.39290   -0.59540    0.00196    7
   14      0.750D-08      0.651D-09      -115.04917123    163.148528   -0.39290   -0.59540    0.00196    7
   15      0.167D-08      0.150D-09      -115.04917123    163.148528   -0.39290   -0.59540    0.00196    7
   16      0.334D-09      0.453D-10      -115.04917123    163.148528   -0.39290   -0.59540    0.00196    7
   17      0.879D-10      0.164D-10      -115.04917123    163.148528   -0.39290   -0.59540    0.00196    7
   18      0.419D-10      0.307D-11      -115.04917123    163.148528   -0.39290   -0.59540    0.00196    7
   19      0.712D-11      0.754D-12      -115.04917123    163.148528   -0.39290   -0.59540    0.00196    7
   20      0.182D-11      0.331D-12      -115.04917123    163.148528   -0.39290   -0.59540    0.00196    7
   21      0.598D-12      0.110D-12      -115.04917123    163.148528   -0.39290   -0.59540    0.00196    7
   22      0.232D-12      0.367D-13      -115.04917123    163.148528   -0.39290   -0.59540    0.00196    7
   23      0.907D-13      0.187D-13      -115.04917123    163.148528   -0.39290   -0.59540    0.00196    8
   24      0.418D-13      0.104D-13      -115.04917123    163.148528   -0.39290   -0.59540    0.00196    8
   25      0.230D-13      0.114D-13      -115.04917123    163.148528   -0.39290   -0.59540    0.00196    9
   26      0.139D-13      0.922D-14      -115.04917123    163.148528   -0.39290   -0.59540    0.00196    9
   27      0.111D-13      0.599D-14      -115.04917123    163.148528   -0.39290   -0.59540    0.00196    0

 Final occupancy:   9

 !RHF STATE 1.1 Energy               -115.049171228900
 Nuclear energy                        40.36672921
 One-electron energy                 -236.99016438
 Two-electron energy                   81.57426394
 Virial quotient                       -1.00083688
 !RHF STATE 1.1 Dipole moment          -0.39290130    -0.59539959     0.00196431
 Dipole moment /Debye                  -0.99859008    -1.51325569     0.00499246

 Orbital energies:

         1.1          2.1          3.1          4.1          5.1          6.1          7.1          8.1          9.1         10.1
    -20.550034   -11.274310    -1.351431    -0.921176    -0.683635    -0.614432    -0.585424    -0.497368    -0.443009     0.184470

        11.1
      0.224813


 **********************************************************************************************************************************
 DATASETS  * FILE   NREC   LENGTH (MB)   RECORD NAMES
              1      19        8.40       500      610      700      900      950      970     1000      129      960     1100   
                                          VAR    BASINP    GEOM    SYMINP    ZMAT    AOBASIS   BASIS     P2S    ABASIS      S 
                                         1400     1410     1200     1210     1080     1600     1650     1300     1700   
                                           T        V       H0       H01     AOSYM     SMH    MOLCAS    ERIS     OPER   

              2       3        0.39       700     1000     2100   
                                         GEOM     BASIS     RHF  

 PROGRAMS   *        TOTAL       RHF       INT
 CPU TIMES  *         0.28      0.09      0.15
 REAL TIME  *         0.52 SEC
 DISK USED  *        24.23 MB      
 GA USED    *         0.00 MB       (max)       0.00 MB       (current)
 **********************************************************************************************************************************


1PROGRAM * CCSD (Closed-shell coupled cluster)     Authors: C. Hampel, H.-J. Werner, 1991, M. Deegan, P.J. Knowles, 1992


 Convergence thresholds:  THRVAR = 1.00D-08  THRDEN = 1.00D-12

 CCSD(T)     terms to be evaluated (factor= 1.000)


 Number of core orbitals:           2 (   2 )
 Number of closed-shell orbitals:   7 (   7 )
 Number of external orbitals:      39 (  39 )

 Molecular orbitals read from record     2100.2  Type=RHF/CANONICAL (state 1.1)

 Number of N-1 electron functions:               7
 Number of N-2 electron functions:              28
 Number of singly external CSFs:               273
 Number of doubly external CSFs:             37401
 Total number of CSFs:                       37675

 Length of J-op  integral file:               0.00 MB
 Length of K-op  integral file:               0.19 MB
 Length of 3-ext integral record:             0.00 MB

 Memory could be reduced to 0.96 Mwords without degradation in triples

 Integral transformation finished. Total CPU:   0.02 sec, npass=  1  Memory used:   0.66 MW

 Reference energy:                   -115.04917123

 MP2 singlet pair energy:              -0.21857541
 MP2 triplet pair energy:              -0.11984273
 MP2 correlation energy:               -0.33841814
 MP2 total energy:                   -115.38758937

 SCS-MP2 correlation energy:           -0.33685930   (PS=  1.200000  PT=  0.333333)
 SCS-MP2 total energy:               -115.38603053

 ITER.      SQ.NORM     CORR.ENERGY   TOTAL ENERGY   ENERGY CHANGE        DEN1      VAR(S)    VAR(P)  DIIS     TIME
   1      1.10723123    -0.36121301  -115.41038424    -0.02279487    -0.01412924  0.91D-03  0.17D-02  1  1     0.04
   2      1.11573496    -0.36315315  -115.41232438    -0.00194014    -0.00923702  0.20D-04  0.16D-03  2  2     0.08
   3      1.11760579    -0.36327957  -115.41245080    -0.00012642    -0.00119885  0.94D-05  0.85D-05  3  3     0.11
   4      1.11811733    -0.36327819  -115.41244942     0.00000138    -0.00025364  0.32D-06  0.67D-06  4  4     0.14
   5      1.11821428    -0.36327861  -115.41244983    -0.00000042    -0.00003573  0.97D-07  0.48D-07  5  5     0.18
   6      1.11823296    -0.36327727  -115.41244850     0.00000134    -0.00000431  0.15D-07  0.40D-08  6  6     0.21
   7      1.11823760    -0.36327686  -115.41244809     0.00000041    -0.00000035  0.20D-08  0.70D-09  6  1     0.24
   8      1.11823884    -0.36327696  -115.41244819    -0.00000010     0.00000074  0.25D-09  0.70D-10  6  3     0.28
   9      1.11823989    -0.36327684  -115.41244807     0.00000012    -0.00000038  0.12D-10  0.10D-10  6  2     0.31
  10      1.11823981    -0.36327684  -115.41244807    -0.00000000     0.00000007  0.11D-11  0.85D-12  6  5     0.34
  11      1.11823985    -0.36327684  -115.41244807     0.00000000    -0.00000000  0.18D-12  0.49D-13  6  4     0.37
  12      1.11823983    -0.36327684  -115.41244807    -0.00000000     0.00000001  0.18D-13  0.96D-14  6  1     0.40
  13      1.11823983    -0.36327684  -115.41244807    -0.00000000    -0.00000000  0.23D-14  0.90D-15  6  6     0.44
  14      1.11823983    -0.36327684  -115.41244807     0.00000000    -0.00000000  0.22D-15  0.12D-15  6  3     0.47
  15      1.11823983    -0.36327684  -115.41244807    -0.00000000    -0.00000000  0.24D-16  0.16D-16  6  2     0.50
  16      1.11823983    -0.36327684  -115.41244807    -0.00000000    -0.00000000  0.54D-17  0.16D-17  6  5     0.53
  17      1.11823983    -0.36327684  -115.41244807    -0.00000000    -0.00000000  0.52D-18  0.24D-18  6  4     0.56
  18      1.11823983    -0.36327684  -115.41244807     0.00000000    -0.00000000  0.83D-19  0.41D-19  6  1     0.59
  19      1.11823983    -0.36327684  -115.41244807    -0.00000000    -0.00000000  0.97D-20  0.42D-20  6  6     0.63
  20      1.11823983    -0.36327684  -115.41244807     0.00000000     0.00000000  0.15D-20  0.56D-21  6  3     0.66

 Norm of t1 vector:      0.04154614      S-energy:    -0.00000000      T1 diagnostic:  0.00785148
                                                                       D1 diagnostic:  0.01737994


 Total CPU time for triples:      0.17 sec


 RESULTS
 =======

  Reference energy                   -115.049171228900
  CCSD singlet pair energy             -0.254493746771
  CCSD triplet pair energy             -0.108783092833
  CCSD correlation energy              -0.363276839604

  Triples (T) contribution             -0.007728285425
  Total correlation energy             -0.371005125029

  CCSD total energy                  -115.412448068505
  CCSD[T] energy                     -115.420465178973
  CCSD-T energy                      -115.420026976767
 !CCSD(T) total energy               -115.420176353929

 Timing summary (sec):

 STEP                 CPU(USER)    SYS     CPU(TOT)    WALL
 Transformation          0.02      0.00      0.02      0.02
 CCSD iterations         0.64      0.05      0.69      0.71
 Triples                 0.17      0.00      0.17      0.17

 Program statistics:

 Available memory in ccsd:               999999704
 Min. memory needed in ccsd:                136801
 Max. memory used in ccsd:                  163198
 Max. memory used in cckext:                182024 (20 integral passes)



 **********************************************************************************************************************************
 DATASETS  * FILE   NREC   LENGTH (MB)   RECORD NAMES
              1      20       10.93       500      610      700      900      950      970     1000      129      960     1100   
                                          VAR    BASINP    GEOM    SYMINP    ZMAT    AOBASIS   BASIS     P2S    ABASIS      S 
                                         1400     1410     1200     1210     1080     1600     1650     1300     1700     1380   
                                           T        V       H0       H01     AOSYM     SMH    MOLCAS    ERIS     OPER     JKOP   

              2       3        0.39       700     1000     2100   
                                         GEOM     BASIS     RHF  

 PROGRAMS   *        TOTAL   CCSD(T)       RHF       INT
 CPU TIMES  *         1.11      0.83      0.09      0.15
 REAL TIME  *         1.44 SEC
 DISK USED  *        25.66 MB      
 GA USED    *         0.00 MB       (max)       0.00 MB       (current)
 **********************************************************************************************************************************

        CCSD(T)         RHF-SCF 
   -115.42017635   -115.04917123
 **********************************************************************************************************************************
 Variable memory released
