[Molden Format]

[FREQ]
         529.0762196760
         832.0184766060
        1119.8436668845
        1153.4998675142
        1168.0289964914
        1611.1004137347

[FR-COORD]
H         -1.8897259886        1.2922429089        0.0000000000
O          0.0000000000       -0.1628461023        0.0000000000
H          1.8897259886        1.2922429089        0.0000000000

[FR-NORM-COORD]
vibration 1
           0.5776956767       -0.4061500849        0.0000000000
           0.0000000000        0.0511822954        0.0000000000
          -0.5776956767       -0.4061500849        0.0000000000
vibration 2
           0.5928541730       -0.3817500585       -0.0000000000
          -0.0747104052       -0.0000000000        0.0000000000
           0.5928541730        0.3817500585       -0.0000000000
vibration 3
           0.0000000000        0.0000000000        0.7043160727
          -0.0000000000       -0.0000000000       -0.0887566312
           0.0000000000       -0.0000000000        0.7043160727
vibration 4
           0.3506775307        0.6132281911        0.0000000000
          -0.0441917449        0.0000000000        0.0000000000
           0.3506775307       -0.6132281911       -0.0000000000
vibration 5
          -0.0000000000       -0.0000000000        0.7071067812
           0.0000000000        0.0000000000        0.0000000000
          -0.0000000000        0.0000000000       -0.7071067812
vibration 6
           0.4378300762        0.5530606470        0.0000000000
           0.0000000000       -0.0696956974       -0.0000000000
          -0.4378300762        0.5530606470       -0.0000000000
