
 Working directory              : /scratch/mel64643/tmp/40073396/
 Global scratch directory       : /scratch/mel64643/tmp/40073396/
 Wavefunction directory         : /home/mel64643/wfu/
 Main file repository           : /scratch/mel64643/tmp/40073396/

 id        : ccgc

 Nodes     nprocs
 a1-8         3
 Distribution of processes:   nprocs(total)=    4   nprocs(compute)=    3   nprocs(helper)=    1
 GA implementation: MPI file
 GA implementation (serial work in mppx): MPI file

 Using customized tuning parameters: mindgm=1; mindgv=20; mindgc=4; mindgr=1; noblas=0; minvec=7
 default implementation of scratch files=sf  


 Variables initialized (1015), CPU time= 0.01 sec
 ***,Optimization of min3
 memory,1000,m
 gthresh,energy=1.0d-12,orbital=1.0d-10,oneint=1.0d-16,twoint=1.0d-16,optgrad=1.0d-6,compress=1.0d-13
 geomtyp=xyz
 
  bohr
  geometry = {
  6
  arbitrary comment
  C   -1.3724885856   -0.0268239254    0.0000004540
  O    1.2887400048    0.1181293422    0.0000001356
  H   -2.0592907786    1.9098154461   -0.0000799603
  H   -2.1108508355   -0.9827270440    1.6818028762
  H   -2.1108440848   -0.9828583625   -1.6817304405
  H    1.9410101197   -1.5656675764   -0.0000014750
 }
 
 basis=cc-pvdz
 {rhf;maxit,200}
 {ccsd(t);maxit,200}
 Commands initialized (818), CPU time= 0.01 sec, 672 directives.
 Default parameters read. Elapsed time= 0.10 sec

 Checking input...
 Passed
1


                                         ***  PROGRAM SYSTEM MOLPRO  ***
                                       Copyright, TTI GmbH Stuttgart, 2015
                                    Version 2022.1 linked Mar  4 2022 00:40:14


 **********************************************************************************************************************************
 LABEL *   Optimization of min3                                                          
  64 bit mpp version                                                                     DATE: 07-Aug-25          TIME: 21:26:56  
 **********************************************************************************************************************************

 SHA1:             31073afc4d8441e10870424e0d77336a33bc4286
 **********************************************************************************************************************************

 Memory per process:      1000 MW
 Total memory per node:   3000 MW

 GA preallocation disabled
 GA check disabled

 Variable memory set to 1000.0 MW


 THRESHOLDS:

 ZERO    =  1.00D-12  ONEINT  =  1.00D-16  TWOINT  =  1.00D-16  PREFAC  =  1.00D-14  XXXXXX  =  1.00D-09  EORDER  =  1.00D-04
 ENERGY  =  1.00D-12  ETEST   =  0.00D+00  EDENS   =  0.00D+00  THRDEDEF=  1.00D-06  GRADIENT=  1.00D-05  STEP    =  1.00D-03
 ORBITAL =  1.00D-10  CIVEC   =  1.00D-05  COEFF   =  1.00D-04  PRINTCI =  5.00D-02  PUNCHCI =  9.90D+01  OPTGRAD =  1.00D-06
 OPTENERG=  1.00D-06  OPTSTEP =  3.00D-04  THRGRAD =  1.00D-10  COMPRESS=  1.00D-13  VARMIN  =  1.00D-07  VARMAX  =  1.00D-03
 THRDOUB =  0.00D+00  THRDIV  =  1.00D-05  THRRED  =  1.00D-07  THRPSP  =  1.00D+00  THRDC   =  1.00D-10  THRCS   =  1.00D-10
 THRNRM  =  1.00D-08  THREQ   =  0.00D+00  THRDE   =  1.00D+00  THRREF  =  1.00D-05  SPARFAC =  1.00D+00  THRDLP  =  1.00D-07
 THRDIA  =  1.00D-10  THRDLS  =  1.00D-07  THRGPS  =  0.00D+00  THRKEX  =  0.00D+00  THRDIS  =  2.00D-01  THRVAR  =  1.00D-10
 THRLOC  =  1.00D-06  THRGAP  =  1.00D-06  THRLOCT = -1.00D+00  THRGAPT = -1.00D+00  THRORB  =  1.00D-06  THRMLTP =  0.00D+00
 THRCPQCI=  1.00D-10  KEXTA   =  0.00D+00  THRCOARS=  0.00D+00  SYMTOL  =  1.00D-06  GRADTOL =  1.00D-06  THROVL  =  1.00D-08
 THRORTH =  1.00D-08  THRDLOVL= -1.00D+00  GRID    =  1.00D-06  GRIDMAX =  1.00D-03  DTMAX   =  0.00D+00  THROCCDE=  1.00D-01
 THROCCDE=  1.00D-01  THRPRINT=  2.50D-01

 SETTING GEOMTYP        =    XYZ
 ZUNIT=BOHR

 SETTING BASIS          =    CC-PVDZ


 Recomputing integrals since basis changed


 Using spherical harmonics

 Library entry C      S cc-pVDZ              selected for orbital group  1
 Library entry C      P cc-pVDZ              selected for orbital group  1
 Library entry C      D cc-pVDZ              selected for orbital group  1
 Library entry O      S cc-pVDZ              selected for orbital group  2
 Library entry O      P cc-pVDZ              selected for orbital group  2
 Library entry O      D cc-pVDZ              selected for orbital group  2
 Library entry H      S cc-pVDZ              selected for orbital group  3
 Library entry H      P cc-pVDZ              selected for orbital group  3


 PROGRAM * SEWARD (Integral evaluation for generally contracted gaussian basis sets)     Author: Roland Lindh, 1990

 Geometry written to block  1 of record 700


 Point group  C1  



 ATOMIC COORDINATES

 NR  ATOM    CHARGE       X              Y              Z

   1  C       6.00   -1.372488586   -0.026823925    0.000000454
   2  O       8.00    1.288740005    0.118129342    0.000000136
   3  H       1.00   -2.059290779    1.909815446   -0.000079960
   4  H       1.00   -2.110850835   -0.982727044    1.681802876
   5  H       1.00   -2.110844085   -0.982858363   -1.681730440
   6  H       1.00    1.941010120   -1.565667576   -0.000001475

 Bond lengths in Bohr (Angstrom)

 1-2  2.665173364  1-3  2.054816127  1-4  2.070601114  1-5  2.070601239  2-6  1.805721010
     ( 1.410349007)     ( 1.087361867)     ( 1.095714922)     ( 1.095714988)     ( 0.955546408)

 Bond angles

  1-2-6  108.05765964   2-1-3  106.40860540   2-1-4  112.40641805   2-1-5  112.40641662

  3-1-4  108.41806235   3-1-5  108.41789765   4-1-5  108.62518857

 NUCLEAR CHARGE:                   18
 NUMBER OF PRIMITIVE AOS:          82
 NUMBER OF SYMMETRY AOS:           80
 NUMBER OF CONTRACTIONS:           48   (   48A   )
 NUMBER OF INNER CORE ORBITALS:     0   (    0A   )
 NUMBER OF OUTER CORE ORBITALS:     2   (    2A   )
 NUMBER OF VALENCE ORBITALS:       12   (   12A   )


 NUCLEAR REPULSION ENERGY   40.49177703

 Eigenvalues of metric

         1 0.960E-02 0.176E-01 0.367E-01 0.375E-01 0.377E-01 0.474E-01 0.478E-01 0.514E-01


 Contracted 2-electron integrals neglected if value below      1.0D-16
 AO integral compression algorithm  1   Integral accuracy      1.0D-16

     6.554 MB (compressed) written to integral file (100.0%)

     Node minimum: 2.097 MB, node maximum: 2.359 MB


 NUMBER OF SORTED TWO-ELECTRON INTEGRALS:     231084.     BUFFER LENGTH:  32768
 NUMBER OF SEGMENTS:   1  SEGMENT LENGTH:     231084      RECORD LENGTH: 524288

 Memory used in sort:       0.79 MW

 SORT1 READ      832256. AND WROTE      227683. INTEGRALS IN      1 RECORDS. CPU TIME:     0.01 SEC, REAL TIME:     0.02 SEC
 SORT2 READ      682150. AND WROTE      692076. INTEGRALS IN     24 RECORDS. CPU TIME:     0.01 SEC, REAL TIME:     0.02 SEC

 Node minimum:      230300.  Node maximum:      231084. integrals

 OPERATOR DM      FOR CENTER  0  COORDINATES:    0.000000    0.000000    0.000000


 **********************************************************************************************************************************
 DATASETS  * FILE   NREC   LENGTH (MB)   RECORD NAMES
              1      18       28.73       500      610      700      900      950      970     1000      129      960     1100   
                                          VAR    BASINP    GEOM    SYMINP    ZMAT    AOBASIS   BASIS     P2S    ABASIS      S 
                                         1400     1410     1200     1210     1080     1600     1650     1700   
                                           T        V       H0       H01     AOSYM     SMH    MOLCAS    OPER   

 PROGRAMS   *        TOTAL       INT
 CPU TIMES  *         0.45      0.32
 REAL TIME  *         1.47 SEC
 DISK USED  *        29.07 MB (local),      104.32 MB (total)
 GA USED    *         0.00 MB       (max)       0.00 MB       (current)
 **********************************************************************************************************************************


 Program * Restricted Hartree-Fock

 Orbital guess generated from atomic densities. Full valence occupancy:   14

 Initial occupancy:   9

 NELEC=   18   SYM=1   MS2= 0   THRE=1.0D-12   THRD=1.0D-10   THRG=1.0D-10  HFMA2=F  DIIS_START=2   DIIS_MAX=10   DIIS_INCORE=F

 Level shifts:    0.00 (CLOSED)    0.00 (OPEN)    0.30 (GAP_MIN)

 ITER           ETOT              DE          GRAD        DDIFF     DIIS  NEXP   TIME(IT)  TIME(TOT)  DIAG
   1     -115.01473392    -115.01473392     0.00D+00     0.16D+00     0     0       0.00      0.00    start
   2     -115.04305835      -0.02832443     0.10D-01     0.20D-01     1     0       0.01      0.01    diag
   3     -115.04897396      -0.00591561     0.48D-02     0.63D-02     2     0       0.00      0.01    diag
   4     -115.04943280      -0.00045884     0.10D-02     0.20D-02     3     0       0.00      0.01    diag
   5     -115.04945316      -0.00002036     0.18D-03     0.43D-03     4     0       0.00      0.01    diag
   6     -115.04945393      -0.00000076     0.32D-04     0.92D-04     5     0       0.02      0.03    diag
   7     -115.04945396      -0.00000003     0.66D-05     0.15D-04     6     0       0.00      0.03    diag
   8     -115.04945396      -0.00000000     0.21D-05     0.50D-05     7     0       0.00      0.03    fixocc
   9     -115.04945396      -0.00000000     0.44D-06     0.14D-05     8     0       0.00      0.03    diag
  10     -115.04945396      -0.00000000     0.73D-07     0.24D-06     9     0       0.01      0.04    diag/orth
  11     -115.04945396       0.00000000     0.17D-07     0.48D-07     9     0       0.00      0.04    diag
  12     -115.04945396      -0.00000000     0.44D-08     0.14D-07     9     0       0.00      0.04    diag
  13     -115.04945396      -0.00000000     0.65D-09     0.18D-08     9     0       0.00      0.04    diag
  14     -115.04945396       0.00000000     0.14D-09     0.38D-09     9     0       0.00      0.04    diag
  15     -115.04945396       0.00000000     0.59D-10     0.11D-09     9     0       0.01      0.05    diag
  16     -115.04945396       0.00000000     0.13D-10     0.31D-10     9     0       0.00      0.05    diag
  17     -115.04945396      -0.00000000     0.22D-11     0.44D-11     0     0       0.00      0.05    diag

 Final occupancy:   9

 !RHF STATE 1.1 Energy               -115.049453960726
  RHF One-electron energy            -237.232857973181
  RHF Two-electron energy              81.691626981599
  RHF Kinetic energy                  114.971440713967
  RHF Nuclear energy                   40.491777030856
  RHF Virial quotient                  -1.000678544570

 !RHF STATE 1.1 Dipole moment          -0.37242261    -0.59160312    -0.00000278
 Dipole moment /Debye                  -0.94660386    -1.50370514    -0.00000706

 Orbital energies:

           1.1          2.1          3.1          4.1          5.1          6.1          7.1          8.1          9.1         10.1
    -20.549202   -11.273789    -1.354150    -0.921343    -0.686107    -0.614766    -0.587329    -0.496189    -0.441926     0.184925

          11.1
      0.225142


 HOMO      9.1    -0.441926 =     -12.0254eV
 LUMO     10.1     0.184925 =       5.0321eV
 LUMO-HOMO         0.626851 =      17.0575eV

 Orbitals saved in record  2100.2


 **********************************************************************************************************************************
 DATASETS  * FILE   NREC   LENGTH (MB)   RECORD NAMES
              1      18       28.73       500      610      700      900      950      970     1000      129      960     1100   
                                          VAR    BASINP    GEOM    SYMINP    ZMAT    AOBASIS   BASIS     P2S    ABASIS      S 
                                         1400     1410     1200     1210     1080     1600     1650     1700   
                                           T        V       H0       H01     AOSYM     SMH    MOLCAS    OPER   

              2       4        0.47       700     1000      520     2100   
                                         GEOM     BASIS   MCVARS     RHF  

 PROGRAMS   *        TOTAL   RHF-SCF       INT
 CPU TIMES  *         0.50      0.05      0.32
 REAL TIME  *         1.70 SEC
 DISK USED  *        29.40 MB (local),      105.31 MB (total)
 GA USED    *         0.00 MB       (max)       0.00 MB       (current)
 **********************************************************************************************************************************


 PROGRAM * CCSD (Closed-shell coupled cluster)     Authors: C. Hampel, H.-J. Werner, 1991, M. Deegan, P.J. Knowles, 1992


 Convergence thresholds:  THRVAR = 1.00D-08  THRDEN = 1.00D-12

 CCSD(T)     terms to be evaluated (factor= 1.000)


 Number of core orbitals:           2 (   2 )
 Number of closed-shell orbitals:   7 (   7 )
 Number of external orbitals:      39 (  39 )

 Molecular orbitals read from record     2100.2  Type=RHF/CANONICAL  

 Number of N-1 electron functions:               7
 Number of N-2 electron functions:              28
 Number of singly external CSFs:               273
 Number of doubly external CSFs:             37401
 Total number of CSFs:                       37675

 Length of J-op  integral file:               0.00 MB
 Length of K-op  integral file:               0.16 MB
 Length of 3-ext integral record:             0.00 MB

 Memory could be reduced to 0.73 Mwords without degradation in triples

 Integral transformation finished. Total CPU:   0.03 sec, npass=  1  Memory used:   0.66 MW

 Reference energy:                   -115.04945396

 MP2 singlet pair energy:              -0.21826796
 MP2 triplet pair energy:              -0.11973295
 MP2 correlation energy:               -0.33800091
 MP2 total energy:                   -115.38745487

 SCS-MP2 correlation energy:           -0.33642206   (PS=  1.200000  PT=  0.333333)
 SCS-MP2 total energy:               -115.38587602

 ITER.      SQ.NORM     CORR.ENERGY   TOTAL ENERGY   ENERGY CHANGE        DEN1      VAR(S)    VAR(P)  DIIS     TIME  TIME/IT
   1      1.10690048    -0.36082401  -115.41027797    -0.02282310    -0.01420710  0.90D-03  0.17D-02  1  1     0.05     0.05
   2      1.11535040    -0.36275532  -115.41220928    -0.00193131    -0.00919836  0.19D-04  0.16D-03  2  2     0.07     0.05
   3      1.11719095    -0.36287991  -115.41233387    -0.00012459    -0.00118163  0.93D-05  0.84D-05  3  3     0.09     0.04
   4      1.11769365    -0.36287852  -115.41233248     0.00000139    -0.00024997  0.32D-06  0.65D-06  4  4     0.11     0.04
   5      1.11778872    -0.36287891  -115.41233288    -0.00000039    -0.00003503  0.95D-07  0.47D-07  5  5     0.13     0.03
   6      1.11780708    -0.36287761  -115.41233157     0.00000130    -0.00000425  0.15D-07  0.39D-08  6  6     0.14     0.03
   7      1.11781165    -0.36287720  -115.41233116     0.00000041    -0.00000035  0.19D-08  0.68D-09  6  1     0.17     0.03
   8      1.11781287    -0.36287730  -115.41233126    -0.00000010     0.00000072  0.25D-09  0.68D-10  6  3     0.18     0.03
   9      1.11781389    -0.36287718  -115.41233114     0.00000012    -0.00000037  0.12D-10  0.99D-11  6  2     0.20     0.03
  10      1.11781395    -0.36287718  -115.41233114     0.00000000     0.00000000  0.13D-11  0.12D-11  6  4     0.22     0.03
  11      1.11781390    -0.36287718  -115.41233114     0.00000000     0.00000003  0.31D-12  0.80D-13  6  5     0.24     0.03
  12      1.11781386    -0.36287718  -115.41233114    -0.00000000     0.00000003  0.31D-13  0.12D-13  6  6     0.26     0.03
  13      1.11781384    -0.36287718  -115.41233114    -0.00000000     0.00000001  0.36D-14  0.15D-14  6  3     0.28     0.03
  14      1.11781384    -0.36287718  -115.41233114    -0.00000000     0.00000000  0.28D-15  0.14D-15  6  1     0.30     0.03
  15      1.11781384    -0.36287718  -115.41233114     0.00000000    -0.00000000  0.35D-16  0.30D-16  6  2     0.32     0.03
  16      1.11781384    -0.36287718  -115.41233114     0.00000000    -0.00000000  0.41D-17  0.20D-17  6  4     0.33     0.03
  17      1.11781384    -0.36287718  -115.41233114    -0.00000000     0.00000000  0.41D-18  0.21D-18  6  5     0.35     0.03
  18      1.11781384    -0.36287718  -115.41233114    -0.00000000    -0.00000000  0.10D-18  0.32D-19  6  6     0.37     0.03
  19      1.11781384    -0.36287718  -115.41233114     0.00000000    -0.00000000  0.11D-19  0.42D-20  6  3     0.39     0.03

 Norm of t1 vector:      0.04124231      S-energy:    -0.00000000      T1 diagnostic:  0.00779406
                                                                       D1 diagnostic:  0.01704410
                                                                       D2 diagnostic:  0.13387718 (internal)


 Total CPU time for triples:      0.07 sec


 RESULTS
 =======

  Reference energy                   -115.049453960726
  CCSD singlet pair energy             -0.254103722683
  CCSD triplet pair energy             -0.108773460848
  CCSD correlation energy              -0.362877183532

  Triples (T) contribution             -0.007679444329
  Total correlation energy             -0.370556627862

  CCSD total energy                  -115.412331144258
  CCSD[T] energy                     -115.420295566931
  CCSD-T energy                      -115.419863316222
 !CCSD(T) total energy               -115.420010588588

 Timing summary (sec):

 STEP                 CPU(USER)    SYS     CPU(TOT)    WALL
 Transformation          0.03      0.01      0.04      0.04
 CCSD iterations         0.36      0.06      0.42      0.62
 Triples                 0.07      0.00      0.07      0.08

 Program statistics:

 Available memory in ccsd:               999999795
 Min. memory needed in ccsd:                136177
 Max. memory used in ccsd:                  162910
 Max. memory used in cckext:                178997 (19 integral passes)



 **********************************************************************************************************************************
 DATASETS  * FILE   NREC   LENGTH (MB)   RECORD NAMES
              1      19       31.13       500      610      700      900      950      970     1000      129      960     1100   
                                          VAR    BASINP    GEOM    SYMINP    ZMAT    AOBASIS   BASIS     P2S    ABASIS      S 
                                         1400     1410     1200     1210     1080     1600     1650     1700     1380   
                                           T        V       H0       H01     AOSYM     SMH    MOLCAS    OPER     JKOP   

              2       4        0.47       700     1000      520     2100   
                                         GEOM     BASIS   MCVARS     RHF  

 PROGRAMS   *        TOTAL   CCSD(T)   RHF-SCF       INT
 CPU TIMES  *         1.00      0.50      0.05      0.32
 REAL TIME  *         2.49 SEC
 DISK USED  *        35.56 MB (local),      115.96 MB (total)
 SF USED    *         5.97 MB
 GA USED    *         0.00 MB       (max)       0.00 MB       (current)
 **********************************************************************************************************************************

 CCSD(T)/cc-pVDZ energy=   -115.420010588588

         CCSD(T)         RHF-SCF
   -115.42001059   -115.04945396
 **********************************************************************************************************************************
 Molpro calculation terminated
