
 Primary working directories    : /tmp/601555.24.gen4.q
 Secondary working directories  : /tmp/601555.24.gen4.q
 Wavefunction directory         : /home/vulcan/mel64643/wfu/
 Main file repository           : /tmp/601555.24.gen4.q/

 ARCHNAME  : Linux/x86_64
 FC        : /opt/intel/compilers_and_libraries_2016.1.150/linux/bin/intel64/ifort
 FCVERSION : 16.0.1
 BLASLIB   : -mkl
 id        : ccgc

 Nodes     nprocs
 n065         1
 ga_uses_ma=false, calling ma_init with nominal heap.
 GA-space will be limited to   8.0 MW (determined by -G option)

 Using customized tuning parameters: mindgm=10; mindgv=16; mindgc=4; mindgr=1; noblas=0; mincuda=1000; minvec=7
 default implementation of scratch files=df  

 ***,Optimization of min3
 memory,1000,m
 gthresh,energy=1.0d-12,orbital=1.0d-10,oneint=1.0d-16,twoint=1.0d-16,optgrad=1.0d-6,compress=1.0d-13
 geomtyp=xyz
 
  bohr
  geometry = {
  6
  arbitrary comment
  C   -1.3777625036   -0.0269552944    0.0000004306
  O    1.3078353085    0.1186844509    0.0000002735
  H   -2.0778570231    1.9115151031   -0.0000799508
  H   -2.1155489469   -0.9778656754    1.6822132309
  H   -2.1155422102   -0.9779969203   -1.6821410926
  H    1.9551512152   -1.5775137839   -0.0000013016
 }
 
 basis=cc-pvdz
 {rhf;maxit,200}
 {ccsd(t);maxit,200}

 Variables initialized (661), CPU time= 0.00 sec
 Commands  initialized (458), CPU time= 0.00 sec, 486 directives.
 Default parameters read. Elapsed time= 0.04 sec

 Checking input...
 Passed
1


                                         ***  PROGRAM SYSTEM MOLPRO  ***
                         Copyright, University College Cardiff Consultants Limited, 2008

                                    Version 2010.1 linked May 16 2016 07:17:05


 **********************************************************************************************************************************
 LABEL *   Optimization of min3                                                          
 Linux-4.4.3/n065(x86_64) 64 bit mpp version                                             DATE: 06-Nov-21          TIME: 15:38:45  
 **********************************************************************************************************************************

 SHA1:             9e8077add272b0f3cad6f7df79ec5211205f459d
 **********************************************************************************************************************************

 THRESHOLDS:

 ZERO    =  1.00D-12  ONEINT  =  1.00D-16  TWOINT  =  1.00D-16  PREFAC  =  1.00D-14  LOCALI  =  1.00D-09  EORDER  =  1.00D-04
 ENERGY  =  1.00D-12  ETEST   =  0.00D+00  EDENS   =  0.00D+00  THRDEDEF=  1.00D-06  GRADIENT=  1.00D-02  STEP    =  1.00D-03
 ORBITAL =  1.00D-10  CIVEC   =  1.00D-05  COEFF   =  1.00D-04  PRINTCI =  5.00D-02  PUNCHCI =  9.90D+01  OPTGRAD =  1.00D-06
 OPTENERG=  1.00D-06  OPTSTEP =  3.00D-04  THRGRAD =  1.00D-10  COMPRESS=  1.00D-13  VARMIN  =  1.00D-07  VARMAX  =  1.00D-03
 THRDOUB =  0.00D+00  THRDIV  =  1.00D-05  THRRED  =  1.00D-07  THRPSP  =  1.00D+00  THRDC   =  1.00D-10  THRCS   =  1.00D-10
 THRNRM  =  1.00D-08  THREQ   =  0.00D+00  THRDE   =  1.00D+00  THRREF  =  1.00D-05  SPARFAC =  1.00D+00  THRDLP  =  1.00D-07
 THRDIA  =  1.00D-10  THRDLS  =  1.00D-07  THRGPS  =  0.00D+00  THRKEX  =  0.00D+00  THRDIS  =  2.00D-01  THRVAR  =  1.00D-10
 THRLOC  =  1.00D-06  THRGAP  =  1.00D-06  THRLOCT = -1.00D+00  THRGAPT = -1.00D+00  THRORB  =  1.00D-06  THRMLTP =  0.00D+00
 THRCPQCI=  1.00D-10  KEXTA   =  0.00D+00  THRCOARS=  0.00D+00  SYMTOL  =  1.00D-06  GRADTOL =  1.00D-06  THROVL  =  1.00D-08
 THRORTH =  1.00D-08  GRID    =  1.00D-06  GRIDMAX =  1.00D-03  DTMAX   =  0.00D+00

 SETTING GEOMTYP        =    XYZ
 ZUNIT=BOHR
 

 Variable memory set to 1000000000 words,  buffer space   230000 words

 SETTING BASIS          =    CC-PVDZ


 Recomputing integrals since basis changed


 Using spherical harmonics

 Library entry C      S cc-pVDZ              selected for orbital group  1
 Library entry C      P cc-pVDZ              selected for orbital group  1
 Library entry C      D cc-pVDZ              selected for orbital group  1
 Library entry O      S cc-pVDZ              selected for orbital group  2
 Library entry O      P cc-pVDZ              selected for orbital group  2
 Library entry O      D cc-pVDZ              selected for orbital group  2
 Library entry H      S cc-pVDZ              selected for orbital group  3
 Library entry H      P cc-pVDZ              selected for orbital group  3

1PROGRAM * SEWARD (Integral evaluation for generally contracted gaussian basis sets)     Author: Roland Lindh, 1990

 Geometry written to block  1 of record 700


 Point group  C1  



 ATOMIC COORDINATES

 NR  ATOM    CHARGE       X              Y              Z

   1  C       6.00   -1.377762504   -0.026955294    0.000000431
   2  O       8.00    1.307835309    0.118684451    0.000000274
   3  H       1.00   -2.077857023    1.911515103   -0.000079951
   4  H       1.00   -2.115548947   -0.977865675    1.682213231
   5  H       1.00   -2.115542210   -0.977996920   -1.682141093
   6  H       1.00    1.955151215   -1.577513784   -0.000001302

 Bond lengths in Bohr (Angstrom)

 1-2  2.689543929  1-3  2.061019123  1-4  2.068429185  1-5  2.068429156  2-6  1.815518200
     ( 1.423245350)     ( 1.090644347)     ( 1.094565583)     ( 1.094565568)     ( 0.960730854)

 Bond angles

  1-2-6  107.78412537   2-1-3  106.75349734   2-1-4  112.39937377   2-1-5  112.39937961

  3-1-4  108.13521958   3-1-5  108.13506002   4-1-5  108.83196698

 NUCLEAR CHARGE:                   18
 NUMBER OF PRIMITIVE AOS:          82
 NUMBER OF SYMMETRY AOS:           80
 NUMBER OF CONTRACTIONS:           48   (  48A   )
 NUMBER OF CORE ORBITALS:           2   (   2A   )
 NUMBER OF VALENCE ORBITALS:       12   (  12A   )


 NUCLEAR REPULSION ENERGY   40.25066527


 Eigenvalues of metric

         1 0.968E-02 0.177E-01 0.369E-01 0.374E-01 0.383E-01 0.474E-01 0.479E-01 0.520E-01


 Contracted 2-electron integrals neglected if value below      1.0D-16
 AO integral compression algorithm  1   Integral accuracy      1.0D-16

     6.554 MB (compressed) written to integral file ( 94.5%)

     Node minimum: 6.554 MB, node maximum: 6.554 MB


 NUMBER OF SORTED TWO-ELECTRON INTEGRALS:     692076.     BUFFER LENGTH:  32768
 NUMBER OF SEGMENTS:   1  SEGMENT LENGTH:     692076      RECORD LENGTH: 524288

 Memory used in sort:       1.25 MW

 SORT1 READ      832256. AND WROTE      682148. INTEGRALS IN      2 RECORDS. CPU TIME:     0.00 SEC, REAL TIME:     0.01 SEC
 SORT2 READ      682148. AND WROTE      692076. INTEGRALS IN     25 RECORDS. CPU TIME:     0.02 SEC, REAL TIME:     0.03 SEC

 FILE SIZES:   FILE 1:     8.0 MBYTE,  FILE 4:     8.4 MBYTE,   TOTAL:     16.4 MBYTE

 OPERATOR DM      FOR CENTER  0  COORDINATES:    0.000000    0.000000    0.000000


 **********************************************************************************************************************************
 DATASETS  * FILE   NREC   LENGTH (MB)   RECORD NAMES
              1      19        8.03       500      610      700      900      950      970     1000      129      960     1100   
                                          VAR    BASINP    GEOM    SYMINP    ZMAT    AOBASIS   BASIS     P2S    ABASIS      S 
                                         1400     1410     1200     1210     1080     1600     1650     1300     1700   
                                           T        V       H0       H01     AOSYM     SMH    MOLCAS    ERIS     OPER   

 PROGRAMS   *        TOTAL       INT
 CPU TIMES  *         0.23      0.18
 REAL TIME  *         0.40 SEC
 DISK USED  *        23.60 MB      
 GA USED    *         0.00 MB       (max)       0.00 MB       (current)
 **********************************************************************************************************************************

1PROGRAM * RHF-SCF (CLOSED SHELL)       Authors: W. Meyer, H.-J. Werner


 NUMBER OF ELECTRONS:       9+    9-    SPACE SYMMETRY=1    SPIN SYMMETRY: Singlet 
 CONVERGENCE THRESHOLDS:    1.00E-10 (Density)    1.00E-13 (Energy)
 MAX. NUMBER OF ITERATIONS:      200
 INTERPOLATION TYPE:            DIIS
 INTERPOLATION STEPS:              2 (START)      1 (STEP)
 LEVEL SHIFTS:                  0.00 (CLOSED)  0.00 (OPEN) 



 Orbital guess generated from atomic densities. Full valence occupancy:   14

 Molecular orbital dump at record        2100.2

 ITERATION    DDIFF          GRAD             ENERGY        2-EL.EN.            DIPOLE MOMENTS         DIIS
    1      0.000D+00      0.000D+00      -115.01414910    164.285265   -0.49370   -0.90014   -0.00000    0
    2      0.000D+00      0.110D-01      -115.04246548    162.067025   -0.31579   -0.53614   -0.00000    1
    3      0.205D-01      0.531D-02      -115.04851565    163.092682   -0.39962   -0.61136   -0.00000    2
    4      0.640D-02      0.112D-02      -115.04897977    162.936582   -0.38954   -0.60033   -0.00000    3
    5      0.204D-02      0.202D-03      -115.04900081    162.942935   -0.39237   -0.59608   -0.00000    4
    6      0.433D-03      0.354D-04      -115.04900161    162.943087   -0.39267   -0.59588   -0.00000    5
    7      0.930D-04      0.736D-05      -115.04900164    162.941898   -0.39281   -0.59572   -0.00000    6
    8      0.151D-04      0.237D-05      -115.04900164    162.942280   -0.39284   -0.59569   -0.00000    7
    9      0.507D-05      0.491D-06      -115.04900164    162.942239   -0.39286   -0.59569   -0.00000    6
   10      0.142D-05      0.874D-07      -115.04900164    162.942238   -0.39286   -0.59569   -0.00000    6
   11      0.235D-06      0.328D-07      -115.04900164    162.942243   -0.39286   -0.59569   -0.00000    6
   12      0.598D-07      0.136D-07      -115.04900164    162.942241   -0.39286   -0.59569   -0.00000    7
   13      0.252D-07      0.307D-08      -115.04900164    162.942241   -0.39286   -0.59569   -0.00000    7
   14      0.763D-08      0.649D-09      -115.04900164    162.942241   -0.39286   -0.59569   -0.00000    7
   15      0.165D-08      0.151D-09      -115.04900164    162.942241   -0.39286   -0.59569   -0.00000    7
   16      0.335D-09      0.450D-10      -115.04900164    162.942241   -0.39286   -0.59569   -0.00000    7
   17      0.865D-10      0.162D-10      -115.04900164    162.942241   -0.39286   -0.59569   -0.00000    7
   18      0.416D-10      0.295D-11      -115.04900164    162.942241   -0.39286   -0.59569   -0.00000    7
   19      0.691D-11      0.652D-12      -115.04900164    162.942241   -0.39286   -0.59569   -0.00000    7
   20      0.166D-11      0.284D-12      -115.04900164    162.942241   -0.39286   -0.59569   -0.00000    7
   21      0.517D-12      0.762D-13      -115.04900164    162.942241   -0.39286   -0.59569   -0.00000    7
   22      0.158D-12      0.205D-13      -115.04900164    162.942241   -0.39286   -0.59569   -0.00000    0

 Final occupancy:   9

 !RHF STATE 1.1 Energy               -115.049001640376
 Nuclear energy                        40.25066527
 One-electron energy                 -236.77078762
 Two-electron energy                   81.47112071
 Virial quotient                       -1.00101953
 !RHF STATE 1.1 Dipole moment          -0.39285877    -0.59568963    -0.00000273
 Dipole moment /Debye                  -0.99848199    -1.51399285    -0.00000693

 Orbital energies:

         1.1          2.1          3.1          4.1          5.1          6.1          7.1          8.1          9.1         10.1
    -20.550009   -11.275094    -1.348486    -0.921303    -0.682007    -0.613281    -0.584089    -0.496620    -0.443383     0.184660

        11.1
      0.223932


 **********************************************************************************************************************************
 DATASETS  * FILE   NREC   LENGTH (MB)   RECORD NAMES
              1      19        8.03       500      610      700      900      950      970     1000      129      960     1100   
                                          VAR    BASINP    GEOM    SYMINP    ZMAT    AOBASIS   BASIS     P2S    ABASIS      S 
                                         1400     1410     1200     1210     1080     1600     1650     1300     1700   
                                           T        V       H0       H01     AOSYM     SMH    MOLCAS    ERIS     OPER   

              2       3        0.39       700     1000     2100   
                                         GEOM     BASIS     RHF  

 PROGRAMS   *        TOTAL       RHF       INT
 CPU TIMES  *         0.34      0.11      0.18
 REAL TIME  *         0.55 SEC
 DISK USED  *        23.60 MB      
 GA USED    *         0.00 MB       (max)       0.00 MB       (current)
 **********************************************************************************************************************************


1PROGRAM * CCSD (Closed-shell coupled cluster)     Authors: C. Hampel, H.-J. Werner, 1991, M. Deegan, P.J. Knowles, 1992


 Convergence thresholds:  THRVAR = 1.00D-08  THRDEN = 1.00D-12

 CCSD(T)     terms to be evaluated (factor= 1.000)


 Number of core orbitals:           2 (   2 )
 Number of closed-shell orbitals:   7 (   7 )
 Number of external orbitals:      39 (  39 )

 Molecular orbitals read from record     2100.2  Type=RHF/CANONICAL (state 1.1)

 Number of N-1 electron functions:               7
 Number of N-2 electron functions:              28
 Number of singly external CSFs:               273
 Number of doubly external CSFs:             37401
 Total number of CSFs:                       37675

 Length of J-op  integral file:               0.00 MB
 Length of K-op  integral file:               0.19 MB
 Length of 3-ext integral record:             0.00 MB

 Memory could be reduced to 0.96 Mwords without degradation in triples

 Integral transformation finished. Total CPU:   0.01 sec, npass=  1  Memory used:   0.66 MW

 Reference energy:                   -115.04900164

 MP2 singlet pair energy:              -0.21874382
 MP2 triplet pair energy:              -0.11984910
 MP2 correlation energy:               -0.33859291
 MP2 total energy:                   -115.38759455

 SCS-MP2 correlation energy:           -0.33706535   (PS=  1.200000  PT=  0.333333)
 SCS-MP2 total energy:               -115.38606699

 ITER.      SQ.NORM     CORR.ENERGY   TOTAL ENERGY   ENERGY CHANGE        DEN1      VAR(S)    VAR(P)  DIIS     TIME
   1      1.10746503    -0.36139345  -115.41039509    -0.02280053    -0.01410057  0.92D-03  0.17D-02  1  1     0.06
   2      1.11601961    -0.36334458  -115.41234622    -0.00195113    -0.00926766  0.20D-04  0.16D-03  2  2     0.10
   3      1.11791600    -0.36347310  -115.41247474    -0.00012852    -0.00121168  0.96D-05  0.87D-05  3  3     0.14
   4      1.11843609    -0.36347179  -115.41247344     0.00000131    -0.00025671  0.35D-06  0.68D-06  4  4     0.18
   5      1.11853578    -0.36347220  -115.41247384    -0.00000040    -0.00003649  0.10D-06  0.50D-07  5  5     0.22
   6      1.11855530    -0.36347082  -115.41247246     0.00000138    -0.00000443  0.16D-07  0.42D-08  6  6     0.25
   7      1.11856019    -0.36347039  -115.41247203     0.00000043    -0.00000036  0.21D-08  0.74D-09  6  1     0.29
   8      1.11856149    -0.36347049  -115.41247213    -0.00000010     0.00000076  0.26D-09  0.75D-10  6  3     0.33
   9      1.11856258    -0.36347037  -115.41247201     0.00000013    -0.00000039  0.13D-10  0.11D-10  6  2     0.37
  10      1.11856250    -0.36347037  -115.41247201    -0.00000000     0.00000007  0.11D-11  0.91D-12  6  5     0.41
  11      1.11856253    -0.36347037  -115.41247201     0.00000000    -0.00000000  0.20D-12  0.52D-13  6  4     0.45
  12      1.11856252    -0.36347037  -115.41247201    -0.00000000     0.00000001  0.20D-13  0.11D-13  6  1     0.49
  13      1.11856252    -0.36347037  -115.41247201    -0.00000000    -0.00000000  0.24D-14  0.98D-15  6  6     0.53
  14      1.11856252    -0.36347037  -115.41247201     0.00000000    -0.00000000  0.23D-15  0.13D-15  6  3     0.57
  15      1.11856252    -0.36347037  -115.41247201    -0.00000000    -0.00000000  0.26D-16  0.17D-16  6  2     0.61
  16      1.11856252    -0.36347037  -115.41247201    -0.00000000    -0.00000000  0.58D-17  0.17D-17  6  5     0.65
  17      1.11856252    -0.36347037  -115.41247201    -0.00000000    -0.00000000  0.56D-18  0.26D-18  6  4     0.69
  18      1.11856252    -0.36347037  -115.41247201     0.00000000    -0.00000000  0.86D-19  0.44D-19  6  1     0.73
  19      1.11856252    -0.36347037  -115.41247201    -0.00000000    -0.00000000  0.10D-19  0.45D-20  6  6     0.77
  20      1.11856252    -0.36347037  -115.41247201     0.00000000     0.00000000  0.14D-20  0.58D-21  6  3     0.80

 Norm of t1 vector:      0.04180610      S-energy:    -0.00000000      T1 diagnostic:  0.00790061
                                                                       D1 diagnostic:  0.01764769


 Total CPU time for triples:      0.21 sec


 RESULTS
 =======

  Reference energy                   -115.049001640376
  CCSD singlet pair energy             -0.254740605155
  CCSD triplet pair energy             -0.108729762821
  CCSD correlation energy              -0.363470367977

  Triples (T) contribution             -0.007752005834
  Total correlation energy             -0.371222373811

  CCSD total energy                  -115.412472008353
  CCSD[T] energy                     -115.420515536985
  CCSD-T energy                      -115.420073292178
 !CCSD(T) total energy               -115.420224014187

 Timing summary (sec):

 STEP                 CPU(USER)    SYS     CPU(TOT)    WALL
 Transformation          0.01      0.01      0.02      0.02
 CCSD iterations         0.79      0.04      0.83      0.85
 Triples                 0.21      0.00      0.21      0.21

 Program statistics:

 Available memory in ccsd:               999999704
 Min. memory needed in ccsd:                136801
 Max. memory used in ccsd:                  163198
 Max. memory used in cckext:                182024 (20 integral passes)



 **********************************************************************************************************************************
 DATASETS  * FILE   NREC   LENGTH (MB)   RECORD NAMES
              1      20       10.57       500      610      700      900      950      970     1000      129      960     1100   
                                          VAR    BASINP    GEOM    SYMINP    ZMAT    AOBASIS   BASIS     P2S    ABASIS      S 
                                         1400     1410     1200     1210     1080     1600     1650     1300     1700     1380   
                                           T        V       H0       H01     AOSYM     SMH    MOLCAS    ERIS     OPER     JKOP   

              2       3        0.39       700     1000     2100   
                                         GEOM     BASIS     RHF  

 PROGRAMS   *        TOTAL   CCSD(T)       RHF       INT
 CPU TIMES  *         1.36      1.02      0.11      0.18
 REAL TIME  *         1.66 SEC
 DISK USED  *        25.03 MB      
 GA USED    *         0.00 MB       (max)       0.00 MB       (current)
 **********************************************************************************************************************************

        CCSD(T)         RHF-SCF 
   -115.42022401   -115.04900164
 **********************************************************************************************************************************
 Variable memory released
