
 Primary working directories    : /tmp/601555.119.gen6.q
 Secondary working directories  : /tmp/601555.119.gen6.q
 Wavefunction directory         : /home/vulcan/mel64643/wfu/
 Main file repository           : /tmp/601555.119.gen6.q/

 ARCHNAME  : Linux/x86_64
 FC        : /opt/intel/compilers_and_libraries_2016.1.150/linux/bin/intel64/ifort
 FCVERSION : 16.0.1
 BLASLIB   : -mkl
 id        : ccgc

 Nodes     nprocs
 n089         1
 ga_uses_ma=false, calling ma_init with nominal heap.
 GA-space will be limited to   8.0 MW (determined by -G option)

 Using customized tuning parameters: mindgm=10; mindgv=16; mindgc=4; mindgr=1; noblas=0; mincuda=1000; minvec=7
 default implementation of scratch files=df  

 ***,Optimization of min3
 memory,1000,m
 gthresh,energy=1.0d-12,orbital=1.0d-10,oneint=1.0d-16,twoint=1.0d-16,optgrad=1.0d-6,compress=1.0d-13
 geomtyp=xyz
 
  bohr
  geometry = {
  6
  arbitrary comment
  C   -1.3752993636   -0.0227633652   -0.0015555907
  O    1.3070470296    0.1210727592   -0.0002108364
  H   -2.0774225646    1.9035768901   -0.0045130959
  H   -2.1099135287   -0.9815628296    1.6888566792
  H   -2.1092010932   -0.9729862986   -1.6827853278
  H    1.9410653605   -1.5774692759    0.0001997616
 }
 
 basis=cc-pvdz
 {rhf;maxit,200}
 {ccsd(t);maxit,200}

 Variables initialized (661), CPU time= 0.00 sec
 Commands  initialized (458), CPU time= 0.01 sec, 486 directives.
 Default parameters read. Elapsed time= 0.04 sec

 Checking input...
 Passed
1


                                         ***  PROGRAM SYSTEM MOLPRO  ***
                         Copyright, University College Cardiff Consultants Limited, 2008

                                    Version 2010.1 linked May 16 2016 07:17:05


 **********************************************************************************************************************************
 LABEL *   Optimization of min3                                                          
 Linux-4.4.3/n089(x86_64) 64 bit mpp version                                             DATE: 06-Nov-21          TIME: 15:40:01  
 **********************************************************************************************************************************

 SHA1:             9e8077add272b0f3cad6f7df79ec5211205f459d
 **********************************************************************************************************************************

 THRESHOLDS:

 ZERO    =  1.00D-12  ONEINT  =  1.00D-16  TWOINT  =  1.00D-16  PREFAC  =  1.00D-14  LOCALI  =  1.00D-09  EORDER  =  1.00D-04
 ENERGY  =  1.00D-12  ETEST   =  0.00D+00  EDENS   =  0.00D+00  THRDEDEF=  1.00D-06  GRADIENT=  1.00D-02  STEP    =  1.00D-03
 ORBITAL =  1.00D-10  CIVEC   =  1.00D-05  COEFF   =  1.00D-04  PRINTCI =  5.00D-02  PUNCHCI =  9.90D+01  OPTGRAD =  1.00D-06
 OPTENERG=  1.00D-06  OPTSTEP =  3.00D-04  THRGRAD =  1.00D-10  COMPRESS=  1.00D-13  VARMIN  =  1.00D-07  VARMAX  =  1.00D-03
 THRDOUB =  0.00D+00  THRDIV  =  1.00D-05  THRRED  =  1.00D-07  THRPSP  =  1.00D+00  THRDC   =  1.00D-10  THRCS   =  1.00D-10
 THRNRM  =  1.00D-08  THREQ   =  0.00D+00  THRDE   =  1.00D+00  THRREF  =  1.00D-05  SPARFAC =  1.00D+00  THRDLP  =  1.00D-07
 THRDIA  =  1.00D-10  THRDLS  =  1.00D-07  THRGPS  =  0.00D+00  THRKEX  =  0.00D+00  THRDIS  =  2.00D-01  THRVAR  =  1.00D-10
 THRLOC  =  1.00D-06  THRGAP  =  1.00D-06  THRLOCT = -1.00D+00  THRGAPT = -1.00D+00  THRORB  =  1.00D-06  THRMLTP =  0.00D+00
 THRCPQCI=  1.00D-10  KEXTA   =  0.00D+00  THRCOARS=  0.00D+00  SYMTOL  =  1.00D-06  GRADTOL =  1.00D-06  THROVL  =  1.00D-08
 THRORTH =  1.00D-08  GRID    =  1.00D-06  GRIDMAX =  1.00D-03  DTMAX   =  0.00D+00

 SETTING GEOMTYP        =    XYZ
 ZUNIT=BOHR
 

 Variable memory set to 1000000000 words,  buffer space   230000 words

 SETTING BASIS          =    CC-PVDZ


 Recomputing integrals since basis changed


 Using spherical harmonics

 Library entry C      S cc-pVDZ              selected for orbital group  1
 Library entry C      P cc-pVDZ              selected for orbital group  1
 Library entry C      D cc-pVDZ              selected for orbital group  1
 Library entry O      S cc-pVDZ              selected for orbital group  2
 Library entry O      P cc-pVDZ              selected for orbital group  2
 Library entry O      D cc-pVDZ              selected for orbital group  2
 Library entry H      S cc-pVDZ              selected for orbital group  3
 Library entry H      P cc-pVDZ              selected for orbital group  3

1PROGRAM * SEWARD (Integral evaluation for generally contracted gaussian basis sets)     Author: Roland Lindh, 1990

 Geometry written to block  1 of record 700


 Point group  C1  



 ATOMIC COORDINATES

 NR  ATOM    CHARGE       X              Y              Z

   1  C       6.00   -1.375299364   -0.022763365   -0.001555591
   2  O       8.00    1.307047030    0.121072759   -0.000210836
   3  H       1.00   -2.077422565    1.903576890   -0.004513096
   4  H       1.00   -2.109913529   -0.981562830    1.688856679
   5  H       1.00   -2.109201093   -0.972986299   -1.682785328
   6  H       1.00    1.941065360   -1.577469276    0.000199762

 Bond lengths in Bohr (Angstrom)

 1-2  2.686200442  1-3  2.050310346  1-4  2.077606321  1-5  2.065930493  2-6  1.813015294
     ( 1.421476052)     ( 1.084977507)     ( 1.099421915)     ( 1.093243332)     ( 0.959406373)

 Bond angles

  1-2-6  107.39975768   2-1-3  106.95664453   2-1-4  112.17169716   2-1-5  112.31922433

  3-1-4  108.28099236   3-1-5  108.01788220   4-1-5  108.92043676

 NUCLEAR CHARGE:                   18
 NUMBER OF PRIMITIVE AOS:          82
 NUMBER OF SYMMETRY AOS:           80
 NUMBER OF CONTRACTIONS:           48   (  48A   )
 NUMBER OF CORE ORBITALS:           2   (   2A   )
 NUMBER OF VALENCE ORBITALS:       12   (  12A   )


 NUCLEAR REPULSION ENERGY   40.30052291


 Eigenvalues of metric

         1 0.966E-02 0.176E-01 0.366E-01 0.377E-01 0.381E-01 0.474E-01 0.481E-01 0.514E-01


 Contracted 2-electron integrals neglected if value below      1.0D-16
 AO integral compression algorithm  1   Integral accuracy      1.0D-16

     6.816 MB (compressed) written to integral file (100.0%)

     Node minimum: 6.816 MB, node maximum: 6.816 MB


 NUMBER OF SORTED TWO-ELECTRON INTEGRALS:     692076.     BUFFER LENGTH:  32768
 NUMBER OF SEGMENTS:   1  SEGMENT LENGTH:     692076      RECORD LENGTH: 524288

 Memory used in sort:       1.25 MW

 SORT1 READ      832256. AND WROTE      682150. INTEGRALS IN      2 RECORDS. CPU TIME:     0.01 SEC, REAL TIME:     0.01 SEC
 SORT2 READ      682150. AND WROTE      692076. INTEGRALS IN     26 RECORDS. CPU TIME:     0.01 SEC, REAL TIME:     0.02 SEC

 FILE SIZES:   FILE 1:     8.4 MBYTE,  FILE 4:     8.4 MBYTE,   TOTAL:     16.8 MBYTE

 OPERATOR DM      FOR CENTER  0  COORDINATES:    0.000000    0.000000    0.000000


 **********************************************************************************************************************************
 DATASETS  * FILE   NREC   LENGTH (MB)   RECORD NAMES
              1      19        8.40       500      610      700      900      950      970     1000      129      960     1100   
                                          VAR    BASINP    GEOM    SYMINP    ZMAT    AOBASIS   BASIS     P2S    ABASIS      S 
                                         1400     1410     1200     1210     1080     1600     1650     1300     1700   
                                           T        V       H0       H01     AOSYM     SMH    MOLCAS    ERIS     OPER   

 PROGRAMS   *        TOTAL       INT
 CPU TIMES  *         0.18      0.14
 REAL TIME  *         0.39 SEC
 DISK USED  *        24.24 MB      
 GA USED    *         0.00 MB       (max)       0.00 MB       (current)
 **********************************************************************************************************************************

1PROGRAM * RHF-SCF (CLOSED SHELL)       Authors: W. Meyer, H.-J. Werner


 NUMBER OF ELECTRONS:       9+    9-    SPACE SYMMETRY=1    SPIN SYMMETRY: Singlet 
 CONVERGENCE THRESHOLDS:    1.00E-10 (Density)    1.00E-13 (Energy)
 MAX. NUMBER OF ITERATIONS:      200
 INTERPOLATION TYPE:            DIIS
 INTERPOLATION STEPS:              2 (START)      1 (STEP)
 LEVEL SHIFTS:                  0.00 (CLOSED)  0.00 (OPEN) 



 Orbital guess generated from atomic densities. Full valence occupancy:   14

 Molecular orbital dump at record        2100.2

 ITERATION    DDIFF          GRAD             ENERGY        2-EL.EN.            DIPOLE MOMENTS         DIIS
    1      0.000D+00      0.000D+00      -115.01417738    164.373899   -0.49680   -0.90111    0.00003    0
    2      0.000D+00      0.110D-01      -115.04254377    162.155513   -0.31766   -0.53435   -0.00189    1
    3      0.205D-01      0.530D-02      -115.04857960    163.180322   -0.40150   -0.60913   -0.00223    2
    4      0.639D-02      0.112D-02      -115.04904318    163.024245   -0.39130   -0.59776   -0.00253    3
    5      0.204D-02      0.202D-03      -115.04906418    163.030648   -0.39411   -0.59338   -0.00265    4
    6      0.433D-03      0.354D-04      -115.04906497    163.030813   -0.39441   -0.59315   -0.00267    5
    7      0.930D-04      0.735D-05      -115.04906500    163.029621   -0.39454   -0.59298   -0.00268    6
    8      0.150D-04      0.237D-05      -115.04906500    163.030002   -0.39458   -0.59295   -0.00268    7
    9      0.503D-05      0.487D-06      -115.04906500    163.029961   -0.39459   -0.59295   -0.00268    6
   10      0.140D-05      0.864D-07      -115.04906500    163.029960   -0.39459   -0.59295   -0.00268    6
   11      0.232D-06      0.322D-07      -115.04906500    163.029965   -0.39460   -0.59295   -0.00268    6
   12      0.582D-07      0.134D-07      -115.04906500    163.029963   -0.39460   -0.59295   -0.00268    7
   13      0.249D-07      0.300D-08      -115.04906500    163.029964   -0.39460   -0.59295   -0.00268    7
   14      0.746D-08      0.649D-09      -115.04906500    163.029964   -0.39460   -0.59295   -0.00268    7
   15      0.166D-08      0.151D-09      -115.04906500    163.029964   -0.39460   -0.59295   -0.00268    7
   16      0.336D-09      0.458D-10      -115.04906500    163.029964   -0.39460   -0.59295   -0.00268    7
   17      0.887D-10      0.167D-10      -115.04906500    163.029964   -0.39460   -0.59295   -0.00268    7
   18      0.427D-10      0.328D-11      -115.04906500    163.029964   -0.39460   -0.59295   -0.00268    7
   19      0.758D-11      0.877D-12      -115.04906500    163.029964   -0.39460   -0.59295   -0.00268    7
   20      0.208D-11      0.384D-12      -115.04906500    163.029964   -0.39460   -0.59295   -0.00268    7
   21      0.698D-12      0.141D-12      -115.04906500    163.029964   -0.39460   -0.59295   -0.00268    7
   22      0.296D-12      0.354D-13      -115.04906500    163.029964   -0.39460   -0.59295   -0.00268    7
   23      0.881D-13      0.103D-13      -115.04906500    163.029964   -0.39460   -0.59295   -0.00268    0

 Final occupancy:   9

 !RHF STATE 1.1 Energy               -115.049065003222
 Nuclear energy                        40.30052291
 One-electron energy                 -236.86456977
 Two-electron energy                   81.51498186
 Virial quotient                       -1.00092744
 !RHF STATE 1.1 Dipole moment          -0.39459617    -0.59295092    -0.00268053
 Dipole moment /Debye                  -1.00289773    -1.50703220    -0.00681278

 Orbital energies:

         1.1          2.1          3.1          4.1          5.1          6.1          7.1          8.1          9.1         10.1
    -20.549945   -11.274705    -1.349671    -0.921480    -0.682424    -0.613406    -0.585371    -0.497236    -0.443064     0.184582

        11.1
      0.224414


 **********************************************************************************************************************************
 DATASETS  * FILE   NREC   LENGTH (MB)   RECORD NAMES
              1      19        8.40       500      610      700      900      950      970     1000      129      960     1100   
                                          VAR    BASINP    GEOM    SYMINP    ZMAT    AOBASIS   BASIS     P2S    ABASIS      S 
                                         1400     1410     1200     1210     1080     1600     1650     1300     1700   
                                           T        V       H0       H01     AOSYM     SMH    MOLCAS    ERIS     OPER   

              2       3        0.39       700     1000     2100   
                                         GEOM     BASIS     RHF  

 PROGRAMS   *        TOTAL       RHF       INT
 CPU TIMES  *         0.27      0.09      0.14
 REAL TIME  *         0.52 SEC
 DISK USED  *        24.24 MB      
 GA USED    *         0.00 MB       (max)       0.00 MB       (current)
 **********************************************************************************************************************************


1PROGRAM * CCSD (Closed-shell coupled cluster)     Authors: C. Hampel, H.-J. Werner, 1991, M. Deegan, P.J. Knowles, 1992


 Convergence thresholds:  THRVAR = 1.00D-08  THRDEN = 1.00D-12

 CCSD(T)     terms to be evaluated (factor= 1.000)


 Number of core orbitals:           2 (   2 )
 Number of closed-shell orbitals:   7 (   7 )
 Number of external orbitals:      39 (  39 )

 Molecular orbitals read from record     2100.2  Type=RHF/CANONICAL (state 1.1)

 Number of N-1 electron functions:               7
 Number of N-2 electron functions:              28
 Number of singly external CSFs:               273
 Number of doubly external CSFs:             37401
 Total number of CSFs:                       37675

 Length of J-op  integral file:               0.00 MB
 Length of K-op  integral file:               0.19 MB
 Length of 3-ext integral record:             0.00 MB

 Memory could be reduced to 0.96 Mwords without degradation in triples

 Integral transformation finished. Total CPU:   0.01 sec, npass=  1  Memory used:   0.66 MW

 Reference energy:                   -115.04906500

 MP2 singlet pair energy:              -0.21865379
 MP2 triplet pair energy:              -0.11983807
 MP2 correlation energy:               -0.33849186
 MP2 total energy:                   -115.38755686

 SCS-MP2 correlation energy:           -0.33695046   (PS=  1.200000  PT=  0.333333)
 SCS-MP2 total energy:               -115.38601546

 ITER.      SQ.NORM     CORR.ENERGY   TOTAL ENERGY   ENERGY CHANGE        DEN1      VAR(S)    VAR(P)  DIIS     TIME
   1      1.10734254    -0.36128891  -115.41035391    -0.02279705    -0.01411348  0.91D-03  0.17D-02  1  1     0.04
   2      1.11587148    -0.36323422  -115.41229922    -0.00194531    -0.00925235  0.20D-04  0.16D-03  2  2     0.08
   3      1.11775538    -0.36336168  -115.41242668    -0.00012746    -0.00120536  0.95D-05  0.86D-05  3  3     0.11
   4      1.11827157    -0.36336029  -115.41242529     0.00000139    -0.00025536  0.34D-06  0.68D-06  4  4     0.14
   5      1.11837009    -0.36336068  -115.41242569    -0.00000040    -0.00003618  0.10D-06  0.49D-07  5  5     0.18
   6      1.11838927    -0.36335932  -115.41242433     0.00000136    -0.00000439  0.16D-07  0.41D-08  6  6     0.21
   7      1.11839406    -0.36335890  -115.41242390     0.00000042    -0.00000035  0.20D-08  0.73D-09  6  1     0.24
   8      1.11839534    -0.36335900  -115.41242401    -0.00000010     0.00000075  0.26D-09  0.73D-10  6  3     0.28
   9      1.11839641    -0.36335888  -115.41242388     0.00000012    -0.00000038  0.13D-10  0.10D-10  6  2     0.31
  10      1.11839633    -0.36335888  -115.41242388    -0.00000000     0.00000007  0.11D-11  0.88D-12  6  5     0.35
  11      1.11839636    -0.36335888  -115.41242388     0.00000000    -0.00000000  0.19D-12  0.51D-13  6  4     0.38
  12      1.11839635    -0.36335888  -115.41242388    -0.00000000     0.00000001  0.19D-13  0.10D-13  6  1     0.41
  13      1.11839635    -0.36335888  -115.41242388    -0.00000000    -0.00000000  0.24D-14  0.96D-15  6  6     0.44
  14      1.11839635    -0.36335888  -115.41242388     0.00000000    -0.00000000  0.24D-15  0.13D-15  6  3     0.47
  15      1.11839635    -0.36335888  -115.41242388    -0.00000000    -0.00000000  0.32D-16  0.17D-16  6  2     0.51
  16      1.11839635    -0.36335888  -115.41242388    -0.00000000    -0.00000000  0.75D-17  0.19D-17  6  5     0.54
  17      1.11839635    -0.36335888  -115.41242388    -0.00000000    -0.00000000  0.99D-18  0.31D-18  6  4     0.57
  18      1.11839635    -0.36335888  -115.41242388     0.00000000    -0.00000000  0.18D-18  0.62D-19  6  1     0.61
  19      1.11839635    -0.36335888  -115.41242388    -0.00000000    -0.00000000  0.30D-19  0.71D-20  6  6     0.64
  20      1.11839635    -0.36335888  -115.41242388     0.00000000     0.00000000  0.54D-20  0.14D-20  6  3     0.67

 Norm of t1 vector:      0.04170139      S-energy:    -0.00000000      T1 diagnostic:  0.00788082
                                                                       D1 diagnostic:  0.01753920


 Total CPU time for triples:      0.17 sec


 RESULTS
 =======

  Reference energy                   -115.049065003222
  CCSD singlet pair energy             -0.254609820688
  CCSD triplet pair energy             -0.108749060124
  CCSD correlation energy              -0.363358880813

  Triples (T) contribution             -0.007740697815
  Total correlation energy             -0.371099578628

  CCSD total energy                  -115.412423884035
  CCSD[T] energy                     -115.420454951103
  CCSD-T energy                      -115.420014427921
 !CCSD(T) total energy               -115.420164581850

 Timing summary (sec):

 STEP                 CPU(USER)    SYS     CPU(TOT)    WALL
 Transformation          0.01      0.01      0.02      0.02
 CCSD iterations         0.66      0.04      0.70      0.73
 Triples                 0.17      0.00      0.17      0.18

 Program statistics:

 Available memory in ccsd:               999999704
 Min. memory needed in ccsd:                136801
 Max. memory used in ccsd:                  163198
 Max. memory used in cckext:                182024 (20 integral passes)



 **********************************************************************************************************************************
 DATASETS  * FILE   NREC   LENGTH (MB)   RECORD NAMES
              1      20       10.94       500      610      700      900      950      970     1000      129      960     1100   
                                          VAR    BASINP    GEOM    SYMINP    ZMAT    AOBASIS   BASIS     P2S    ABASIS      S 
                                         1400     1410     1200     1210     1080     1600     1650     1300     1700     1380   
                                           T        V       H0       H01     AOSYM     SMH    MOLCAS    ERIS     OPER     JKOP   

              2       3        0.39       700     1000     2100   
                                         GEOM     BASIS     RHF  

 PROGRAMS   *        TOTAL   CCSD(T)       RHF       INT
 CPU TIMES  *         1.13      0.84      0.09      0.14
 REAL TIME  *         1.47 SEC
 DISK USED  *        25.67 MB      
 GA USED    *         0.00 MB       (max)       0.00 MB       (current)
 **********************************************************************************************************************************

        CCSD(T)         RHF-SCF 
   -115.42016458   -115.04906500
 **********************************************************************************************************************************
 Variable memory released
