
 Primary working directories    : /tmp/601555.19.gen4.q
 Secondary working directories  : /tmp/601555.19.gen4.q
 Wavefunction directory         : /home/vulcan/mel64643/wfu/
 Main file repository           : /tmp/601555.19.gen4.q/

 ARCHNAME  : Linux/x86_64
 FC        : /opt/intel/compilers_and_libraries_2016.1.150/linux/bin/intel64/ifort
 FCVERSION : 16.0.1
 BLASLIB   : -mkl
 id        : ccgc

 Nodes     nprocs
 n054         1
 ga_uses_ma=false, calling ma_init with nominal heap.
 GA-space will be limited to   8.0 MW (determined by -G option)

 Using customized tuning parameters: mindgm=10; mindgv=16; mindgc=4; mindgr=1; noblas=0; mincuda=1000; minvec=7
 default implementation of scratch files=df  

 ***,Optimization of min3
 memory,1000,m
 gthresh,energy=1.0d-12,orbital=1.0d-10,oneint=1.0d-16,twoint=1.0d-16,optgrad=1.0d-6,compress=1.0d-13
 geomtyp=xyz
 
  bohr
  geometry = {
  6
  arbitrary comment
  C   -1.3749692429   -0.0217281199    0.0000002673
  O    1.3075132460    0.1204150527    0.0000003281
  H   -2.0774960317    1.9141803406   -0.0000801100
  H   -2.1095151671   -0.9829781778    1.6866848050
  H   -2.1095081597   -0.9831097914   -1.6866123843
  H    1.9402511954   -1.5769114242   -0.0000013161
 }
 
 basis=cc-pvdz
 {rhf;maxit,200}
 {ccsd(t);maxit,200}

 Variables initialized (661), CPU time= 0.01 sec
 Commands  initialized (458), CPU time= 0.00 sec, 486 directives.
 Default parameters read. Elapsed time= 0.05 sec

 Checking input...
 Passed
1


                                         ***  PROGRAM SYSTEM MOLPRO  ***
                         Copyright, University College Cardiff Consultants Limited, 2008

                                    Version 2010.1 linked May 16 2016 07:17:05


 **********************************************************************************************************************************
 LABEL *   Optimization of min3                                                          
 Linux-4.4.3/n054(x86_64) 64 bit mpp version                                             DATE: 06-Nov-21          TIME: 15:38:46  
 **********************************************************************************************************************************

 SHA1:             9e8077add272b0f3cad6f7df79ec5211205f459d
 **********************************************************************************************************************************

 THRESHOLDS:

 ZERO    =  1.00D-12  ONEINT  =  1.00D-16  TWOINT  =  1.00D-16  PREFAC  =  1.00D-14  LOCALI  =  1.00D-09  EORDER  =  1.00D-04
 ENERGY  =  1.00D-12  ETEST   =  0.00D+00  EDENS   =  0.00D+00  THRDEDEF=  1.00D-06  GRADIENT=  1.00D-02  STEP    =  1.00D-03
 ORBITAL =  1.00D-10  CIVEC   =  1.00D-05  COEFF   =  1.00D-04  PRINTCI =  5.00D-02  PUNCHCI =  9.90D+01  OPTGRAD =  1.00D-06
 OPTENERG=  1.00D-06  OPTSTEP =  3.00D-04  THRGRAD =  1.00D-10  COMPRESS=  1.00D-13  VARMIN  =  1.00D-07  VARMAX  =  1.00D-03
 THRDOUB =  0.00D+00  THRDIV  =  1.00D-05  THRRED  =  1.00D-07  THRPSP  =  1.00D+00  THRDC   =  1.00D-10  THRCS   =  1.00D-10
 THRNRM  =  1.00D-08  THREQ   =  0.00D+00  THRDE   =  1.00D+00  THRREF  =  1.00D-05  SPARFAC =  1.00D+00  THRDLP  =  1.00D-07
 THRDIA  =  1.00D-10  THRDLS  =  1.00D-07  THRGPS  =  0.00D+00  THRKEX  =  0.00D+00  THRDIS  =  2.00D-01  THRVAR  =  1.00D-10
 THRLOC  =  1.00D-06  THRGAP  =  1.00D-06  THRLOCT = -1.00D+00  THRGAPT = -1.00D+00  THRORB  =  1.00D-06  THRMLTP =  0.00D+00
 THRCPQCI=  1.00D-10  KEXTA   =  0.00D+00  THRCOARS=  0.00D+00  SYMTOL  =  1.00D-06  GRADTOL =  1.00D-06  THROVL  =  1.00D-08
 THRORTH =  1.00D-08  GRID    =  1.00D-06  GRIDMAX =  1.00D-03  DTMAX   =  0.00D+00

 SETTING GEOMTYP        =    XYZ
 ZUNIT=BOHR
 

 Variable memory set to 1000000000 words,  buffer space   230000 words

 SETTING BASIS          =    CC-PVDZ


 Recomputing integrals since basis changed


 Using spherical harmonics

 Library entry C      S cc-pVDZ              selected for orbital group  1
 Library entry C      P cc-pVDZ              selected for orbital group  1
 Library entry C      D cc-pVDZ              selected for orbital group  1
 Library entry O      S cc-pVDZ              selected for orbital group  2
 Library entry O      P cc-pVDZ              selected for orbital group  2
 Library entry O      D cc-pVDZ              selected for orbital group  2
 Library entry H      S cc-pVDZ              selected for orbital group  3
 Library entry H      P cc-pVDZ              selected for orbital group  3

1PROGRAM * SEWARD (Integral evaluation for generally contracted gaussian basis sets)     Author: Roland Lindh, 1990

 Geometry written to block  1 of record 700


 Point group  C1  



 ATOMIC COORDINATES

 NR  ATOM    CHARGE       X              Y              Z

   1  C       6.00   -1.374969243   -0.021728120    0.000000267
   2  O       8.00    1.307513246    0.120415053    0.000000328
   3  H       1.00   -2.077496032    1.914180341   -0.000080110
   4  H       1.00   -2.109515167   -0.982978178    1.686684805
   5  H       1.00   -2.109508160   -0.983109791   -1.686612384
   6  H       1.00    1.940251195   -1.576911424   -0.000001316

 Bond lengths in Bohr (Angstrom)

 1-2  2.686245891  1-3  2.059438143  1-4  2.075684012  1-5  2.075684074  2-6  1.811428851
     ( 1.421500103)     ( 1.089807728)     ( 1.098404672)     ( 1.098404705)     ( 0.958566864)

 Bond angles

  1-2-6  107.41147064   2-1-3  106.91222529   2-1-4  112.20308364   2-1-5  112.20308423

  3-1-4  108.33886228   3-1-5  108.33870043   4-1-5  108.69653393

 NUCLEAR CHARGE:                   18
 NUMBER OF PRIMITIVE AOS:          82
 NUMBER OF SYMMETRY AOS:           80
 NUMBER OF CONTRACTIONS:           48   (  48A   )
 NUMBER OF CORE ORBITALS:           2   (   2A   )
 NUMBER OF VALENCE ORBITALS:       12   (  12A   )


 NUCLEAR REPULSION ENERGY   40.27238939


 Eigenvalues of metric

         1 0.968E-02 0.177E-01 0.371E-01 0.378E-01 0.381E-01 0.478E-01 0.483E-01 0.517E-01


 Contracted 2-electron integrals neglected if value below      1.0D-16
 AO integral compression algorithm  1   Integral accuracy      1.0D-16

     6.291 MB (compressed) written to integral file ( 98.3%)

     Node minimum: 6.291 MB, node maximum: 6.291 MB


 NUMBER OF SORTED TWO-ELECTRON INTEGRALS:     692076.     BUFFER LENGTH:  32768
 NUMBER OF SEGMENTS:   1  SEGMENT LENGTH:     692076      RECORD LENGTH: 524288

 Memory used in sort:       1.25 MW

 SORT1 READ      832256. AND WROTE      682148. INTEGRALS IN      2 RECORDS. CPU TIME:     0.01 SEC, REAL TIME:     0.01 SEC
 SORT2 READ      682148. AND WROTE      692076. INTEGRALS IN     24 RECORDS. CPU TIME:     0.02 SEC, REAL TIME:     0.02 SEC

 FILE SIZES:   FILE 1:     8.0 MBYTE,  FILE 4:     8.4 MBYTE,   TOTAL:     16.4 MBYTE

 OPERATOR DM      FOR CENTER  0  COORDINATES:    0.000000    0.000000    0.000000


 **********************************************************************************************************************************
 DATASETS  * FILE   NREC   LENGTH (MB)   RECORD NAMES
              1      19        8.03       500      610      700      900      950      970     1000      129      960     1100   
                                          VAR    BASINP    GEOM    SYMINP    ZMAT    AOBASIS   BASIS     P2S    ABASIS      S 
                                         1400     1410     1200     1210     1080     1600     1650     1300     1700   
                                           T        V       H0       H01     AOSYM     SMH    MOLCAS    ERIS     OPER   

 PROGRAMS   *        TOTAL       INT
 CPU TIMES  *         0.22      0.17
 REAL TIME  *         0.41 SEC
 DISK USED  *        23.34 MB      
 GA USED    *         0.00 MB       (max)       0.00 MB       (current)
 **********************************************************************************************************************************

1PROGRAM * RHF-SCF (CLOSED SHELL)       Authors: W. Meyer, H.-J. Werner


 NUMBER OF ELECTRONS:       9+    9-    SPACE SYMMETRY=1    SPIN SYMMETRY: Singlet 
 CONVERGENCE THRESHOLDS:    1.00E-10 (Density)    1.00E-13 (Energy)
 MAX. NUMBER OF ITERATIONS:      200
 INTERPOLATION TYPE:            DIIS
 INTERPOLATION STEPS:              2 (START)      1 (STEP)
 LEVEL SHIFTS:                  0.00 (CLOSED)  0.00 (OPEN) 



 Orbital guess generated from atomic densities. Full valence occupancy:   14

 Molecular orbital dump at record        2100.2

 ITERATION    DDIFF          GRAD             ENERGY        2-EL.EN.            DIPOLE MOMENTS         DIIS
    1      0.000D+00      0.000D+00      -115.01418597    164.316022   -0.49768   -0.90021   -0.00000    0
    2      0.000D+00      0.110D-01      -115.04255415    162.103767   -0.31642   -0.53444   -0.00000    1
    3      0.205D-01      0.531D-02      -115.04861625    163.126520   -0.40051   -0.60928   -0.00000    2
    4      0.640D-02      0.112D-02      -115.04907905    162.970854   -0.39013   -0.59812   -0.00000    3
    5      0.204D-02      0.202D-03      -115.04909996    162.977450   -0.39286   -0.59379   -0.00000    4
    6      0.433D-03      0.352D-04      -115.04910075    162.977471   -0.39314   -0.59357   -0.00000    5
    7      0.924D-04      0.719D-05      -115.04910078    162.976333   -0.39326   -0.59340   -0.00000    6
    8      0.148D-04      0.231D-05      -115.04910078    162.976711   -0.39329   -0.59338   -0.00000    7
    9      0.487D-05      0.484D-06      -115.04910078    162.976668   -0.39330   -0.59338   -0.00000    6
   10      0.139D-05      0.842D-07      -115.04910078    162.976667   -0.39331   -0.59338   -0.00000    6
   11      0.228D-06      0.315D-07      -115.04910078    162.976673   -0.39331   -0.59338   -0.00000    6
   12      0.572D-07      0.129D-07      -115.04910078    162.976671   -0.39331   -0.59338   -0.00000    7
   13      0.238D-07      0.291D-08      -115.04910078    162.976671   -0.39331   -0.59338   -0.00000    7
   14      0.724D-08      0.634D-09      -115.04910078    162.976671   -0.39331   -0.59338   -0.00000    7
   15      0.163D-08      0.145D-09      -115.04910078    162.976671   -0.39331   -0.59338   -0.00000    7
   16      0.322D-09      0.430D-10      -115.04910078    162.976671   -0.39331   -0.59338   -0.00000    7
   17      0.838D-10      0.141D-10      -115.04910078    162.976671   -0.39331   -0.59338   -0.00000    0

 Final occupancy:   9

 !RHF STATE 1.1 Energy               -115.049100782412
 Nuclear energy                        40.27238939
 One-electron energy                 -236.80982565
 Two-electron energy                   81.48833548
 Virial quotient                       -1.00102496
 !RHF STATE 1.1 Dipole moment          -0.39330655    -0.59338008    -0.00000284
 Dipole moment /Debye                  -0.99962005    -1.50812295    -0.00000722

 Orbital energies:

         1.1          2.1          3.1          4.1          5.1          6.1          7.1          8.1          9.1         10.1
    -20.549989   -11.275780    -1.349967    -0.920515    -0.682664    -0.612819    -0.584881    -0.497152    -0.442809     0.184391

        11.1
      0.224348


 **********************************************************************************************************************************
 DATASETS  * FILE   NREC   LENGTH (MB)   RECORD NAMES
              1      19        8.03       500      610      700      900      950      970     1000      129      960     1100   
                                          VAR    BASINP    GEOM    SYMINP    ZMAT    AOBASIS   BASIS     P2S    ABASIS      S 
                                         1400     1410     1200     1210     1080     1600     1650     1300     1700   
                                           T        V       H0       H01     AOSYM     SMH    MOLCAS    ERIS     OPER   

              2       3        0.39       700     1000     2100   
                                         GEOM     BASIS     RHF  

 PROGRAMS   *        TOTAL       RHF       INT
 CPU TIMES  *         0.31      0.09      0.17
 REAL TIME  *         0.53 SEC
 DISK USED  *        23.34 MB      
 GA USED    *         0.00 MB       (max)       0.00 MB       (current)
 **********************************************************************************************************************************


1PROGRAM * CCSD (Closed-shell coupled cluster)     Authors: C. Hampel, H.-J. Werner, 1991, M. Deegan, P.J. Knowles, 1992


 Convergence thresholds:  THRVAR = 1.00D-08  THRDEN = 1.00D-12

 CCSD(T)     terms to be evaluated (factor= 1.000)


 Number of core orbitals:           2 (   2 )
 Number of closed-shell orbitals:   7 (   7 )
 Number of external orbitals:      39 (  39 )

 Molecular orbitals read from record     2100.2  Type=RHF/CANONICAL (state 1.1)

 Number of N-1 electron functions:               7
 Number of N-2 electron functions:              28
 Number of singly external CSFs:               273
 Number of doubly external CSFs:             37401
 Total number of CSFs:                       37675

 Length of J-op  integral file:               0.00 MB
 Length of K-op  integral file:               0.19 MB
 Length of 3-ext integral record:             0.00 MB

 Memory could be reduced to 0.96 Mwords without degradation in triples

 Integral transformation finished. Total CPU:   0.02 sec, npass=  1  Memory used:   0.66 MW

 Reference energy:                   -115.04910078

 MP2 singlet pair energy:              -0.21874777
 MP2 triplet pair energy:              -0.11983754
 MP2 correlation energy:               -0.33858531
 MP2 total energy:                   -115.38768609

 SCS-MP2 correlation energy:           -0.33706290   (PS=  1.200000  PT=  0.333333)
 SCS-MP2 total energy:               -115.38616368

 ITER.      SQ.NORM     CORR.ENERGY   TOTAL ENERGY   ENERGY CHANGE        DEN1      VAR(S)    VAR(P)  DIIS     TIME
   1      1.10749235    -0.36140593  -115.41050671    -0.02282061    -0.01412075  0.92D-03  0.17D-02  1  1     0.05
   2      1.11605323    -0.36335763  -115.41245841    -0.00195171    -0.00926938  0.20D-04  0.16D-03  2  2     0.09
   3      1.11794877    -0.36348626  -115.41258704    -0.00012862    -0.00121068  0.96D-05  0.87D-05  3  3     0.13
   4      1.11846832    -0.36348492  -115.41258570     0.00000134    -0.00025670  0.34D-06  0.68D-06  4  4     0.17
   5      1.11856751    -0.36348534  -115.41258612    -0.00000042    -0.00003636  0.10D-06  0.50D-07  5  5     0.21
   6      1.11858682    -0.36348398  -115.41258476     0.00000136    -0.00000443  0.16D-07  0.42D-08  6  6     0.24
   7      1.11859160    -0.36348355  -115.41258433     0.00000042    -0.00000035  0.20D-08  0.73D-09  6  1     0.28
   8      1.11859288    -0.36348365  -115.41258444    -0.00000010     0.00000075  0.26D-09  0.73D-10  6  3     0.32
   9      1.11859395    -0.36348353  -115.41258431     0.00000012    -0.00000039  0.13D-10  0.11D-10  6  2     0.36
  10      1.11859387    -0.36348353  -115.41258431    -0.00000000     0.00000007  0.11D-11  0.89D-12  6  5     0.40
  11      1.11859391    -0.36348353  -115.41258431     0.00000000    -0.00000000  0.19D-12  0.51D-13  6  4     0.44
  12      1.11859389    -0.36348353  -115.41258431    -0.00000000     0.00000001  0.19D-13  0.10D-13  6  1     0.48
  13      1.11859389    -0.36348353  -115.41258431    -0.00000000    -0.00000000  0.24D-14  0.94D-15  6  6     0.52
  14      1.11859389    -0.36348353  -115.41258431     0.00000000    -0.00000000  0.23D-15  0.13D-15  6  3     0.55
  15      1.11859389    -0.36348353  -115.41258431    -0.00000000    -0.00000000  0.25D-16  0.17D-16  6  2     0.59
  16      1.11859389    -0.36348353  -115.41258431    -0.00000000    -0.00000000  0.56D-17  0.16D-17  6  5     0.63
  17      1.11859389    -0.36348353  -115.41258431    -0.00000000    -0.00000000  0.54D-18  0.26D-18  6  4     0.67
  18      1.11859389    -0.36348353  -115.41258431     0.00000000    -0.00000000  0.84D-19  0.43D-19  6  1     0.70
  19      1.11859389    -0.36348353  -115.41258431    -0.00000000    -0.00000000  0.94D-20  0.43D-20  6  6     0.74
  20      1.11859389    -0.36348353  -115.41258431     0.00000000     0.00000000  0.13D-20  0.56D-21  6  3     0.78

 Norm of t1 vector:      0.04173624      S-energy:    -0.00000000      T1 diagnostic:  0.00788741
                                                                       D1 diagnostic:  0.01752422


 Total CPU time for triples:      0.20 sec


 RESULTS
 =======

  Reference energy                   -115.049100782411
  CCSD singlet pair energy             -0.254755033363
  CCSD triplet pair energy             -0.108728498353
  CCSD correlation energy              -0.363483531717

  Triples (T) contribution             -0.007753310739
  Total correlation energy             -0.371236842456

  CCSD total energy                  -115.412584314128
  CCSD[T] energy                     -115.420629243518
  CCSD-T energy                      -115.420186781440
 !CCSD(T) total energy               -115.420337624867

 Timing summary (sec):

 STEP                 CPU(USER)    SYS     CPU(TOT)    WALL
 Transformation          0.02      0.01      0.03      0.03
 CCSD iterations         0.76      0.05      0.81      0.83
 Triples                 0.20      0.00      0.20      0.21

 Program statistics:

 Available memory in ccsd:               999999704
 Min. memory needed in ccsd:                136801
 Max. memory used in ccsd:                  163198
 Max. memory used in cckext:                182024 (20 integral passes)



 **********************************************************************************************************************************
 DATASETS  * FILE   NREC   LENGTH (MB)   RECORD NAMES
              1      20       10.56       500      610      700      900      950      970     1000      129      960     1100   
                                          VAR    BASINP    GEOM    SYMINP    ZMAT    AOBASIS   BASIS     P2S    ABASIS      S 
                                         1400     1410     1200     1210     1080     1600     1650     1300     1700     1380   
                                           T        V       H0       H01     AOSYM     SMH    MOLCAS    ERIS     OPER     JKOP   

              2       3        0.39       700     1000     2100   
                                         GEOM     BASIS     RHF  

 PROGRAMS   *        TOTAL   CCSD(T)       RHF       INT
 CPU TIMES  *         1.30      0.99      0.09      0.17
 REAL TIME  *         1.63 SEC
 DISK USED  *        24.77 MB      
 GA USED    *         0.00 MB       (max)       0.00 MB       (current)
 **********************************************************************************************************************************

        CCSD(T)         RHF-SCF 
   -115.42033762   -115.04910078
 **********************************************************************************************************************************
 Variable memory released
