
 Primary working directories    : /tmp/601555.155.gen4.q
 Secondary working directories  : /tmp/601555.155.gen4.q
 Wavefunction directory         : /home/vulcan/mel64643/wfu/
 Main file repository           : /tmp/601555.155.gen4.q/

 ARCHNAME  : Linux/x86_64
 FC        : /opt/intel/compilers_and_libraries_2016.1.150/linux/bin/intel64/ifort
 FCVERSION : 16.0.1
 BLASLIB   : -mkl
 id        : ccgc

 Nodes     nprocs
 n040         1
 ga_uses_ma=false, calling ma_init with nominal heap.
 GA-space will be limited to   8.0 MW (determined by -G option)

 Using customized tuning parameters: mindgm=10; mindgv=16; mindgc=4; mindgr=1; noblas=0; mincuda=1000; minvec=7
 default implementation of scratch files=df  

 ***,Optimization of min3
 memory,1000,m
 gthresh,energy=1.0d-12,orbital=1.0d-10,oneint=1.0d-16,twoint=1.0d-16,optgrad=1.0d-6,compress=1.0d-13
 geomtyp=xyz
 
  bohr
  geometry = {
  6
  arbitrary comment
  C   -1.3721418585   -0.0232482935    0.0000003504
  O    1.3062164507    0.1229136309    0.0000003084
  H   -2.0861990573    1.9096889804   -0.0000798807
  H   -2.1001238611   -0.9782341960    1.6829029358
  H   -2.1001161075   -0.9783655116   -1.6828308341
  H    1.9286402737   -1.5828867303   -0.0000012897
 }
 
 basis=cc-pvdz
 {rhf;maxit,200}
 {ccsd(t);maxit,200}

 Variables initialized (661), CPU time= 0.00 sec
 Commands  initialized (458), CPU time= 0.00 sec, 486 directives.
 Default parameters read. Elapsed time= 0.06 sec

 Checking input...
 Passed
1


                                         ***  PROGRAM SYSTEM MOLPRO  ***
                         Copyright, University College Cardiff Consultants Limited, 2008

                                    Version 2010.1 linked May 16 2016 07:17:05


 **********************************************************************************************************************************
 LABEL *   Optimization of min3                                                          
 Linux-4.4.3/n040(x86_64) 64 bit mpp version                                             DATE: 06-Nov-21          TIME: 15:40:46  
 **********************************************************************************************************************************

 SHA1:             9e8077add272b0f3cad6f7df79ec5211205f459d
 **********************************************************************************************************************************

 THRESHOLDS:

 ZERO    =  1.00D-12  ONEINT  =  1.00D-16  TWOINT  =  1.00D-16  PREFAC  =  1.00D-14  LOCALI  =  1.00D-09  EORDER  =  1.00D-04
 ENERGY  =  1.00D-12  ETEST   =  0.00D+00  EDENS   =  0.00D+00  THRDEDEF=  1.00D-06  GRADIENT=  1.00D-02  STEP    =  1.00D-03
 ORBITAL =  1.00D-10  CIVEC   =  1.00D-05  COEFF   =  1.00D-04  PRINTCI =  5.00D-02  PUNCHCI =  9.90D+01  OPTGRAD =  1.00D-06
 OPTENERG=  1.00D-06  OPTSTEP =  3.00D-04  THRGRAD =  1.00D-10  COMPRESS=  1.00D-13  VARMIN  =  1.00D-07  VARMAX  =  1.00D-03
 THRDOUB =  0.00D+00  THRDIV  =  1.00D-05  THRRED  =  1.00D-07  THRPSP  =  1.00D+00  THRDC   =  1.00D-10  THRCS   =  1.00D-10
 THRNRM  =  1.00D-08  THREQ   =  0.00D+00  THRDE   =  1.00D+00  THRREF  =  1.00D-05  SPARFAC =  1.00D+00  THRDLP  =  1.00D-07
 THRDIA  =  1.00D-10  THRDLS  =  1.00D-07  THRGPS  =  0.00D+00  THRKEX  =  0.00D+00  THRDIS  =  2.00D-01  THRVAR  =  1.00D-10
 THRLOC  =  1.00D-06  THRGAP  =  1.00D-06  THRLOCT = -1.00D+00  THRGAPT = -1.00D+00  THRORB  =  1.00D-06  THRMLTP =  0.00D+00
 THRCPQCI=  1.00D-10  KEXTA   =  0.00D+00  THRCOARS=  0.00D+00  SYMTOL  =  1.00D-06  GRADTOL =  1.00D-06  THROVL  =  1.00D-08
 THRORTH =  1.00D-08  GRID    =  1.00D-06  GRIDMAX =  1.00D-03  DTMAX   =  0.00D+00

 SETTING GEOMTYP        =    XYZ
 ZUNIT=BOHR
 

 Variable memory set to 1000000000 words,  buffer space   230000 words

 SETTING BASIS          =    CC-PVDZ


 Recomputing integrals since basis changed


 Using spherical harmonics

 Library entry C      S cc-pVDZ              selected for orbital group  1
 Library entry C      P cc-pVDZ              selected for orbital group  1
 Library entry C      D cc-pVDZ              selected for orbital group  1
 Library entry O      S cc-pVDZ              selected for orbital group  2
 Library entry O      P cc-pVDZ              selected for orbital group  2
 Library entry O      D cc-pVDZ              selected for orbital group  2
 Library entry H      S cc-pVDZ              selected for orbital group  3
 Library entry H      P cc-pVDZ              selected for orbital group  3

1PROGRAM * SEWARD (Integral evaluation for generally contracted gaussian basis sets)     Author: Roland Lindh, 1990

 Geometry written to block  1 of record 700


 Point group  C1  



 ATOMIC COORDINATES

 NR  ATOM    CHARGE       X              Y              Z

   1  C       6.00   -1.372141859   -0.023248293    0.000000350
   2  O       8.00    1.306216451    0.122913631    0.000000308
   3  H       1.00   -2.086199057    1.909688980   -0.000079881
   4  H       1.00   -2.100123861   -0.978234196    1.682902936
   5  H       1.00   -2.100116107   -0.978365512   -1.682830834
   6  H       1.00    1.928640274   -1.582886730   -0.000001290

 Bond lengths in Bohr (Angstrom)

 1-2  2.682343479  1-3  2.060612577  1-4  2.067393766  1-5  2.067393577  2-6  1.815810091
     ( 1.419435036)     ( 1.090429213)     ( 1.094017663)     ( 1.094017563)     ( 0.960885316)

 Bond angles

  1-2-6  106.92273620   2-1-3  107.15140073   2-1-4  112.13393332   2-1-5  112.13391631

  3-1-4  108.13863500   3-1-5  108.13848563   4-1-5  108.97801281

 NUCLEAR CHARGE:                   18
 NUMBER OF PRIMITIVE AOS:          82
 NUMBER OF SYMMETRY AOS:           80
 NUMBER OF CONTRACTIONS:           48   (  48A   )
 NUMBER OF CORE ORBITALS:           2   (   2A   )
 NUMBER OF VALENCE ORBITALS:       12   (  12A   )


 NUCLEAR REPULSION ENERGY   40.32859989


 Eigenvalues of metric

         1 0.966E-02 0.176E-01 0.369E-01 0.374E-01 0.384E-01 0.473E-01 0.477E-01 0.518E-01


 Contracted 2-electron integrals neglected if value below      1.0D-16
 AO integral compression algorithm  1   Integral accuracy      1.0D-16

     6.291 MB (compressed) written to integral file ( 98.2%)

     Node minimum: 6.291 MB, node maximum: 6.291 MB


 NUMBER OF SORTED TWO-ELECTRON INTEGRALS:     692076.     BUFFER LENGTH:  32768
 NUMBER OF SEGMENTS:   1  SEGMENT LENGTH:     692076      RECORD LENGTH: 524288

 Memory used in sort:       1.25 MW

 SORT1 READ      832256. AND WROTE      682148. INTEGRALS IN      2 RECORDS. CPU TIME:     0.01 SEC, REAL TIME:     0.01 SEC
 SORT2 READ      682148. AND WROTE      692076. INTEGRALS IN     24 RECORDS. CPU TIME:     0.02 SEC, REAL TIME:     0.02 SEC

 FILE SIZES:   FILE 1:     8.0 MBYTE,  FILE 4:     8.4 MBYTE,   TOTAL:     16.4 MBYTE

 OPERATOR DM      FOR CENTER  0  COORDINATES:    0.000000    0.000000    0.000000


 **********************************************************************************************************************************
 DATASETS  * FILE   NREC   LENGTH (MB)   RECORD NAMES
              1      19        8.03       500      610      700      900      950      970     1000      129      960     1100   
                                          VAR    BASINP    GEOM    SYMINP    ZMAT    AOBASIS   BASIS     P2S    ABASIS      S 
                                         1400     1410     1200     1210     1080     1600     1650     1300     1700   
                                           T        V       H0       H01     AOSYM     SMH    MOLCAS    ERIS     OPER   

 PROGRAMS   *        TOTAL       INT
 CPU TIMES  *         0.34      0.28
 REAL TIME  *         0.52 SEC
 DISK USED  *        23.34 MB      
 GA USED    *         0.00 MB       (max)       0.00 MB       (current)
 **********************************************************************************************************************************

1PROGRAM * RHF-SCF (CLOSED SHELL)       Authors: W. Meyer, H.-J. Werner


 NUMBER OF ELECTRONS:       9+    9-    SPACE SYMMETRY=1    SPIN SYMMETRY: Singlet 
 CONVERGENCE THRESHOLDS:    1.00E-10 (Density)    1.00E-13 (Energy)
 MAX. NUMBER OF ITERATIONS:      200
 INTERPOLATION TYPE:            DIIS
 INTERPOLATION STEPS:              2 (START)      1 (STEP)
 LEVEL SHIFTS:                  0.00 (CLOSED)  0.00 (OPEN) 



 Orbital guess generated from atomic densities. Full valence occupancy:   14

 Molecular orbital dump at record        2100.2

 ITERATION    DDIFF          GRAD             ENERGY        2-EL.EN.            DIPOLE MOMENTS         DIIS
    1      0.000D+00      0.000D+00      -115.01412874    164.427389   -0.49742   -0.90298   -0.00000    0
    2      0.000D+00      0.110D-01      -115.04254509    162.207556   -0.31819   -0.53655   -0.00000    1
    3      0.205D-01      0.530D-02      -115.04858547    163.232427   -0.40205   -0.61233   -0.00000    2
    4      0.639D-02      0.112D-02      -115.04905066    163.076034   -0.39197   -0.60117   -0.00000    3
    5      0.204D-02      0.203D-03      -115.04907190    163.082553   -0.39486   -0.59689   -0.00000    4
    6      0.435D-03      0.357D-04      -115.04907271    163.082676   -0.39519   -0.59669   -0.00000    5
    7      0.935D-04      0.743D-05      -115.04907274    163.081493   -0.39533   -0.59652   -0.00000    6
    8      0.152D-04      0.239D-05      -115.04907274    163.081880   -0.39537   -0.59650   -0.00000    7
    9      0.507D-05      0.498D-06      -115.04907274    163.081838   -0.39539   -0.59650   -0.00000    6
   10      0.143D-05      0.897D-07      -115.04907274    163.081837   -0.39539   -0.59650   -0.00000    6
   11      0.239D-06      0.334D-07      -115.04907274    163.081843   -0.39539   -0.59650   -0.00000    6
   12      0.601D-07      0.141D-07      -115.04907274    163.081841   -0.39539   -0.59650   -0.00000    7
   13      0.265D-07      0.308D-08      -115.04907274    163.081841   -0.39539   -0.59650   -0.00000    7
   14      0.770D-08      0.659D-09      -115.04907274    163.081841   -0.39539   -0.59650   -0.00000    7
   15      0.169D-08      0.153D-09      -115.04907274    163.081841   -0.39539   -0.59650   -0.00000    7
   16      0.340D-09      0.459D-10      -115.04907274    163.081841   -0.39539   -0.59650   -0.00000    7
   17      0.892D-10      0.165D-10      -115.04907274    163.081841   -0.39539   -0.59650   -0.00000    7
   18      0.424D-10      0.274D-11      -115.04907274    163.081841   -0.39539   -0.59650   -0.00000    0

 Final occupancy:   9

 !RHF STATE 1.1 Energy               -115.049072742430
 Nuclear energy                        40.32859989
 One-electron energy                 -236.91859315
 Two-electron energy                   81.54092051
 Virial quotient                       -1.00091383
 !RHF STATE 1.1 Dipole moment          -0.39538910    -0.59649881    -0.00000279
 Dipole moment /Debye                  -1.00491303    -1.51604945    -0.00000709

 Orbital energies:

         1.1          2.1          3.1          4.1          5.1          6.1          7.1          8.1          9.1         10.1
    -20.550216   -11.274554    -1.350420    -0.920866    -0.682648    -0.614516    -0.585059    -0.496953    -0.443144     0.184305

        11.1
      0.224432


 **********************************************************************************************************************************
 DATASETS  * FILE   NREC   LENGTH (MB)   RECORD NAMES
              1      19        8.03       500      610      700      900      950      970     1000      129      960     1100   
                                          VAR    BASINP    GEOM    SYMINP    ZMAT    AOBASIS   BASIS     P2S    ABASIS      S 
                                         1400     1410     1200     1210     1080     1600     1650     1300     1700   
                                           T        V       H0       H01     AOSYM     SMH    MOLCAS    ERIS     OPER   

              2       3        0.39       700     1000     2100   
                                         GEOM     BASIS     RHF  

 PROGRAMS   *        TOTAL       RHF       INT
 CPU TIMES  *         0.45      0.11      0.28
 REAL TIME  *         0.66 SEC
 DISK USED  *        23.34 MB      
 GA USED    *         0.00 MB       (max)       0.00 MB       (current)
 **********************************************************************************************************************************


1PROGRAM * CCSD (Closed-shell coupled cluster)     Authors: C. Hampel, H.-J. Werner, 1991, M. Deegan, P.J. Knowles, 1992


 Convergence thresholds:  THRVAR = 1.00D-08  THRDEN = 1.00D-12

 CCSD(T)     terms to be evaluated (factor= 1.000)


 Number of core orbitals:           2 (   2 )
 Number of closed-shell orbitals:   7 (   7 )
 Number of external orbitals:      39 (  39 )

 Molecular orbitals read from record     2100.2  Type=RHF/CANONICAL (state 1.1)

 Number of N-1 electron functions:               7
 Number of N-2 electron functions:              28
 Number of singly external CSFs:               273
 Number of doubly external CSFs:             37401
 Total number of CSFs:                       37675

 Length of J-op  integral file:               0.00 MB
 Length of K-op  integral file:               0.19 MB
 Length of 3-ext integral record:             0.00 MB

 Memory could be reduced to 0.96 Mwords without degradation in triples

 Integral transformation finished. Total CPU:   0.03 sec, npass=  1  Memory used:   0.66 MW

 Reference energy:                   -115.04907274

 MP2 singlet pair energy:              -0.21868039
 MP2 triplet pair energy:              -0.11986848
 MP2 correlation energy:               -0.33854886
 MP2 total energy:                   -115.38762160

 SCS-MP2 correlation energy:           -0.33700129   (PS=  1.200000  PT=  0.333333)
 SCS-MP2 total energy:               -115.38607404

 ITER.      SQ.NORM     CORR.ENERGY   TOTAL ENERGY   ENERGY CHANGE        DEN1      VAR(S)    VAR(P)  DIIS     TIME
   1      1.10735330    -0.36134196  -115.41041471    -0.02279310    -0.01411095  0.91D-03  0.17D-02  1  1     0.08
   2      1.11588030    -0.36328765  -115.41236039    -0.00194568    -0.00925249  0.20D-04  0.16D-03  2  2     0.12
   3      1.11776199    -0.36341480  -115.41248754    -0.00012715    -0.00120486  0.94D-05  0.86D-05  3  3     0.17
   4      1.11827666    -0.36341355  -115.41248629     0.00000125    -0.00025484  0.33D-06  0.67D-06  4  4     0.22
   5      1.11837433    -0.36341398  -115.41248673    -0.00000044    -0.00003596  0.98D-07  0.49D-07  5  5     0.27
   6      1.11839320    -0.36341264  -115.41248538     0.00000135    -0.00000434  0.16D-07  0.41D-08  6  6     0.33
   7      1.11839790    -0.36341223  -115.41248497     0.00000041    -0.00000035  0.20D-08  0.71D-09  6  1     0.37
   8      1.11839916    -0.36341233  -115.41248507    -0.00000010     0.00000075  0.25D-09  0.71D-10  6  3     0.42
   9      1.11840021    -0.36341221  -115.41248495     0.00000012    -0.00000038  0.13D-10  0.10D-10  6  2     0.48
  10      1.11840014    -0.36341221  -115.41248495    -0.00000000     0.00000007  0.11D-11  0.87D-12  6  5     0.53
  11      1.11840017    -0.36341221  -115.41248495     0.00000000    -0.00000000  0.19D-12  0.50D-13  6  4     0.58
  12      1.11840016    -0.36341221  -115.41248495    -0.00000000     0.00000001  0.18D-13  0.99D-14  6  1     0.63
  13      1.11840016    -0.36341221  -115.41248495    -0.00000000    -0.00000000  0.23D-14  0.92D-15  6  6     0.68
  14      1.11840016    -0.36341221  -115.41248495     0.00000000    -0.00000000  0.22D-15  0.12D-15  6  3     0.73
  15      1.11840016    -0.36341221  -115.41248495    -0.00000000    -0.00000000  0.25D-16  0.16D-16  6  2     0.78
  16      1.11840016    -0.36341221  -115.41248495    -0.00000000    -0.00000000  0.55D-17  0.16D-17  6  5     0.83
  17      1.11840016    -0.36341221  -115.41248495    -0.00000000    -0.00000000  0.52D-18  0.25D-18  6  4     0.88
  18      1.11840016    -0.36341221  -115.41248495     0.00000000    -0.00000000  0.81D-19  0.42D-19  6  1     0.92
  19      1.11840016    -0.36341221  -115.41248495    -0.00000000    -0.00000000  0.90D-20  0.42D-20  6  6     0.97
  20      1.11840016    -0.36341221  -115.41248495     0.00000000     0.00000000  0.13D-20  0.54D-21  6  3     1.03

 Norm of t1 vector:      0.04161850      S-energy:    -0.00000000      T1 diagnostic:  0.00786516
                                                                       D1 diagnostic:  0.01745644


 Total CPU time for triples:      0.24 sec


 RESULTS
 =======

  Reference energy                   -115.049072742430
  CCSD singlet pair energy             -0.254636810899
  CCSD triplet pair energy             -0.108775396544
  CCSD correlation energy              -0.363412207443

  Triples (T) contribution             -0.007741188437
  Total correlation energy             -0.371153395880

  CCSD total energy                  -115.412484949873
  CCSD[T] energy                     -115.420515769911
  CCSD-T energy                      -115.420076269645
 !CCSD(T) total energy               -115.420226138310

 Timing summary (sec):

 STEP                 CPU(USER)    SYS     CPU(TOT)    WALL
 Transformation          0.03      0.00      0.03      0.03
 CCSD iterations         1.00      0.05      1.05      1.09
 Triples                 0.24      0.00      0.24      0.25

 Program statistics:

 Available memory in ccsd:               999999704
 Min. memory needed in ccsd:                136801
 Max. memory used in ccsd:                  163198
 Max. memory used in cckext:                182024 (20 integral passes)



 **********************************************************************************************************************************
 DATASETS  * FILE   NREC   LENGTH (MB)   RECORD NAMES
              1      20       10.56       500      610      700      900      950      970     1000      129      960     1100   
                                          VAR    BASINP    GEOM    SYMINP    ZMAT    AOBASIS   BASIS     P2S    ABASIS      S 
                                         1400     1410     1200     1210     1080     1600     1650     1300     1700     1380   
                                           T        V       H0       H01     AOSYM     SMH    MOLCAS    ERIS     OPER     JKOP   

              2       3        0.39       700     1000     2100   
                                         GEOM     BASIS     RHF  

 PROGRAMS   *        TOTAL   CCSD(T)       RHF       INT
 CPU TIMES  *         1.73      1.28      0.11      0.28
 REAL TIME  *         2.05 SEC
 DISK USED  *        24.77 MB      
 GA USED    *         0.00 MB       (max)       0.00 MB       (current)
 **********************************************************************************************************************************

        CCSD(T)         RHF-SCF 
   -115.42022614   -115.04907274
 **********************************************************************************************************************************
 Variable memory released
