
    -----------------------------------------------------------------------
          Psi4: An Open-Source Ab Initio Electronic Structure Package
                               Psi4 1.4a2.dev629 

                         Git: Rev {master} 2938fc2 dirty


    D. G. A. Smith, L. A. Burns, A. C. Simmonett, R. M. Parrish,
    M. C. Schieber, R. Galvelis, P. Kraus, H. Kruse, R. Di Remigio,
    A. Alenaizan, A. M. James, S. Lehtola, J. P. Misiewicz, M. Scheurer,
    R. A. Shaw, J. B. Schriber, Y. Xie, Z. L. Glick, D. A. Sirianni,
    J. S. O'Brien, J. M. Waldrop, A. Kumar, E. G. Hohenstein,
    B. P. Pritchard, B. R. Brooks, H. F. Schaefer III, A. Yu. Sokolov,
    K. Patkowski, A. E. DePrince III, U. Bozkaya, R. A. King,
    F. A. Evangelista, J. M. Turney, T. D. Crawford, C. D. Sherrill,
    J. Chem. Phys. 152(18) 184108 (2020). https://doi.org/10.1063/5.0006002

                            Additional Code Authors
    E. T. Seidl, C. L. Janssen, E. F. Valeev, M. L. Leininger,
    J. F. Gonthier, R. M. Richard, H. R. McAlexander, M. Saitow, X. Wang,
    P. Verma, and M. H. Lechner

             Previous Authors, Complete List of Code Contributors,
                       and Citations for Specific Modules
    https://github.com/psi4/psi4/blob/master/codemeta.json
    https://github.com/psi4/psi4/graphs/contributors
    http://psicode.org/psi4manual/master/introduction.html#citing-psifour

    -----------------------------------------------------------------------


    Psi4 started on: Monday, 06 September 2021 06:16PM

    Process ID: 17321
    Host:       n008
    PSIDATADIR: /opt/psi/4/master/share/psi4
    Memory:     500.0 MiB
    Threads:    1
    
  ==> Input File <==

--------------------------------------------------------------------------
# o-Benzyne preliminary computations

memory 14 gb

molecule {
  0 1
  units bohr
 H   -0.0000000000   -1.4299792057    0.9929638579
 O    0.0000000000   -0.0049637879   -0.1234914625
 H    0.0000000000    1.4349429935    0.9968712246
}

set {
  basis cc-pvdz
  reference rhf
  e_convergence 10 
  d_convergence 10
  r_convergence 8
  maxiter 300
  freeze_core True
}

e, wfn = energy('ccsd(t)', return_wfn = True)
psi4.print_out('Giraffe The Energy is %.12f \n'%(e))
--------------------------------------------------------------------------

  Memory set to  13.039 GiB by Python driver.

Scratch directory: /tmp/

*** tstart() called on n008
*** at Mon Sep  6 18:16:38 2021

   => Loading Basis Set <=

    Name: CC-PVDZ
    Role: ORBITAL
    Keyword: BASIS
    atoms 1, 3 entry H          line    22 file /opt/psi/4/master/share/psi4/basis/cc-pvdz.gbs 
    atoms 2    entry O          line   198 file /opt/psi/4/master/share/psi4/basis/cc-pvdz.gbs 


         ---------------------------------------------------------
                                   SCF
               by Justin Turney, Rob Parrish, Andy Simmonett
                          and Daniel G. A. Smith
                              RHF Reference
                        1 Threads,  13351 MiB Core
         ---------------------------------------------------------

  ==> Geometry <==

    Molecular point group: cs
    Full point group: Cs

    Geometry (in Bohr), charge = 0, multiplicity = 1:

       Center              X                  Y                   Z               Mass       
    ------------   -----------------  -----------------  -----------------  -----------------
         H            1.425848700335    -0.991288718461     0.000000000000     1.007825032230
         O            0.000833282535     0.125166601939     0.000000000000    15.994914619570
         H           -1.439073498865    -0.995196085161     0.000000000000     1.007825032230

  Running in cs symmetry.

  Rotational constants: A =     26.88839  B =     14.55391  C =      9.44280 [cm^-1]
  Rotational constants: A = 806093.76746  B = 436315.19446  C = 283087.91202 [MHz]
  Nuclear repulsion =    9.153168123508166

  Charge       = 0
  Multiplicity = 1
  Electrons    = 10
  Nalpha       = 5
  Nbeta        = 5

  ==> Algorithm <==

  SCF Algorithm Type is PK.
  DIIS enabled.
  MOM disabled.
  Fractional occupation disabled.
  Guess Type is SAD.
  Energy threshold   = 1.00e-10
  Density threshold  = 1.00e-10
  Integral threshold = 0.00e+00

  ==> Primary Basis <==

  Basis Set: CC-PVDZ
    Blend: CC-PVDZ
    Number of shells: 12
    Number of basis function: 24
    Number of Cartesian functions: 25
    Spherical Harmonics?: true
    Max angular momentum: 2

  ==> Integral Setup <==

  Using in-core PK algorithm.
   Calculation information:
      Number of atoms:                   3
      Number of AO shells:              12
      Number of primitives:             32
      Number of atomic orbitals:        25
      Number of basis functions:        24

      Integral cutoff                 1.00e-12
      Number of threads:                 1

  Performing in-core PK
  Using 90300 doubles for integral storage.
  We computed 3081 shell quartets total.
  Whereas there are 3081 unique shell quartets.

  ==> DiskJK: Disk-Based J/K Matrices <==

    J tasked:                  Yes
    K tasked:                  Yes
    wK tasked:                  No
    Memory [MiB]:            10013
    Schwarz Cutoff:          1E-12

    OpenMP threads:              1

  Minimum eigenvalue in the overlap matrix is 3.4428891311E-02.
  Reciprocal condition number of the overlap matrix is 9.2955241863E-03.
    Using symmetric orthogonalization.

  ==> Pre-Iterations <==

  SCF Guess: Superposition of Atomic Densities via on-the-fly atomic UHF (no occupation information).

   -------------------------
    Irrep   Nso     Nmo    
   -------------------------
     A'        18      18 
     A"         6       6 
   -------------------------
    Total      24      24
   -------------------------

  ==> Iterations <==

                        Total Energy        Delta E     RMS |[F,P]|

   @RHF iter SAD:   -75.50589018090962   -7.55059e+01   0.00000e+00 
   @RHF iter   1:   -75.95347215563552   -4.47582e-01   2.20210e-02 DIIS
   @RHF iter   2:   -76.00683801473446   -5.33659e-02   1.26460e-02 DIIS
   @RHF iter   3:   -76.02611544240986   -1.92774e-02   1.15384e-03 DIIS
   @RHF iter   4:   -76.02650581275780   -3.90370e-04   2.67361e-04 DIIS
   @RHF iter   5:   -76.02652569541748   -1.98827e-05   4.89606e-05 DIIS
   @RHF iter   6:   -76.02652663151912   -9.36102e-07   7.71507e-06 DIIS
   @RHF iter   7:   -76.02652665712063   -2.56015e-08   1.07070e-06 DIIS
   @RHF iter   8:   -76.02652665763050   -5.09871e-10   2.50599e-07 DIIS
   @RHF iter   9:   -76.02652665766308   -3.25855e-11   4.36486e-08 DIIS
   @RHF iter  10:   -76.02652665766394   -8.52651e-13   3.63166e-09 DIIS
   @RHF iter  11:   -76.02652665766402   -8.52651e-14   6.59935e-10 DIIS
   @RHF iter  12:   -76.02652665766411   -8.52651e-14   8.12463e-11 DIIS
  Energy and wave function converged.


  ==> Post-Iterations <==

    Orbital Energies [Eh]
    ---------------------

    Doubly Occupied:                                                      

       1Ap   -20.551473     2Ap    -1.334829     3Ap    -0.696019  
       4Ap    -0.566720     1App   -0.493005  

    Virtual:                                                              

       5Ap     0.184712     6Ap     0.255652     7Ap     0.784363  
       8Ap     0.852468     9Ap     1.164167     2App    1.200189  
      10Ap     1.254101    11Ap     1.440942     3App    1.476688  
       4App    1.671195    12Ap     1.867209    13Ap     1.932793  
      14Ap     2.439144    15Ap     2.482173     5App    3.283922  
       6App    3.333045    16Ap     3.506717    17Ap     3.857328  
      18Ap     4.145245  

    Final Occupation by Irrep:
             Ap   App 
    DOCC [     4,    1 ]

  @RHF Final Energy:   -76.02652665766411

   => Energetics <=

    Nuclear Repulsion Energy =              9.1531681235081663
    One-Electron Energy =                -123.0752990399702469
    Two-Electron Energy =                  37.8956042587979880
    Total Energy =                        -76.0265266576640926

Computation Completed


Properties will be evaluated at   0.000000,   0.000000,   0.000000 [a0]

Properties computed using the SCF density matrix

  Nuclear Dipole Moment: [e a0]
     X:    -0.0066      Y:    -0.9852      Z:     0.0000

  Electronic Dipole Moment: [e a0]
     X:     0.0031      Y:     0.1716      Z:     0.0000

  Dipole Moment: [e a0]
     X:    -0.0035      Y:    -0.8135      Z:     0.0000     Total:     0.8136

  Dipole Moment: [D]
     X:    -0.0088      Y:    -2.0678      Z:     0.0000     Total:     2.0679


*** tstop() called on n008 at Mon Sep  6 18:16:39 2021
Module time:
	user time   =       1.01 seconds =       0.02 minutes
	system time =       0.00 seconds =       0.00 minutes
	total time  =          1 seconds =       0.02 minutes
Total time:
	user time   =       1.01 seconds =       0.02 minutes
	system time =       0.00 seconds =       0.00 minutes
	total time  =          1 seconds =       0.02 minutes
 MINTS: Wrapper to libmints.
   by Justin Turney

   Calculation information:
      Number of threads:                 1
      Number of atoms:                   3
      Number of AO shells:              12
      Number of SO shells:              12
      Number of primitives:             32
      Number of atomic orbitals:        25
      Number of basis functions:        24

      Number of irreps:                  2
      Integral cutoff                 0.00e+00
      Number of functions per irrep: [  18    6 ]

 OEINTS: Overlap, kinetic, potential, dipole, and quadrupole integrals
         stored in file 35.

      Computing two-electron integrals...done
      Computed 22694 non-zero two-electron integrals.
        Stored in file 33.


*** tstart() called on n008
*** at Mon Sep  6 18:16:39 2021


	Wfn Parameters:
	--------------------
	Wavefunction         = CCSD_T
	Number of irreps     = 2
	Number of MOs        = 24
	Number of active MOs = 23
	AO-Basis             = NONE
	Semicanonical        = false
	Reference            = RHF
	Print Level          = 1

	IRREP	# MOs	# FZDC	# DOCC	# SOCC	# VIRT	# FZVR
	-----	-----	------	------	------	------	------
	 Ap	   18	    1	    3	    0	    14	    0
	 App	   6	    0	    1	    0	    5	    0
	Transforming integrals...
	IWL integrals will be deleted.
	(OO|OO)...
	Presorting SO-basis two-electron integrals.
	Sorting File: SO Ints (nn|nn) nbuckets = 1
	Transforming the one-electron integrals and constructing Fock matrices
	Starting first half-transformation.
	Sorting half-transformed integrals.
	First half integral transformation complete.
	Starting second half-transformation.
	Two-electron integral transformation complete.
	(OO|OV)...
	Starting second half-transformation.
	Two-electron integral transformation complete.
	(OO|VV)...
	Starting second half-transformation.
	Two-electron integral transformation complete.
	(OV|OO)...
	Starting first half-transformation.
	Sorting half-transformed integrals.
	First half integral transformation complete.
	Starting second half-transformation.
	Two-electron integral transformation complete.
	(OV|OV)...
	Starting second half-transformation.
	Two-electron integral transformation complete.
	(OV|VV)...
	Starting second half-transformation.
	Two-electron integral transformation complete.
	(VV|OO)...
	Starting first half-transformation.
	Sorting half-transformed integrals.
	First half integral transformation complete.
	Starting second half-transformation.
	Two-electron integral transformation complete.
	(VV|OV)...
	Starting second half-transformation.
	Two-electron integral transformation complete.
	(VV|VV)...
	Starting second half-transformation.
	Two-electron integral transformation complete.
	Frozen core energy     =    -61.30609584059791

	Size of irrep 0 of <ab|cd> integrals:      0.049 (MW) /      0.391 (MB)
	Size of irrep 1 of <ab|cd> integrals:      0.020 (MW) /      0.157 (MB)
	Total:                                     0.068 (MW) /      0.548 (MB)

	Size of irrep 0 of <ia|bc> integrals:      0.010 (MW) /      0.083 (MB)
	Size of irrep 1 of <ia|bc> integrals:      0.004 (MW) /      0.032 (MB)
	Total:                                     0.014 (MW) /      0.116 (MB)

	Size of irrep 0 of tijab amplitudes:       0.002 (MW) /      0.018 (MB)
	Size of irrep 1 of tijab amplitudes:       0.001 (MW) /      0.007 (MB)
	Total:                                     0.003 (MW) /      0.024 (MB)

	Nuclear Rep. energy          =      9.15316812350817
	SCF energy                   =    -76.02652665766411
	One-electron energy          =    -41.56605360920604
	Two-electron energy          =     17.69245466863182
	Reference energy             =    -76.02652665766396

*** tstop() called on n008 at Mon Sep  6 18:16:39 2021
Module time:
	user time   =       0.05 seconds =       0.00 minutes
	system time =       0.05 seconds =       0.00 minutes
	total time  =          0 seconds =       0.00 minutes
Total time:
	user time   =       1.13 seconds =       0.02 minutes
	system time =       0.06 seconds =       0.00 minutes
	total time  =          1 seconds =       0.02 minutes
            **************************
            *                        *
            *        CCENERGY        *
            *                        *
            **************************

    Nuclear Rep. energy (wfn)     =    9.153168123508166
    SCF energy          (wfn)     =  -76.026526657664107
    Reference energy    (file100) =  -76.026526657663965

    Input parameters:
    -----------------
    Wave function   =     CCSD_T
    Reference wfn   =     RHF
    Brueckner       =     No
    Memory (Mbytes) =     14000.0
    Maxiter         =    300
    R_Convergence   =     1.0e-08
    E_Convergence   =     1.0e-10
    Restart         =     Yes
    DIIS            =     Yes
    AO Basis        =     NONE
    ABCD            =     NEW
    Cache Level     =     2
    Cache Type      =     LOW
    Print Level     =     1
    Num. of threads =     1
    # Amps to Print =     10
    Print MP2 Amps? =     No
    Analyze T2 Amps =     No
    Print Pair Ener =     No
    Local CC        =     No
    SCS-MP2         =     False
    SCSN-MP2        =     False
    SCS-CCSD        =     False

MP2 correlation energy -0.2019898751295688
                Solving CC Amplitude Equations
                ------------------------------
  Iter             Energy              RMS        T1Diag      D1Diag    New D1Diag    D2Diag
  ----     ---------------------    ---------   ----------  ----------  ----------   --------
     0        -0.201989875129569    0.000e+00    0.000000    0.000000    0.000000    0.109929
     1        -0.207129898820588    2.679e-02    0.004539    0.008679    0.008679    0.116937
     2        -0.211116604752015    9.473e-03    0.005379    0.010009    0.010009    0.122350
     3        -0.211533852925407    2.465e-03    0.005869    0.010907    0.010907    0.123583
     4        -0.211545318482647    5.692e-04    0.005917    0.011117    0.011117    0.123784
     5        -0.211556608005522    1.704e-04    0.005944    0.011229    0.011229    0.123819
     6        -0.211554662157169    5.666e-05    0.005954    0.011275    0.011275    0.123812
     7        -0.211554429227650    1.517e-05    0.005957    0.011290    0.011290    0.123810
     8        -0.211554298864085    2.624e-06    0.005958    0.011291    0.011291    0.123810
     9        -0.211554252307555    6.340e-07    0.005958    0.011292    0.011292    0.123810
    10        -0.211554266790231    1.282e-07    0.005958    0.011292    0.011292    0.123810
    11        -0.211554265401042    2.743e-08    0.005958    0.011292    0.011292    0.123810
    12        -0.211554265818219    4.626e-09    0.005958    0.011292    0.011292    0.123810
    13        -0.211554265698181    1.015e-09    0.005958    0.011292    0.011292    0.123810
    14        -0.211554265690240    2.093e-10    0.005958    0.011292    0.011292    0.123810
    15        -0.211554265687390    6.083e-11    0.005958    0.011292    0.011292    0.123810

    Iterations converged.


    Largest TIA Amplitudes:
              2   0         0.0076317595
              1   9        -0.0072228785
              1   1         0.0059748497
              2  10        -0.0049087346
              1   5         0.0046604894
              0   4         0.0042489779
              0   0         0.0037311004
              3  16         0.0033074155
              3  14         0.0030870608
              2   3         0.0030655648

    Largest TIjAb Amplitudes:
      3   3  14  14        -0.0514200721
      1   1   2   2        -0.0361863907
      2   2   4   4        -0.0352517320
      1   1   1   1        -0.0297706301
      2   3   4  14         0.0285319542
      3   2  14   4         0.0285319542
      1   1   3   3        -0.0283060234
      2   2   2   2        -0.0257278997
      1   3   5  14         0.0228065165
      3   1  14   5         0.0228065165

    SCF energy       (wfn)                    =  -76.026526657664107
    Reference energy (file100)                =  -76.026526657663965

    Opposite-spin MP2 correlation energy      =   -0.151214743536670
    Same-spin MP2 correlation energy          =   -0.050775131592899
    Singles MP2 correlation energy            =   -0.000000000000000
    MP2 correlation energy                    =   -0.201989875129569
      * MP2 total energy                      =  -76.228516532793535

    Opposite-spin CCSD correlation energy     =   -0.166239813873325
    Same-spin CCSD correlation energy         =   -0.045314451814064
    Singles CCSD correlation energy           =    0.000000000000000
    CCSD correlation energy                   =   -0.211554265687390
      * CCSD total energy                     =  -76.238080923351347

            **************************
            *                        *
            *        CCTRIPLES       *
            *                        *
            **************************


    Wave function   =    CCSD_T
    Reference wfn   =      RHF

    Nuclear Rep. energy (wfn)                =    9.153168123508166
    SCF energy          (wfn)                =  -76.026526657664107
    Reference energy    (file100)            =  -76.026526657663965
    CCSD energy         (file100)            =   -0.211554265687390
    Total CCSD energy   (file100)            =  -76.238080923351347

    Number of ijk index combinations:               20
    Memory available in words        :      1750000000
    ~Words needed per explicit thread:           10976
    Number of threads for explicit ijk threading:    1

    MKL num_threads set to 1 for explicit threading.

    (T) energy                                =   -0.003059338230997
      * CCSD(T) total energy                  =  -76.241140261582345

Giraffe The Energy is -76.241140261582 

    Psi4 stopped on: Monday, 06 September 2021 06:16PM
    Psi4 wall time for execution: 0:00:04.85

*** Psi4 exiting successfully. Buy a developer a beer!
