
 Primary working directories    : /tmp/795519.77.gen4.q
 Secondary working directories  : /tmp/795519.77.gen4.q
 Wavefunction directory         : /home/vulcan/mel64643/wfu/
 Main file repository           : /tmp/795519.77.gen4.q/

 ARCHNAME  : Linux/x86_64
 FC        : /opt/intel/compilers_and_libraries_2016.1.150/linux/bin/intel64/ifort
 FCVERSION : 16.0.1
 BLASLIB   : -mkl
 id        : ccgc

 Nodes     nprocs
 n027         1
 ga_uses_ma=false, calling ma_init with nominal heap.
 GA-space will be limited to   8.0 MW (determined by -G option)

 Using customized tuning parameters: mindgm=10; mindgv=16; mindgc=4; mindgr=1; noblas=0; mincuda=1000; minvec=7
 default implementation of scratch files=df  

 ***,Optimization of min3
 memory,1000,m
 gthresh,energy=1.0d-12,orbital=1.0d-10,oneint=1.0d-16,twoint=1.0d-16,optgrad=1.0d-6,compress=1.0d-13
 geomtyp=xyz
 
  bohr
  geometry = {
  6
  arbitrary comment
  C   -1.3748531762   -0.0257939073   -0.0011379517
  O    1.3049768004    0.1203225591   -0.0042809211
  H   -2.0783117178    1.9156457340    0.0019506502
  H   -2.1090236209   -0.9819006911    1.6781395181
  H   -2.1077938564   -0.9809023332   -1.6779711303
  H    1.9412814108   -1.5775034815    0.0032914248
 }
 
 basis=cc-pvdz
 {rhf;maxit,200}
 {ccsd(t);maxit,200}

 Variables initialized (661), CPU time= 0.00 sec
 Commands  initialized (458), CPU time= 0.01 sec, 486 directives.
 Default parameters read. Elapsed time= 0.05 sec

 Checking input...
 Passed
1


                                         ***  PROGRAM SYSTEM MOLPRO  ***
                         Copyright, University College Cardiff Consultants Limited, 2008

                                    Version 2010.1 linked May 16 2016 07:17:05


 **********************************************************************************************************************************
 LABEL *   Optimization of min3                                                          
 Linux-4.4.3/n027(x86_64) 64 bit mpp version                                             DATE: 24-Oct-22          TIME: 15:42:21  
 **********************************************************************************************************************************

 SHA1:             9e8077add272b0f3cad6f7df79ec5211205f459d
 **********************************************************************************************************************************

 THRESHOLDS:

 ZERO    =  1.00D-12  ONEINT  =  1.00D-16  TWOINT  =  1.00D-16  PREFAC  =  1.00D-14  LOCALI  =  1.00D-09  EORDER  =  1.00D-04
 ENERGY  =  1.00D-12  ETEST   =  0.00D+00  EDENS   =  0.00D+00  THRDEDEF=  1.00D-06  GRADIENT=  1.00D-02  STEP    =  1.00D-03
 ORBITAL =  1.00D-10  CIVEC   =  1.00D-05  COEFF   =  1.00D-04  PRINTCI =  5.00D-02  PUNCHCI =  9.90D+01  OPTGRAD =  1.00D-06
 OPTENERG=  1.00D-06  OPTSTEP =  3.00D-04  THRGRAD =  1.00D-10  COMPRESS=  1.00D-13  VARMIN  =  1.00D-07  VARMAX  =  1.00D-03
 THRDOUB =  0.00D+00  THRDIV  =  1.00D-05  THRRED  =  1.00D-07  THRPSP  =  1.00D+00  THRDC   =  1.00D-10  THRCS   =  1.00D-10
 THRNRM  =  1.00D-08  THREQ   =  0.00D+00  THRDE   =  1.00D+00  THRREF  =  1.00D-05  SPARFAC =  1.00D+00  THRDLP  =  1.00D-07
 THRDIA  =  1.00D-10  THRDLS  =  1.00D-07  THRGPS  =  0.00D+00  THRKEX  =  0.00D+00  THRDIS  =  2.00D-01  THRVAR  =  1.00D-10
 THRLOC  =  1.00D-06  THRGAP  =  1.00D-06  THRLOCT = -1.00D+00  THRGAPT = -1.00D+00  THRORB  =  1.00D-06  THRMLTP =  0.00D+00
 THRCPQCI=  1.00D-10  KEXTA   =  0.00D+00  THRCOARS=  0.00D+00  SYMTOL  =  1.00D-06  GRADTOL =  1.00D-06  THROVL  =  1.00D-08
 THRORTH =  1.00D-08  GRID    =  1.00D-06  GRIDMAX =  1.00D-03  DTMAX   =  0.00D+00

 SETTING GEOMTYP        =    XYZ
 ZUNIT=BOHR
 

 Variable memory set to 1000000000 words,  buffer space   230000 words

 SETTING BASIS          =    CC-PVDZ


 Recomputing integrals since basis changed


 Using spherical harmonics

 Library entry C      S cc-pVDZ              selected for orbital group  1
 Library entry C      P cc-pVDZ              selected for orbital group  1
 Library entry C      D cc-pVDZ              selected for orbital group  1
 Library entry O      S cc-pVDZ              selected for orbital group  2
 Library entry O      P cc-pVDZ              selected for orbital group  2
 Library entry O      D cc-pVDZ              selected for orbital group  2
 Library entry H      S cc-pVDZ              selected for orbital group  3
 Library entry H      P cc-pVDZ              selected for orbital group  3

1PROGRAM * SEWARD (Integral evaluation for generally contracted gaussian basis sets)     Author: Roland Lindh, 1990

 Geometry written to block  1 of record 700


 Point group  C1  



 ATOMIC COORDINATES

 NR  ATOM    CHARGE       X              Y              Z

   1  C       6.00   -1.374853176   -0.025793907   -0.001137952
   2  O       8.00    1.304976800    0.120322559   -0.004280921
   3  H       1.00   -2.078311718    1.915645734    0.001950650
   4  H       1.00   -2.109023621   -0.981900691    1.678139518
   5  H       1.00   -2.107793856   -0.980902333   -1.677971130
   6  H       1.00    1.941281411   -1.577503481    0.003291425

 Bond lengths in Bohr (Angstrom)

 1-2  2.683812326  1-3  2.064957951  1-4  2.067152448  1-5  2.064268310  2-6  1.813161372
     ( 1.420212316)     ( 1.092728685)     ( 1.093889963)     ( 1.092363743)     ( 0.959483674)

 Bond angles

  1-2-6  107.42339923   2-1-3  106.79654584   2-1-4  112.38114380   2-1-5  112.25769604

  3-1-4  108.21909054   3-1-5  108.37700872   4-1-5  108.65001171

 NUCLEAR CHARGE:                   18
 NUMBER OF PRIMITIVE AOS:          82
 NUMBER OF SYMMETRY AOS:           80
 NUMBER OF CONTRACTIONS:           48   (  48A   )
 NUMBER OF CORE ORBITALS:           2   (   2A   )
 NUMBER OF VALENCE ORBITALS:       12   (  12A   )


 NUCLEAR REPULSION ENERGY   40.31514639


 Eigenvalues of metric

         1 0.966E-02 0.176E-01 0.370E-01 0.372E-01 0.383E-01 0.473E-01 0.477E-01 0.520E-01


 Contracted 2-electron integrals neglected if value below      1.0D-16
 AO integral compression algorithm  1   Integral accuracy      1.0D-16

     6.816 MB (compressed) written to integral file (100.0%)

     Node minimum: 6.816 MB, node maximum: 6.816 MB


 NUMBER OF SORTED TWO-ELECTRON INTEGRALS:     692076.     BUFFER LENGTH:  32768
 NUMBER OF SEGMENTS:   1  SEGMENT LENGTH:     692076      RECORD LENGTH: 524288

 Memory used in sort:       1.25 MW

 SORT1 READ      832256. AND WROTE      682150. INTEGRALS IN      2 RECORDS. CPU TIME:     0.01 SEC, REAL TIME:     0.01 SEC
 SORT2 READ      682150. AND WROTE      692076. INTEGRALS IN     26 RECORDS. CPU TIME:     0.02 SEC, REAL TIME:     0.03 SEC

 FILE SIZES:   FILE 1:     8.4 MBYTE,  FILE 4:     8.4 MBYTE,   TOTAL:     16.8 MBYTE

 OPERATOR DM      FOR CENTER  0  COORDINATES:    0.000000    0.000000    0.000000


 **********************************************************************************************************************************
 DATASETS  * FILE   NREC   LENGTH (MB)   RECORD NAMES
              1      19        8.43       500      610      700      900      950      970     1000      129      960     1100   
                                          VAR    BASINP    GEOM    SYMINP    ZMAT    AOBASIS   BASIS     P2S    ABASIS      S 
                                         1400     1410     1200     1210     1080     1600     1650     1300     1700   
                                           T        V       H0       H01     AOSYM     SMH    MOLCAS    ERIS     OPER   

 PROGRAMS   *        TOTAL       INT
 CPU TIMES  *         0.34      0.28
 REAL TIME  *         0.53 SEC
 DISK USED  *        24.27 MB      
 GA USED    *         0.00 MB       (max)       0.00 MB       (current)
 **********************************************************************************************************************************

1PROGRAM * RHF-SCF (CLOSED SHELL)       Authors: W. Meyer, H.-J. Werner


 NUMBER OF ELECTRONS:       9+    9-    SPACE SYMMETRY=1    SPIN SYMMETRY: Singlet 
 CONVERGENCE THRESHOLDS:    1.00E-10 (Density)    1.00E-13 (Energy)
 MAX. NUMBER OF ITERATIONS:      200
 INTERPOLATION TYPE:            DIIS
 INTERPOLATION STEPS:              2 (START)      1 (STEP)
 LEVEL SHIFTS:                  0.00 (CLOSED)  0.00 (OPEN) 



 Orbital guess generated from atomic densities. Full valence occupancy:   14

 Molecular orbital dump at record        2100.2

 ITERATION    DDIFF          GRAD             ENERGY        2-EL.EN.            DIPOLE MOMENTS         DIIS
    1      0.000D+00      0.000D+00      -115.01425067    164.402299   -0.49313   -0.90025    0.00567    0
    2      0.000D+00      0.110D-01      -115.04260054    162.184086   -0.31509   -0.53688    0.00295    1
    3      0.205D-01      0.530D-02      -115.04862704    163.208434   -0.39867   -0.61242    0.00334    2
    4      0.639D-02      0.112D-02      -115.04909063    163.052286   -0.38860   -0.60157    0.00318    3
    5      0.204D-02      0.202D-03      -115.04911164    163.058702   -0.39144   -0.59738    0.00313    4
    6      0.433D-03      0.355D-04      -115.04911243    163.058844   -0.39175   -0.59720    0.00312    5
    7      0.930D-04      0.737D-05      -115.04911246    163.057658   -0.39189   -0.59703    0.00312    6
    8      0.151D-04      0.238D-05      -115.04911247    163.058041   -0.39192   -0.59701    0.00312    7
    9      0.506D-05      0.492D-06      -115.04911247    163.057999   -0.39193   -0.59701    0.00312    6
   10      0.142D-05      0.879D-07      -115.04911247    163.057998   -0.39194   -0.59701    0.00312    6
   11      0.236D-06      0.329D-07      -115.04911247    163.058004   -0.39194   -0.59701    0.00312    6
   12      0.596D-07      0.137D-07      -115.04911247    163.058002   -0.39194   -0.59701    0.00312    7
   13      0.255D-07      0.306D-08      -115.04911247    163.058002   -0.39194   -0.59701    0.00312    7
   14      0.760D-08      0.650D-09      -115.04911247    163.058002   -0.39194   -0.59701    0.00312    7
   15      0.166D-08      0.151D-09      -115.04911247    163.058002   -0.39194   -0.59701    0.00312    7
   16      0.335D-09      0.452D-10      -115.04911247    163.058002   -0.39194   -0.59701    0.00312    7
   17      0.871D-10      0.163D-10      -115.04911247    163.058002   -0.39194   -0.59701    0.00312    7
   18      0.418D-10      0.275D-11      -115.04911247    163.058002   -0.39194   -0.59701    0.00312    0

 Final occupancy:   9

 !RHF STATE 1.1 Energy               -115.049112467724
 Nuclear energy                        40.31514639
 One-electron energy                 -236.89325994
 Two-electron energy                   81.52900108
 Virial quotient                       -1.00092231
 !RHF STATE 1.1 Dipole moment          -0.39193755    -0.59700951     0.00312102
 Dipole moment /Debye                  -0.99614063    -1.51734744     0.00793232

 Orbital energies:

         1.1          2.1          3.1          4.1          5.1          6.1          7.1          8.1          9.1         10.1
    -20.549943   -11.274706    -1.350110    -0.921146    -0.683188    -0.614006    -0.584422    -0.496950    -0.443157     0.184550

        11.1
      0.224389


 **********************************************************************************************************************************
 DATASETS  * FILE   NREC   LENGTH (MB)   RECORD NAMES
              1      19        8.43       500      610      700      900      950      970     1000      129      960     1100   
                                          VAR    BASINP    GEOM    SYMINP    ZMAT    AOBASIS   BASIS     P2S    ABASIS      S 
                                         1400     1410     1200     1210     1080     1600     1650     1300     1700   
                                           T        V       H0       H01     AOSYM     SMH    MOLCAS    ERIS     OPER   

              2       3        0.39       700     1000     2100   
                                         GEOM     BASIS     RHF  

 PROGRAMS   *        TOTAL       RHF       INT
 CPU TIMES  *         0.44      0.10      0.28
 REAL TIME  *         0.66 SEC
 DISK USED  *        24.27 MB      
 GA USED    *         0.00 MB       (max)       0.00 MB       (current)
 **********************************************************************************************************************************


1PROGRAM * CCSD (Closed-shell coupled cluster)     Authors: C. Hampel, H.-J. Werner, 1991, M. Deegan, P.J. Knowles, 1992


 Convergence thresholds:  THRVAR = 1.00D-08  THRDEN = 1.00D-12

 CCSD(T)     terms to be evaluated (factor= 1.000)


 Number of core orbitals:           2 (   2 )
 Number of closed-shell orbitals:   7 (   7 )
 Number of external orbitals:      39 (  39 )

 Molecular orbitals read from record     2100.2  Type=RHF/CANONICAL (state 1.1)

 Number of N-1 electron functions:               7
 Number of N-2 electron functions:              28
 Number of singly external CSFs:               273
 Number of doubly external CSFs:             37401
 Total number of CSFs:                       37675

 Length of J-op  integral file:               0.00 MB
 Length of K-op  integral file:               0.19 MB
 Length of 3-ext integral record:             0.00 MB

 Memory could be reduced to 0.96 Mwords without degradation in triples

 Integral transformation finished. Total CPU:   0.02 sec, npass=  1  Memory used:   0.66 MW

 Reference energy:                   -115.04911247

 MP2 singlet pair energy:              -0.21864373
 MP2 triplet pair energy:              -0.11983598
 MP2 correlation energy:               -0.33847971
 MP2 total energy:                   -115.38759217

 SCS-MP2 correlation energy:           -0.33693708   (PS=  1.200000  PT=  0.333333)
 SCS-MP2 total energy:               -115.38604955

 ITER.      SQ.NORM     CORR.ENERGY   TOTAL ENERGY   ENERGY CHANGE        DEN1      VAR(S)    VAR(P)  DIIS     TIME
   1      1.10733187    -0.36128151  -115.41039398    -0.02280180    -0.01412211  0.91D-03  0.17D-02  1  1     0.07
   2      1.11585851    -0.36322711  -115.41233958    -0.00194560    -0.00925053  0.20D-04  0.16D-03  2  2     0.12
   3      1.11774029    -0.36335451  -115.41246698    -0.00012740    -0.00120430  0.95D-05  0.86D-05  3  3     0.17
   4      1.11825546    -0.36335321  -115.41246567     0.00000130    -0.00025488  0.33D-06  0.67D-06  4  4     0.22
   5      1.11835356    -0.36335362  -115.41246609    -0.00000042    -0.00003603  0.99D-07  0.49D-07  5  5     0.27
   6      1.11837259    -0.36335227  -115.41246474     0.00000135    -0.00000436  0.16D-07  0.41D-08  6  6     0.32
   7      1.11837734    -0.36335185  -115.41246432     0.00000042    -0.00000035  0.20D-08  0.72D-09  6  1     0.37
   8      1.11837860    -0.36335195  -115.41246442    -0.00000010     0.00000075  0.26D-09  0.72D-10  6  3     0.43
   9      1.11837967    -0.36335183  -115.41246430     0.00000012    -0.00000038  0.13D-10  0.10D-10  6  2     0.48
  10      1.11837959    -0.36335183  -115.41246430    -0.00000000     0.00000007  0.11D-11  0.88D-12  6  5     0.53
  11      1.11837962    -0.36335183  -115.41246430     0.00000000    -0.00000000  0.19D-12  0.50D-13  6  4     0.58
  12      1.11837961    -0.36335183  -115.41246430    -0.00000000     0.00000001  0.19D-13  0.10D-13  6  1     0.63
  13      1.11837961    -0.36335183  -115.41246430    -0.00000000    -0.00000000  0.24D-14  0.94D-15  6  6     0.68
  14      1.11837961    -0.36335183  -115.41246430     0.00000000    -0.00000000  0.22D-15  0.12D-15  6  3     0.73
  15      1.11837961    -0.36335183  -115.41246430    -0.00000000    -0.00000000  0.25D-16  0.16D-16  6  2     0.77
  16      1.11837961    -0.36335183  -115.41246430    -0.00000000    -0.00000000  0.57D-17  0.16D-17  6  5     0.82
  17      1.11837961    -0.36335183  -115.41246430    -0.00000000    -0.00000000  0.58D-18  0.25D-18  6  4     0.87
  18      1.11837961    -0.36335183  -115.41246430     0.00000000    -0.00000000  0.93D-19  0.44D-19  6  1     0.92
  19      1.11837961    -0.36335183  -115.41246430    -0.00000000    -0.00000000  0.12D-19  0.46D-20  6  6     0.97
  20      1.11837961    -0.36335183  -115.41246430     0.00000000     0.00000000  0.20D-20  0.65D-21  6  3     1.02

 Norm of t1 vector:      0.04164298      S-energy:    -0.00000000      T1 diagnostic:  0.00786978
                                                                       D1 diagnostic:  0.01750083


 Total CPU time for triples:      0.25 sec


 RESULTS
 =======

  Reference energy                   -115.049112467723
  CCSD singlet pair energy             -0.254599416123
  CCSD triplet pair energy             -0.108752413955
  CCSD correlation energy              -0.363351830077

  Triples (T) contribution             -0.007736693263
  Total correlation energy             -0.371088523341

  CCSD total energy                  -115.412464297801
  CCSD[T] energy                     -115.420490800075
  CCSD-T energy                      -115.420051111477
 !CCSD(T) total energy               -115.420200991064

 Timing summary (sec):

 STEP                 CPU(USER)    SYS     CPU(TOT)    WALL
 Transformation          0.03      0.01      0.04      0.03
 CCSD iterations         0.99      0.04      1.03      1.08
 Triples                 0.25      0.00      0.25      0.25

 Program statistics:

 Available memory in ccsd:               999999704
 Min. memory needed in ccsd:                136801
 Max. memory used in ccsd:                  163198
 Max. memory used in cckext:                182024 (20 integral passes)



 **********************************************************************************************************************************
 DATASETS  * FILE   NREC   LENGTH (MB)   RECORD NAMES
              1      20       10.96       500      610      700      900      950      970     1000      129      960     1100   
                                          VAR    BASINP    GEOM    SYMINP    ZMAT    AOBASIS   BASIS     P2S    ABASIS      S 
                                         1400     1410     1200     1210     1080     1600     1650     1300     1700     1380   
                                           T        V       H0       H01     AOSYM     SMH    MOLCAS    ERIS     OPER     JKOP   

              2       3        0.39       700     1000     2100   
                                         GEOM     BASIS     RHF  

 PROGRAMS   *        TOTAL   CCSD(T)       RHF       INT
 CPU TIMES  *         1.73      1.28      0.10      0.28
 REAL TIME  *         2.04 SEC
 DISK USED  *        25.69 MB      
 GA USED    *         0.00 MB       (max)       0.00 MB       (current)
 **********************************************************************************************************************************

        CCSD(T)         RHF-SCF 
   -115.42020099   -115.04911247
 **********************************************************************************************************************************
 Variable memory released
