
 Primary working directories    : /tmp/601556.8.gen4.q
 Secondary working directories  : /tmp/601556.8.gen4.q
 Wavefunction directory         : /home/vulcan/mel64643/wfu/
 Main file repository           : /tmp/601556.8.gen4.q/

 ARCHNAME  : Linux/x86_64
 FC        : /opt/intel/compilers_and_libraries_2016.1.150/linux/bin/intel64/ifort
 FCVERSION : 16.0.1
 BLASLIB   : -mkl
 id        : ccgc

 Nodes     nprocs
 n032         1
 ga_uses_ma=false, calling ma_init with nominal heap.
 GA-space will be limited to   8.0 MW (determined by -G option)

 Using customized tuning parameters: mindgm=10; mindgv=16; mindgc=4; mindgr=1; noblas=0; mincuda=1000; minvec=7
 default implementation of scratch files=df  

 ***,Optimization of min3
 memory,1000,m
 gthresh,energy=1.0d-12,orbital=1.0d-10,oneint=1.0d-16,twoint=1.0d-16,optgrad=1.0d-6,compress=1.0d-13
 geomtyp=xyz
 
  bohr
  geometry = {
  6
  arbitrary comment
  C   -1.3750709585   -0.0242780166   -0.0029257896
  O    1.3060066946    0.1207010375    0.0023166193
  H   -2.0778692417    1.9096096757    0.0007205611
  H   -2.1049485121   -0.9789993363    1.6809172359
  H   -2.1130129144   -0.9796750267   -1.6829586238
  H    1.9411707722   -1.5774904536    0.0019215872
 }
 
 basis=cc-pvtz
 {rhf;maxit,200}
 {ccsd(t);maxit,200}

 Variables initialized (661), CPU time= 0.00 sec
 Commands  initialized (458), CPU time= 0.00 sec, 486 directives.
 Default parameters read. Elapsed time= 0.06 sec

 Checking input...
 Passed
1


                                         ***  PROGRAM SYSTEM MOLPRO  ***
                         Copyright, University College Cardiff Consultants Limited, 2008

                                    Version 2010.1 linked May 16 2016 07:17:05


 **********************************************************************************************************************************
 LABEL *   Optimization of min3                                                          
 Linux-4.4.3/n032(x86_64) 64 bit mpp version                                             DATE: 06-Nov-21          TIME: 15:41:16  
 **********************************************************************************************************************************

 SHA1:             9e8077add272b0f3cad6f7df79ec5211205f459d
 **********************************************************************************************************************************

 THRESHOLDS:

 ZERO    =  1.00D-12  ONEINT  =  1.00D-16  TWOINT  =  1.00D-16  PREFAC  =  1.00D-14  LOCALI  =  1.00D-09  EORDER  =  1.00D-04
 ENERGY  =  1.00D-12  ETEST   =  0.00D+00  EDENS   =  0.00D+00  THRDEDEF=  1.00D-06  GRADIENT=  1.00D-02  STEP    =  1.00D-03
 ORBITAL =  1.00D-10  CIVEC   =  1.00D-05  COEFF   =  1.00D-04  PRINTCI =  5.00D-02  PUNCHCI =  9.90D+01  OPTGRAD =  1.00D-06
 OPTENERG=  1.00D-06  OPTSTEP =  3.00D-04  THRGRAD =  1.00D-10  COMPRESS=  1.00D-13  VARMIN  =  1.00D-07  VARMAX  =  1.00D-03
 THRDOUB =  0.00D+00  THRDIV  =  1.00D-05  THRRED  =  1.00D-07  THRPSP  =  1.00D+00  THRDC   =  1.00D-10  THRCS   =  1.00D-10
 THRNRM  =  1.00D-08  THREQ   =  0.00D+00  THRDE   =  1.00D+00  THRREF  =  1.00D-05  SPARFAC =  1.00D+00  THRDLP  =  1.00D-07
 THRDIA  =  1.00D-10  THRDLS  =  1.00D-07  THRGPS  =  0.00D+00  THRKEX  =  0.00D+00  THRDIS  =  2.00D-01  THRVAR  =  1.00D-10
 THRLOC  =  1.00D-06  THRGAP  =  1.00D-06  THRLOCT = -1.00D+00  THRGAPT = -1.00D+00  THRORB  =  1.00D-06  THRMLTP =  0.00D+00
 THRCPQCI=  1.00D-10  KEXTA   =  0.00D+00  THRCOARS=  0.00D+00  SYMTOL  =  1.00D-06  GRADTOL =  1.00D-06  THROVL  =  1.00D-08
 THRORTH =  1.00D-08  GRID    =  1.00D-06  GRIDMAX =  1.00D-03  DTMAX   =  0.00D+00

 SETTING GEOMTYP        =    XYZ
 ZUNIT=BOHR
 

 Variable memory set to 1000000000 words,  buffer space   230000 words

 SETTING BASIS          =    CC-PVTZ


 Recomputing integrals since basis changed


 Using spherical harmonics

 Library entry C      S cc-pVTZ              selected for orbital group  1
 Library entry C      P cc-pVTZ              selected for orbital group  1
 Library entry C      D cc-pVTZ              selected for orbital group  1
 Library entry C      F cc-pVTZ              selected for orbital group  1
 Library entry O      S cc-pVTZ              selected for orbital group  2
 Library entry O      P cc-pVTZ              selected for orbital group  2
 Library entry O      D cc-pVTZ              selected for orbital group  2
 Library entry O      F cc-pVTZ              selected for orbital group  2
 Library entry H      S cc-pVTZ              selected for orbital group  3
 Library entry H      P cc-pVTZ              selected for orbital group  3
 Library entry H      D cc-pVTZ              selected for orbital group  3

1PROGRAM * SEWARD (Integral evaluation for generally contracted gaussian basis sets)     Author: Roland Lindh, 1990

 Geometry written to block  1 of record 700


 Point group  C1  



 ATOMIC COORDINATES

 NR  ATOM    CHARGE       X              Y              Z

   1  C       6.00   -1.375070959   -0.024278017   -0.002925790
   2  O       8.00    1.306006695    0.120701037    0.002316619
   3  H       1.00   -2.077869242    1.909609676    0.000720561
   4  H       1.00   -2.104948512   -0.978999336    1.680917236
   5  H       1.00   -2.113012914   -0.979675027   -1.682958624
   6  H       1.00    1.941170772   -1.577490454    0.001921587

 Bond lengths in Bohr (Angstrom)

 1-2  2.684999775  1-3  2.057634644  1-4  2.068705241  1-5  2.068780341  2-6  1.813087947
     ( 1.420840687)     ( 1.088853358)     ( 1.094711666)     ( 1.094751407)     ( 0.959444819)

 Bond angles

  1-2-6  107.41168416   2-1-3  106.87624193   2-1-4  112.06346601   2-1-5  112.50131367

  3-1-4  108.16783978   3-1-5  108.27917455   4-1-5  108.78539109

 NUCLEAR CHARGE:                   18
 NUMBER OF PRIMITIVE AOS:         162
 NUMBER OF SYMMETRY AOS:          148
 NUMBER OF CONTRACTIONS:          116   ( 116A   )
 NUMBER OF CORE ORBITALS:           2   (   2A   )
 NUMBER OF VALENCE ORBITALS:       12   (  12A   )


 NUCLEAR REPULSION ENERGY   40.30781053


 Eigenvalues of metric

         1 0.133E-02 0.180E-02 0.191E-02 0.235E-02 0.330E-02 0.461E-02 0.738E-02 0.100E-01


 Contracted 2-electron integrals neglected if value below      1.0D-16
 AO integral compression algorithm  1   Integral accuracy      1.0D-16

     209.453 MB (compressed) written to integral file ( 98.2%)

     Node minimum: 209.453 MB, node maximum: 209.453 MB


 NUMBER OF SORTED TWO-ELECTRON INTEGRALS:   23028291.     BUFFER LENGTH:  32768
 NUMBER OF SEGMENTS:   2  SEGMENT LENGTH:   15997996      RECORD LENGTH: 524288

 Memory used in sort:      16.56 MW

 SORT1 READ    26631627. AND WROTE    22815814. INTEGRALS IN     67 RECORDS. CPU TIME:     0.25 SEC, REAL TIME:     0.41 SEC
 SORT2 READ    22815814. AND WROTE    23028291. INTEGRALS IN    799 RECORDS. CPU TIME:     0.22 SEC, REAL TIME:     0.33 SEC

 FILE SIZES:   FILE 1:   186.5 MBYTE,  FILE 4:   281.1 MBYTE,   TOTAL:    467.6 MBYTE

 OPERATOR DM      FOR CENTER  0  COORDINATES:    0.000000    0.000000    0.000000


 **********************************************************************************************************************************
 DATASETS  * FILE   NREC   LENGTH (MB)   RECORD NAMES
              1      19      186.71       500      610      700      900      950      970     1000      129      960     1100   
                                          VAR    BASINP    GEOM    SYMINP    ZMAT    AOBASIS   BASIS     P2S    ABASIS      S 
                                         1400     1410     1200     1210     1080     1600     1650     1300     1700   
                                           T        V       H0       H01     AOSYM     SMH    MOLCAS    ERIS     OPER   

 PROGRAMS   *        TOTAL       INT
 CPU TIMES  *         1.74      1.68
 REAL TIME  *         2.29 SEC
 DISK USED  *       677.69 MB      
 GA USED    *         0.00 MB       (max)       0.00 MB       (current)
 **********************************************************************************************************************************

1PROGRAM * RHF-SCF (CLOSED SHELL)       Authors: W. Meyer, H.-J. Werner


 NUMBER OF ELECTRONS:       9+    9-    SPACE SYMMETRY=1    SPIN SYMMETRY: Singlet 
 CONVERGENCE THRESHOLDS:    1.00E-10 (Density)    1.00E-13 (Energy)
 MAX. NUMBER OF ITERATIONS:      200
 INTERPOLATION TYPE:            DIIS
 INTERPOLATION STEPS:              2 (START)      1 (STEP)
 LEVEL SHIFTS:                  0.00 (CLOSED)  0.00 (OPEN) 



 Orbital guess generated from atomic densities. Full valence occupancy:   14

 Molecular orbital dump at record        2100.2

 ITERATION    DDIFF          GRAD             ENERGY        2-EL.EN.            DIPOLE MOMENTS         DIIS
    1      0.000D+00      0.000D+00      -115.05317322    164.437837   -0.48599   -0.90499   -0.00185    0
    2      0.000D+00      0.474D-02      -115.08148863    161.988632   -0.29810   -0.50138   -0.00071    1
    3      0.784D-02      0.254D-02      -115.08857236    163.158780   -0.38985   -0.59915   -0.00120    2
    4      0.257D-02      0.497D-03      -115.08907921    163.003366   -0.38295   -0.59316   -0.00121    3
    5      0.686D-03      0.981D-04      -115.08911014    163.010470   -0.38657   -0.58844   -0.00123    4
    6      0.186D-03      0.186D-04      -115.08911150    163.009050   -0.38697   -0.58844   -0.00123    5
    7      0.479D-04      0.393D-05      -115.08911156    163.008139   -0.38716   -0.58823   -0.00124    6
    8      0.910D-05      0.119D-05      -115.08911156    163.008602   -0.38719   -0.58820   -0.00123    7
    9      0.233D-05      0.323D-06      -115.08911156    163.008497   -0.38720   -0.58819   -0.00123    6
   10      0.767D-06      0.597D-07      -115.08911156    163.008508   -0.38721   -0.58819   -0.00123    6
   11      0.159D-06      0.150D-07      -115.08911156    163.008511   -0.38721   -0.58819   -0.00123    6
   12      0.299D-07      0.632D-08      -115.08911156    163.008510   -0.38721   -0.58819   -0.00123    7
   13      0.111D-07      0.172D-08      -115.08911156    163.008510   -0.38721   -0.58819   -0.00123    7
   14      0.348D-08      0.354D-09      -115.08911156    163.008510   -0.38721   -0.58819   -0.00123    7
   15      0.851D-09      0.911D-10      -115.08911156    163.008510   -0.38721   -0.58819   -0.00123    7
   16      0.185D-09      0.228D-10      -115.08911156    163.008510   -0.38721   -0.58819   -0.00123    7
   17      0.524D-10      0.989D-11      -115.08911156    163.008510   -0.38721   -0.58819   -0.00123    0

 Final occupancy:   9

 !RHF STATE 1.1 Energy               -115.089111560421
 Nuclear energy                        40.30781053
 One-electron energy                 -236.90117703
 Two-electron energy                   81.50425495
 Virial quotient                       -1.00128810
 !RHF STATE 1.1 Dipole moment          -0.38720689    -0.58818812    -0.00123480
 Dipole moment /Debye                  -0.98411728    -1.49492717    -0.00313835

 Orbital energies:

         1.1          2.1          3.1          4.1          5.1          6.1          7.1          8.1          9.1         10.1
    -20.552620   -11.269754    -1.354104    -0.923075    -0.687874    -0.617660    -0.590046    -0.502056    -0.449144     0.138409

        11.1
      0.178611


 **********************************************************************************************************************************
 DATASETS  * FILE   NREC   LENGTH (MB)   RECORD NAMES
              1      19      186.71       500      610      700      900      950      970     1000      129      960     1100   
                                          VAR    BASINP    GEOM    SYMINP    ZMAT    AOBASIS   BASIS     P2S    ABASIS      S 
                                         1400     1410     1200     1210     1080     1600     1650     1300     1700   
                                           T        V       H0       H01     AOSYM     SMH    MOLCAS    ERIS     OPER   

              2       3        0.63       700     1000     2100   
                                         GEOM     BASIS     RHF  

 PROGRAMS   *        TOTAL       RHF       INT
 CPU TIMES  *         4.66      2.92      1.68
 REAL TIME  *         5.62 SEC
 DISK USED  *       677.69 MB      
 GA USED    *         0.00 MB       (max)       0.00 MB       (current)
 **********************************************************************************************************************************


1PROGRAM * CCSD (Closed-shell coupled cluster)     Authors: C. Hampel, H.-J. Werner, 1991, M. Deegan, P.J. Knowles, 1992


 Convergence thresholds:  THRVAR = 1.00D-08  THRDEN = 1.00D-12

 CCSD(T)     terms to be evaluated (factor= 1.000)


 Number of core orbitals:           2 (   2 )
 Number of closed-shell orbitals:   7 (   7 )
 Number of external orbitals:     107 ( 107 )

 Molecular orbitals read from record     2100.2  Type=RHF/CANONICAL (state 1.1)

 Number of N-1 electron functions:               7
 Number of N-2 electron functions:              28
 Number of singly external CSFs:               749
 Number of doubly external CSFs:            280875
 Total number of CSFs:                      281625

 Length of J-op  integral file:               0.00 MB
 Length of K-op  integral file:               0.96 MB
 Length of 3-ext integral record:             0.00 MB

 Memory could be reduced to 12.77 Mwords without degradation in triples

 Integral transformation finished. Total CPU:   0.71 sec, npass=  1  Memory used:   7.23 MW

 Reference energy:                   -115.08911156

 MP2 singlet pair energy:              -0.28103039
 MP2 triplet pair energy:              -0.14730409
 MP2 correlation energy:               -0.42833447
 MP2 total energy:                   -115.51744603

 SCS-MP2 correlation energy:           -0.42889234   (PS=  1.200000  PT=  0.333333)
 SCS-MP2 total energy:               -115.51800390

 ITER.      SQ.NORM     CORR.ENERGY   TOTAL ENERGY   ENERGY CHANGE        DEN1      VAR(S)    VAR(P)  DIIS     TIME
   1      1.11803191    -0.44561921  -115.53473077    -0.01728473    -0.00693409  0.12D-02  0.18D-02  1  1     1.58
   2      1.12591345    -0.44680427  -115.53591583    -0.00118507    -0.00944914  0.16D-04  0.22D-03  2  2     2.49
   3      1.12850495    -0.44688086  -115.53599242    -0.00007659    -0.00178366  0.75D-05  0.10D-04  3  3     3.40
   4      1.12914502    -0.44688229  -115.53599385    -0.00000143    -0.00033291  0.35D-06  0.84D-06  4  4     4.29
   5      1.12925048    -0.44688412  -115.53599568    -0.00000183    -0.00003994  0.11D-06  0.65D-07  5  5     5.19
   6      1.12927546    -0.44688196  -115.53599352     0.00000217    -0.00000746  0.18D-07  0.50D-08  6  6     6.10
   7      1.12927905    -0.44688186  -115.53599342     0.00000009    -0.00000027  0.26D-08  0.90D-09  6  2     7.00
   8      1.12928039    -0.44688181  -115.53599337     0.00000005     0.00000002  0.42D-09  0.11D-09  6  1     7.90
   9      1.12928113    -0.44688176  -115.53599332     0.00000005    -0.00000003  0.28D-10  0.17D-10  6  3     8.80
  10      1.12928121    -0.44688178  -115.53599334    -0.00000002     0.00000007  0.25D-11  0.19D-11  6  4     9.70
  11      1.12928107    -0.44688178  -115.53599334    -0.00000001     0.00000011  0.23D-12  0.12D-12  6  6    10.61
  12      1.12928106    -0.44688179  -115.53599335    -0.00000000     0.00000001  0.27D-13  0.11D-13  6  5    11.51
  13      1.12928106    -0.44688179  -115.53599335    -0.00000000    -0.00000000  0.56D-14  0.17D-14  6  2    12.41
  14      1.12928106    -0.44688179  -115.53599335     0.00000000    -0.00000000  0.43D-15  0.14D-15  6  1    13.32
  15      1.12928106    -0.44688179  -115.53599335    -0.00000000    -0.00000000  0.63D-16  0.28D-16  6  3    14.22
  16      1.12928106    -0.44688179  -115.53599335     0.00000000     0.00000000  0.18D-16  0.34D-17  6  4    15.12
  17      1.12928106    -0.44688179  -115.53599335    -0.00000000     0.00000000  0.13D-17  0.73D-18  6  5    16.02
  18      1.12928106    -0.44688179  -115.53599335    -0.00000000     0.00000000  0.10D-18  0.47D-19  6  6    16.93
  19      1.12928106    -0.44688179  -115.53599335     0.00000000    -0.00000000  0.23D-19  0.10D-19  6  2    17.83
  20      1.12928106    -0.44688179  -115.53599335     0.00000000    -0.00000000  0.20D-20  0.86D-21  6  1    18.74

 Norm of t1 vector:      0.04468543      S-energy:    -0.00000000      T1 diagnostic:  0.00844475
                                                                       D1 diagnostic:  0.01722900


 Total CPU time for triples:      9.31 sec


 RESULTS
 =======

  Reference energy                   -115.089111560421
  CCSD singlet pair energy             -0.313137567208
  CCSD triplet pair energy             -0.133744219113
  CCSD correlation energy              -0.446881786324

  Triples (T) contribution             -0.014790183625
  Total correlation energy             -0.461671969949

  CCSD total energy                  -115.535993346745
  CCSD[T] energy                     -115.551249707679
  CCSD-T energy                      -115.550517872738
 !CCSD(T) total energy               -115.550783530370

 Timing summary (sec):

 STEP                 CPU(USER)    SYS     CPU(TOT)    WALL
 Transformation          0.73      0.08      0.81      0.81
 CCSD iterations        18.01      0.77     18.78     18.83
 Triples                 9.31      0.13      9.44      9.45

 Program statistics:

 Available memory in ccsd:               999999704
 Min. memory needed in ccsd:                915605
 Max. memory used in ccsd:                 1141922
 Max. memory used in cckext:                874802 (20 integral passes)



 **********************************************************************************************************************************
 DATASETS  * FILE   NREC   LENGTH (MB)   RECORD NAMES
              1      20      226.11       500      610      700      900      950      970     1000      129      960     1100   
                                          VAR    BASINP    GEOM    SYMINP    ZMAT    AOBASIS   BASIS     P2S    ABASIS      S 
                                         1400     1410     1200     1210     1080     1600     1650     1300     1700     1380   
                                           T        V       H0       H01     AOSYM     SMH    MOLCAS    ERIS     OPER     JKOP   

              2       3        0.63       700     1000     2100   
                                         GEOM     BASIS     RHF  

 PROGRAMS   *        TOTAL   CCSD(T)       RHF       INT
 CPU TIMES  *        32.72     28.05      2.92      1.68
 REAL TIME  *        34.75 SEC
 DISK USED  *       677.69 MB      
 GA USED    *         0.00 MB       (max)       0.00 MB       (current)
 **********************************************************************************************************************************

        CCSD(T)         RHF-SCF 
   -115.55078353   -115.08911156
 **********************************************************************************************************************************
 Variable memory released
