
 Working directory              : /scratch/mel64643/tmp/40073460/
 Global scratch directory       : /scratch/mel64643/tmp/40073460/
 Wavefunction directory         : /home/mel64643/wfu/
 Main file repository           : /scratch/mel64643/tmp/40073460/

 id        : ccgc

 Nodes     nprocs
 a1-8         3
 Distribution of processes:   nprocs(total)=    4   nprocs(compute)=    3   nprocs(helper)=    1
 GA implementation: MPI file
 GA implementation (serial work in mppx): MPI file

 Using customized tuning parameters: mindgm=1; mindgv=20; mindgc=4; mindgr=1; noblas=0; minvec=7
 default implementation of scratch files=sf  


 Variables initialized (1015), CPU time= 0.00 sec
 ***,Optimization of min3
 memory,1000,m
 gthresh,energy=1.0d-12,orbital=1.0d-10,oneint=1.0d-16,twoint=1.0d-16,optgrad=1.0d-6,compress=1.0d-13
 geomtyp=xyz
 
  bohr
  geometry = {
  6
  arbitrary comment
  C   -1.3764911580   -0.0195488882    0.0000001829
  O    1.3112739087    0.1187109064    0.0000004468
  H   -2.0930185026    1.8995795789   -0.0000794267
  H   -2.1051624462   -0.9709493868    1.6929919350
  H   -2.1051552344   -0.9710814006   -1.6929204504
  H    1.9448292725   -1.5868429297   -0.0000010976
 }
 
 basis=cc-pvdz
 {rhf;maxit,200}
 {ccsd(t);maxit,200}
 Commands initialized (818), CPU time= 0.01 sec, 672 directives.
 Default parameters read. Elapsed time= 0.11 sec

 Checking input...
 Passed
1


                                         ***  PROGRAM SYSTEM MOLPRO  ***
                                       Copyright, TTI GmbH Stuttgart, 2015
                                    Version 2022.1 linked Mar  4 2022 00:40:14


 **********************************************************************************************************************************
 LABEL *   Optimization of min3                                                          
  64 bit mpp version                                                                     DATE: 07-Aug-25          TIME: 21:27:36  
 **********************************************************************************************************************************

 SHA1:             31073afc4d8441e10870424e0d77336a33bc4286
 **********************************************************************************************************************************

 Memory per process:      1000 MW
 Total memory per node:   3000 MW

 GA preallocation disabled
 GA check disabled

 Variable memory set to 1000.0 MW


 THRESHOLDS:

 ZERO    =  1.00D-12  ONEINT  =  1.00D-16  TWOINT  =  1.00D-16  PREFAC  =  1.00D-14  XXXXXX  =  1.00D-09  EORDER  =  1.00D-04
 ENERGY  =  1.00D-12  ETEST   =  0.00D+00  EDENS   =  0.00D+00  THRDEDEF=  1.00D-06  GRADIENT=  1.00D-05  STEP    =  1.00D-03
 ORBITAL =  1.00D-10  CIVEC   =  1.00D-05  COEFF   =  1.00D-04  PRINTCI =  5.00D-02  PUNCHCI =  9.90D+01  OPTGRAD =  1.00D-06
 OPTENERG=  1.00D-06  OPTSTEP =  3.00D-04  THRGRAD =  1.00D-10  COMPRESS=  1.00D-13  VARMIN  =  1.00D-07  VARMAX  =  1.00D-03
 THRDOUB =  0.00D+00  THRDIV  =  1.00D-05  THRRED  =  1.00D-07  THRPSP  =  1.00D+00  THRDC   =  1.00D-10  THRCS   =  1.00D-10
 THRNRM  =  1.00D-08  THREQ   =  0.00D+00  THRDE   =  1.00D+00  THRREF  =  1.00D-05  SPARFAC =  1.00D+00  THRDLP  =  1.00D-07
 THRDIA  =  1.00D-10  THRDLS  =  1.00D-07  THRGPS  =  0.00D+00  THRKEX  =  0.00D+00  THRDIS  =  2.00D-01  THRVAR  =  1.00D-10
 THRLOC  =  1.00D-06  THRGAP  =  1.00D-06  THRLOCT = -1.00D+00  THRGAPT = -1.00D+00  THRORB  =  1.00D-06  THRMLTP =  0.00D+00
 THRCPQCI=  1.00D-10  KEXTA   =  0.00D+00  THRCOARS=  0.00D+00  SYMTOL  =  1.00D-06  GRADTOL =  1.00D-06  THROVL  =  1.00D-08
 THRORTH =  1.00D-08  THRDLOVL= -1.00D+00  GRID    =  1.00D-06  GRIDMAX =  1.00D-03  DTMAX   =  0.00D+00  THROCCDE=  1.00D-01
 THROCCDE=  1.00D-01  THRPRINT=  2.50D-01

 SETTING GEOMTYP        =    XYZ
 ZUNIT=BOHR

 SETTING BASIS          =    CC-PVDZ


 Recomputing integrals since basis changed


 Using spherical harmonics

 Library entry C      S cc-pVDZ              selected for orbital group  1
 Library entry C      P cc-pVDZ              selected for orbital group  1
 Library entry C      D cc-pVDZ              selected for orbital group  1
 Library entry O      S cc-pVDZ              selected for orbital group  2
 Library entry O      P cc-pVDZ              selected for orbital group  2
 Library entry O      D cc-pVDZ              selected for orbital group  2
 Library entry H      S cc-pVDZ              selected for orbital group  3
 Library entry H      P cc-pVDZ              selected for orbital group  3


 PROGRAM * SEWARD (Integral evaluation for generally contracted gaussian basis sets)     Author: Roland Lindh, 1990

 Geometry written to block  1 of record 700


 Point group  C1  



 ATOMIC COORDINATES

 NR  ATOM    CHARGE       X              Y              Z

   1  C       6.00   -1.376491158   -0.019548888    0.000000183
   2  O       8.00    1.311273909    0.118710906    0.000000447
   3  H       1.00   -2.093018503    1.899579579   -0.000079427
   4  H       1.00   -2.105162446   -0.970949387    1.692991935
   5  H       1.00   -2.105155234   -0.971081401   -1.692920450
   6  H       1.00    1.944829273   -1.586842930   -0.000001098

 Bond lengths in Bohr (Angstrom)

 1-2  2.691318789  1-3  2.048527646  1-4  2.074209687  1-5  2.074209664  2-6  1.819424713
     ( 1.424184570)     ( 1.084034146)     ( 1.097624497)     ( 1.097624485)     ( 0.962798095)

 Bond angles

  1-2-6  107.43359865   2-1-3  107.52893675   2-1-4  111.98725424   2-1-5  111.98725187

  3-1-4  107.87024593   3-1-5  107.87008984   4-1-5  109.41106298

 NUCLEAR CHARGE:                   18
 NUMBER OF PRIMITIVE AOS:          82
 NUMBER OF SYMMETRY AOS:           80
 NUMBER OF CONTRACTIONS:           48   (   48A   )
 NUMBER OF INNER CORE ORBITALS:     0   (    0A   )
 NUMBER OF OUTER CORE ORBITALS:     2   (    2A   )
 NUMBER OF VALENCE ORBITALS:       12   (   12A   )


 NUCLEAR REPULSION ENERGY   40.23126306

 Eigenvalues of metric

         1 0.969E-02 0.177E-01 0.366E-01 0.379E-01 0.383E-01 0.474E-01 0.481E-01 0.515E-01


 Contracted 2-electron integrals neglected if value below      1.0D-16
 AO integral compression algorithm  1   Integral accuracy      1.0D-16

     6.554 MB (compressed) written to integral file (100.0%)

     Node minimum: 2.097 MB, node maximum: 2.359 MB


 NUMBER OF SORTED TWO-ELECTRON INTEGRALS:     231084.     BUFFER LENGTH:  32768
 NUMBER OF SEGMENTS:   1  SEGMENT LENGTH:     231084      RECORD LENGTH: 524288

 Memory used in sort:       0.79 MW

 SORT1 READ      832256. AND WROTE      227683. INTEGRALS IN      1 RECORDS. CPU TIME:     0.01 SEC, REAL TIME:     0.02 SEC
 SORT2 READ      682150. AND WROTE      692076. INTEGRALS IN     24 RECORDS. CPU TIME:     0.02 SEC, REAL TIME:     0.02 SEC

 Node minimum:      230300.  Node maximum:      231084. integrals

 OPERATOR DM      FOR CENTER  0  COORDINATES:    0.000000    0.000000    0.000000


 **********************************************************************************************************************************
 DATASETS  * FILE   NREC   LENGTH (MB)   RECORD NAMES
              1      18       28.73       500      610      700      900      950      970     1000      129      960     1100   
                                          VAR    BASINP    GEOM    SYMINP    ZMAT    AOBASIS   BASIS     P2S    ABASIS      S 
                                         1400     1410     1200     1210     1080     1600     1650     1700   
                                           T        V       H0       H01     AOSYM     SMH    MOLCAS    OPER   

 PROGRAMS   *        TOTAL       INT
 CPU TIMES  *         0.50      0.34
 REAL TIME  *         1.81 SEC
 DISK USED  *        29.07 MB (local),      104.32 MB (total)
 GA USED    *         0.00 MB       (max)       0.00 MB       (current)
 **********************************************************************************************************************************


 Program * Restricted Hartree-Fock

 Orbital guess generated from atomic densities. Full valence occupancy:   14

 Initial occupancy:   9

 NELEC=   18   SYM=1   MS2= 0   THRE=1.0D-12   THRD=1.0D-10   THRG=1.0D-10  HFMA2=F  DIIS_START=2   DIIS_MAX=10   DIIS_INCORE=F

 Level shifts:    0.00 (CLOSED)    0.00 (OPEN)    0.30 (GAP_MIN)

 ITER           ETOT              DE          GRAD        DDIFF     DIIS  NEXP   TIME(IT)  TIME(TOT)  DIAG
   1     -115.01389136    -115.01389136     0.00D+00     0.16D+00     0     0       0.00      0.00    start
   2     -115.04228664      -0.02839528     0.10D-01     0.20D-01     1     0       0.00      0.00    diag
   3     -115.04836826      -0.00608162     0.49D-02     0.64D-02     2     0       0.01      0.01    diag
   4     -115.04883413      -0.00046587     0.10D-02     0.20D-02     3     0       0.00      0.01    diag
   5     -115.04885539      -0.00002126     0.19D-03     0.44D-03     4     0       0.00      0.01    diag
   6     -115.04885620      -0.00000080     0.33D-04     0.94D-04     5     0       0.01      0.02    diag
   7     -115.04885623      -0.00000003     0.68D-05     0.15D-04     6     0       0.00      0.02    diag
   8     -115.04885623      -0.00000000     0.22D-05     0.51D-05     7     0       0.01      0.03    fixocc
   9     -115.04885623      -0.00000000     0.45D-06     0.14D-05     8     0       0.00      0.03    diag
  10     -115.04885623      -0.00000000     0.74D-07     0.24D-06     9     0       0.00      0.03    diag/orth
  11     -115.04885623       0.00000000     0.18D-07     0.49D-07     9     0       0.01      0.04    diag
  12     -115.04885623      -0.00000000     0.45D-08     0.14D-07     9     0       0.00      0.04    diag
  13     -115.04885623       0.00000000     0.68D-09     0.19D-08     9     0       0.00      0.04    diag
  14     -115.04885623      -0.00000000     0.15D-09     0.40D-09     9     0       0.00      0.04    diag
  15     -115.04885623       0.00000000     0.62D-10     0.11D-09     9     0       0.00      0.04    diag
  16     -115.04885623       0.00000000     0.14D-10     0.32D-10     9     0       0.01      0.05    diag
  17     -115.04885623      -0.00000000     0.23D-11     0.46D-11     0     0       0.00      0.05    diag

 Final occupancy:   9

 !RHF STATE 1.1 Energy               -115.048856233011
  RHF One-electron energy            -236.734186678437
  RHF Two-electron energy              81.454067386303
  RHF Kinetic energy                  114.927428319391
  RHF Nuclear energy                   40.231263059124
  RHF Virial quotient                  -1.001056561653

 !RHF STATE 1.1 Dipole moment          -0.39954125    -0.59179662    -0.00000295
 Dipole moment /Debye                  -1.01553257    -1.50419696    -0.00000750

 Orbital energies:

           1.1          2.1          3.1          4.1          5.1          6.1          7.1          8.1          9.1         10.1
    -20.550131   -11.275167    -1.347823    -0.921159    -0.680314    -0.613348    -0.585514    -0.496360    -0.443211     0.184375

          11.1
      0.223739


 HOMO      9.1    -0.443211 =     -12.0604eV
 LUMO     10.1     0.184375 =       5.0171eV
 LUMO-HOMO         0.627586 =      17.0775eV

 Orbitals saved in record  2100.2


 **********************************************************************************************************************************
 DATASETS  * FILE   NREC   LENGTH (MB)   RECORD NAMES
              1      18       28.73       500      610      700      900      950      970     1000      129      960     1100   
                                          VAR    BASINP    GEOM    SYMINP    ZMAT    AOBASIS   BASIS     P2S    ABASIS      S 
                                         1400     1410     1200     1210     1080     1600     1650     1700   
                                           T        V       H0       H01     AOSYM     SMH    MOLCAS    OPER   

              2       4        0.47       700     1000      520     2100   
                                         GEOM     BASIS   MCVARS     RHF  

 PROGRAMS   *        TOTAL   RHF-SCF       INT
 CPU TIMES  *         0.56      0.05      0.34
 REAL TIME  *         2.10 SEC
 DISK USED  *        29.40 MB (local),      105.31 MB (total)
 GA USED    *         0.00 MB       (max)       0.00 MB       (current)
 **********************************************************************************************************************************


 PROGRAM * CCSD (Closed-shell coupled cluster)     Authors: C. Hampel, H.-J. Werner, 1991, M. Deegan, P.J. Knowles, 1992


 Convergence thresholds:  THRVAR = 1.00D-08  THRDEN = 1.00D-12

 CCSD(T)     terms to be evaluated (factor= 1.000)


 Number of core orbitals:           2 (   2 )
 Number of closed-shell orbitals:   7 (   7 )
 Number of external orbitals:      39 (  39 )

 Molecular orbitals read from record     2100.2  Type=RHF/CANONICAL  

 Number of N-1 electron functions:               7
 Number of N-2 electron functions:              28
 Number of singly external CSFs:               273
 Number of doubly external CSFs:             37401
 Total number of CSFs:                       37675

 Length of J-op  integral file:               0.00 MB
 Length of K-op  integral file:               0.16 MB
 Length of 3-ext integral record:             0.00 MB

 Memory could be reduced to 0.73 Mwords without degradation in triples

 Integral transformation finished. Total CPU:   0.02 sec, npass=  1  Memory used:   0.66 MW

 Reference energy:                   -115.04885623

 MP2 singlet pair energy:              -0.21881465
 MP2 triplet pair energy:              -0.11986809
 MP2 correlation energy:               -0.33868274
 MP2 total energy:                   -115.38753898

 SCS-MP2 correlation energy:           -0.33716217   (PS=  1.200000  PT=  0.333333)
 SCS-MP2 total energy:               -115.38601841

 ITER.      SQ.NORM     CORR.ENERGY   TOTAL ENERGY   ENERGY CHANGE        DEN1      VAR(S)    VAR(P)  DIIS     TIME  TIME/IT
   1      1.10753648    -0.36148005  -115.41033628    -0.02279730    -0.01408718  0.92D-03  0.17D-02  1  1     0.05     0.04
   2      1.11610366    -0.36343448  -115.41229071    -0.00195443    -0.00927734  0.20D-04  0.16D-03  2  2     0.07     0.05
   3      1.11800513    -0.36356315  -115.41241939    -0.00012868    -0.00121496  0.96D-05  0.87D-05  3  3     0.09     0.05
   4      1.11852658    -0.36356196  -115.41241819     0.00000120    -0.00025737  0.35D-06  0.68D-06  4  4     0.11     0.05
   5      1.11862645    -0.36356238  -115.41241861    -0.00000042    -0.00003662  0.10D-06  0.50D-07  5  5     0.13     0.05
   6      1.11864603    -0.36356100  -115.41241724     0.00000138    -0.00000445  0.17D-07  0.42D-08  6  6     0.15     0.04
   7      1.11865094    -0.36356058  -115.41241681     0.00000042    -0.00000036  0.21D-08  0.75D-09  6  1     0.17     0.04
   8      1.11865224    -0.36356068  -115.41241692    -0.00000011     0.00000077  0.26D-09  0.76D-10  6  3     0.19     0.04
   9      1.11865333    -0.36356056  -115.41241679     0.00000013    -0.00000039  0.13D-10  0.11D-10  6  2     0.20     0.04
  10      1.11865326    -0.36356056  -115.41241679    -0.00000000     0.00000007  0.11D-11  0.92D-12  6  5     0.23     0.04
  11      1.11865329    -0.36356056  -115.41241679     0.00000000    -0.00000000  0.20D-12  0.53D-13  6  4     0.25     0.04
  12      1.11865328    -0.36356056  -115.41241679    -0.00000000     0.00000001  0.20D-13  0.11D-13  6  1     0.27     0.04
  13      1.11865328    -0.36356056  -115.41241679    -0.00000000    -0.00000000  0.24D-14  0.99D-15  6  6     0.29     0.04
  14      1.11865328    -0.36356056  -115.41241679     0.00000000    -0.00000000  0.23D-15  0.13D-15  6  3     0.31     0.04
  15      1.11865328    -0.36356056  -115.41241679    -0.00000000    -0.00000000  0.26D-16  0.17D-16  6  2     0.33     0.04
  16      1.11865328    -0.36356056  -115.41241679    -0.00000000    -0.00000000  0.59D-17  0.17D-17  6  5     0.35     0.04
  17      1.11865328    -0.36356056  -115.41241679    -0.00000000    -0.00000000  0.57D-18  0.27D-18  6  4     0.37     0.04
  18      1.11865328    -0.36356056  -115.41241679     0.00000000    -0.00000000  0.87D-19  0.45D-19  6  1     0.39     0.04
  19      1.11865328    -0.36356056  -115.41241679    -0.00000000    -0.00000000  0.10D-19  0.45D-20  6  6     0.41     0.04
  20      1.11865328    -0.36356056  -115.41241679     0.00000000     0.00000000  0.14D-20  0.59D-21  6  3     0.43     0.04

 Norm of t1 vector:      0.04182183      S-energy:    -0.00000000      T1 diagnostic:  0.00790358
                                                                       D1 diagnostic:  0.01767646
                                                                       D2 diagnostic:  0.13440187 (internal)


 Total CPU time for triples:      0.09 sec


 RESULTS
 =======

  Reference energy                   -115.048856233011
  CCSD singlet pair energy             -0.254833167966
  CCSD triplet pair energy             -0.108727391084
  CCSD correlation energy              -0.363560559050

  Triples (T) contribution             -0.007761129001
  Total correlation energy             -0.371321688051

  CCSD total energy                  -115.412416792061
  CCSD[T] energy                     -115.420469611468
  CCSD-T energy                      -115.420026930396
 !CCSD(T) total energy               -115.420177921062

 Timing summary (sec):

 STEP                 CPU(USER)    SYS     CPU(TOT)    WALL
 Transformation          0.02      0.02      0.04      0.04
 CCSD iterations         0.41      0.06      0.47      1.04
 Triples                 0.09      0.00      0.09      0.09

 Program statistics:

 Available memory in ccsd:               999999795
 Min. memory needed in ccsd:                136177
 Max. memory used in ccsd:                  162910
 Max. memory used in cckext:                178997 (20 integral passes)



 **********************************************************************************************************************************
 DATASETS  * FILE   NREC   LENGTH (MB)   RECORD NAMES
              1      19       31.13       500      610      700      900      950      970     1000      129      960     1100   
                                          VAR    BASINP    GEOM    SYMINP    ZMAT    AOBASIS   BASIS     P2S    ABASIS      S 
                                         1400     1410     1200     1210     1080     1600     1650     1700     1380   
                                           T        V       H0       H01     AOSYM     SMH    MOLCAS    OPER     JKOP   

              2       4        0.47       700     1000      520     2100   
                                         GEOM     BASIS   MCVARS     RHF  

 PROGRAMS   *        TOTAL   CCSD(T)   RHF-SCF       INT
 CPU TIMES  *         1.11      0.55      0.05      0.34
 REAL TIME  *         3.34 SEC
 DISK USED  *        35.56 MB (local),      115.96 MB (total)
 SF USED    *         5.97 MB
 GA USED    *         0.00 MB       (max)       0.00 MB       (current)
 **********************************************************************************************************************************

 CCSD(T)/cc-pVDZ energy=   -115.420177921062

         CCSD(T)         RHF-SCF
   -115.42017792   -115.04885623
 **********************************************************************************************************************************
 Molpro calculation terminated
