
    -----------------------------------------------------------------------
          Psi4: An Open-Source Ab Initio Electronic Structure Package
                               Psi4 1.4a2.dev629 

                         Git: Rev {master} 2938fc2 dirty


    D. G. A. Smith, L. A. Burns, A. C. Simmonett, R. M. Parrish,
    M. C. Schieber, R. Galvelis, P. Kraus, H. Kruse, R. Di Remigio,
    A. Alenaizan, A. M. James, S. Lehtola, J. P. Misiewicz, M. Scheurer,
    R. A. Shaw, J. B. Schriber, Y. Xie, Z. L. Glick, D. A. Sirianni,
    J. S. O'Brien, J. M. Waldrop, A. Kumar, E. G. Hohenstein,
    B. P. Pritchard, B. R. Brooks, H. F. Schaefer III, A. Yu. Sokolov,
    K. Patkowski, A. E. DePrince III, U. Bozkaya, R. A. King,
    F. A. Evangelista, J. M. Turney, T. D. Crawford, C. D. Sherrill,
    J. Chem. Phys. 152(18) 184108 (2020). https://doi.org/10.1063/5.0006002

                            Additional Code Authors
    E. T. Seidl, C. L. Janssen, E. F. Valeev, M. L. Leininger,
    J. F. Gonthier, R. M. Richard, H. R. McAlexander, M. Saitow, X. Wang,
    P. Verma, and M. H. Lechner

             Previous Authors, Complete List of Code Contributors,
                       and Citations for Specific Modules
    https://github.com/psi4/psi4/blob/master/codemeta.json
    https://github.com/psi4/psi4/graphs/contributors
    http://psicode.org/psi4manual/master/introduction.html#citing-psifour

    -----------------------------------------------------------------------


    Psi4 started on: Wednesday, 21 September 2022 04:29PM

    Process ID: 12346
    Host:       n054
    PSIDATADIR: /opt/psi/4/master/share/psi4
    Memory:     500.0 MiB
    Threads:    1
    
  ==> Input File <==

--------------------------------------------------------------------------
# o-Benzyne preliminary computations

memory 14 gb

molecule {
  0 1
  units bohr
 C   -1.3729734117   -0.0245396759    0.0000011692
 O    1.3075586257    0.1204072928   -0.0000000955
 H   -2.0798654770    1.9079654395   -0.0000824692
 H   -2.1104605570   -0.9779779199    1.6814259224
 H   -2.1104578133   -0.9781040837   -1.6813536236
 H    1.9424744733   -1.5778831728    0.0000006866
}

set {
  basis cc-pvtz
  reference rhf
  e_convergence 10 
  d_convergence 10
  r_convergence 8
  maxiter 300
  freeze_core True
}

e, wfn = energy('ccsd(t)', return_wfn = True)
psi4.print_out('Giraffe The Energy is %.12f \n'%(e))
--------------------------------------------------------------------------

  Memory set to  13.039 GiB by Python driver.

Scratch directory: /tmp/

*** tstart() called on n054
*** at Wed Sep 21 16:29:22 2022

   => Loading Basis Set <=

    Name: CC-PVTZ
    Role: ORBITAL
    Keyword: BASIS
    atoms 1   entry C          line   186 file /opt/psi/4/master/share/psi4/basis/cc-pvtz.gbs 
    atoms 2   entry O          line   262 file /opt/psi/4/master/share/psi4/basis/cc-pvtz.gbs 
    atoms 3-6 entry H          line    23 file /opt/psi/4/master/share/psi4/basis/cc-pvtz.gbs 


         ---------------------------------------------------------
                                   SCF
               by Justin Turney, Rob Parrish, Andy Simmonett
                          and Daniel G. A. Smith
                              RHF Reference
                        1 Threads,  13351 MiB Core
         ---------------------------------------------------------

  ==> Geometry <==

    Molecular point group: c1
    Full point group: C1

    Geometry (in Bohr), charge = 0, multiplicity = 1:

       Center              X                  Y                   Z               Mass       
    ------------   -----------------  -----------------  -----------------  -----------------
         C           -1.374415803590    -0.024311894372     0.000001077248    12.000000000000
         O            1.306116233810     0.120635074328    -0.000000187452    15.994914619570
         H           -2.081307868890     1.908193221028    -0.000082561152     1.007825032230
         H           -2.111902948890    -0.977750138372     1.681425830448     1.007825032230
         H           -2.111900205190    -0.977876302172    -1.681353715552     1.007825032230
         H            1.941032081410    -1.577655391272     0.000000594648     1.007825032230

  Running in c1 symmetry.

  Rotational constants: A =      4.28662  B =      0.82685  C =      0.79785 [cm^-1]
  Rotational constants: A = 128509.70399  B =  24788.40723  C =  23918.84194 [MHz]
  Nuclear repulsion =   40.308272647390076

  Charge       = 0
  Multiplicity = 1
  Electrons    = 18
  Nalpha       = 9
  Nbeta        = 9

  ==> Algorithm <==

  SCF Algorithm Type is PK.
  DIIS enabled.
  MOM disabled.
  Fractional occupation disabled.
  Guess Type is SAD.
  Energy threshold   = 1.00e-10
  Density threshold  = 1.00e-10
  Integral threshold = 0.00e+00

  ==> Primary Basis <==

  Basis Set: CC-PVTZ
    Blend: CC-PVTZ
    Number of shells: 44
    Number of basis function: 116
    Number of Cartesian functions: 130
    Spherical Harmonics?: true
    Max angular momentum: 3

  ==> Integral Setup <==

  Using in-core PK algorithm.
   Calculation information:
      Number of atoms:                   6
      Number of AO shells:              44
      Number of primitives:             84
      Number of atomic orbitals:       130
      Number of basis functions:       116

      Integral cutoff                 1.00e-12
      Number of threads:                 1

  Performing in-core PK
  Using 46056582 doubles for integral storage.
  We computed 490471 shell quartets total.
  Whereas there are 490545 unique shell quartets.

  ==> DiskJK: Disk-Based J/K Matrices <==

    J tasked:                  Yes
    K tasked:                  Yes
    wK tasked:                  No
    Memory [MiB]:            10013
    Schwarz Cutoff:          1E-12

    OpenMP threads:              1

  Minimum eigenvalue in the overlap matrix is 1.8499542119E-03.
  Reciprocal condition number of the overlap matrix is 2.7974060262E-04.
    Using symmetric orthogonalization.

  ==> Pre-Iterations <==

  SCF Guess: Superposition of Atomic Densities via on-the-fly atomic UHF (no occupation information).

   -------------------------
    Irrep   Nso     Nmo    
   -------------------------
     A        116     116 
   -------------------------
    Total     116     116
   -------------------------

  ==> Iterations <==

                        Total Energy        Delta E     RMS |[F,P]|

   @RHF iter SAD:  -114.41469658313045   -1.14415e+02   0.00000e+00 
   @RHF iter   1:  -115.01450919315785   -5.99813e-01   3.41156e-03 DIIS
   @RHF iter   2:  -115.07131944629226   -5.68103e-02   1.95403e-03 DIIS
   @RHF iter   3:  -115.08814354754277   -1.68241e-02   3.00913e-04 DIIS
   @RHF iter   4:  -115.08902773691466   -8.84189e-04   8.77410e-05 DIIS
   @RHF iter   5:  -115.08910120087836   -7.34640e-05   2.14458e-05 DIIS
   @RHF iter   6:  -115.08910606236289   -4.86148e-06   4.73623e-06 DIIS
   @RHF iter   7:  -115.08910642958396   -3.67221e-07   1.09771e-06 DIIS
   @RHF iter   8:  -115.08910645108629   -2.15023e-08   2.26664e-07 DIIS
   @RHF iter   9:  -115.08910645199417   -9.07875e-10   4.21432e-08 DIIS
   @RHF iter  10:  -115.08910645202408   -2.99138e-11   1.08545e-08 DIIS
   @RHF iter  11:  -115.08910645202627   -2.18847e-12   2.22474e-09 DIIS
   @RHF iter  12:  -115.08910645202627    0.00000e+00   3.98473e-10 DIIS
   @RHF iter  13:  -115.08910645202613    1.42109e-13   7.34618e-11 DIIS
  Energy and wave function converged.


  ==> Post-Iterations <==

    Orbital Energies [Eh]
    ---------------------

    Doubly Occupied:                                                      

       1A    -20.552804     2A    -11.269750     3A     -1.354280  
       4A     -0.923148     5A     -0.687964     6A     -0.617598  
       7A     -0.590262     8A     -0.501952     9A     -0.449209  

    Virtual:                                                              

      10A      0.138417    11A      0.178496    12A      0.220250  
      13A      0.223810    14A      0.290677    15A      0.386946  
      16A      0.404659    17A      0.544408    18A      0.583200  
      19A      0.622886    20A      0.624888    21A      0.637927  
      22A      0.689790    23A      0.703636    24A      0.720645  
      25A      0.833117    26A      0.864500    27A      0.871960  
      28A      0.927650    29A      1.068328    30A      1.099994  
      31A      1.178056    32A      1.189818    33A      1.261052  
      34A      1.272355    35A      1.281565    36A      1.366069  
      37A      1.446415    38A      1.490343    39A      1.521892  
      40A      1.544779    41A      1.581802    42A      1.619312  
      43A      1.772831    44A      2.092828    45A      2.180482  
      46A      2.198218    47A      2.300291    48A      2.323104  
      49A      2.489101    50A      2.510458    51A      2.578172  
      52A      2.804607    53A      2.949528    54A      3.056089  
      55A      3.108302    56A      3.116304    57A      3.144623  
      58A      3.221840    59A      3.242127    60A      3.312753  
      61A      3.313410    62A      3.341335    63A      3.384121  
      64A      3.499646    65A      3.613814    66A      3.633030  
      67A      3.698424    68A      3.706343    69A      3.744164  
      70A      3.760110    71A      3.814148    72A      3.835752  
      73A      3.903319    74A      4.007685    75A      4.025961  
      76A      4.117591    77A      4.159374    78A      4.168677  
      79A      4.246028    80A      4.254398    81A      4.285035  
      82A      4.399065    83A      4.435020    84A      4.464317  
      85A      4.555754    86A      4.579716    87A      4.709811  
      88A      4.779694    89A      4.990321    90A      5.030550  
      91A      5.049688    92A      5.199552    93A      5.264474  
      94A      5.310139    95A      5.365746    96A      5.428599  
      97A      5.540099    98A      5.540977    99A      5.557499  
     100A      5.784590   101A      5.943219   102A      6.190026  
     103A      6.206711   104A      6.244153   105A      6.426155  
     106A      6.635589   107A      6.994099   108A      7.125554  
     109A      7.175690   110A      7.235891   111A      7.352552  
     112A      7.428296   113A      7.594162   114A      7.907630  
     115A     12.129194   116A     13.684119  

    Final Occupation by Irrep:
              A 
    DOCC [     9 ]

  @RHF Final Energy:  -115.08910645202613

   => Energetics <=

    Nuclear Repulsion Energy =             40.3082726473900763
    One-Electron Energy =                -236.9008227257181431
    Two-Electron Energy =                  81.5034436263019302
    Total Energy =                       -115.0891064520261295

Computation Completed


Properties will be evaluated at   0.000000,   0.000000,   0.000000 [a0]

Properties computed using the SCF density matrix

  Nuclear Dipole Moment: [e a0]
     X:    -2.1616      Y:    -0.8059      Z:    -0.0000

  Electronic Dipole Moment: [e a0]
     X:     1.7749      Y:     0.2177      Z:     0.0000

  Dipole Moment: [e a0]
     X:    -0.3868      Y:    -0.5882      Z:    -0.0000     Total:     0.7039

  Dipole Moment: [D]
     X:    -0.9830      Y:    -1.4949      Z:    -0.0000     Total:     1.7892


*** tstop() called on n054 at Wed Sep 21 16:29:25 2022
Module time:
	user time   =       3.27 seconds =       0.05 minutes
	system time =       0.04 seconds =       0.00 minutes
	total time  =          3 seconds =       0.05 minutes
Total time:
	user time   =       3.27 seconds =       0.05 minutes
	system time =       0.04 seconds =       0.00 minutes
	total time  =          3 seconds =       0.05 minutes
 MINTS: Wrapper to libmints.
   by Justin Turney

   Calculation information:
      Number of threads:                 1
      Number of atoms:                   6
      Number of AO shells:              44
      Number of SO shells:              44
      Number of primitives:             84
      Number of atomic orbitals:       130
      Number of basis functions:       116

      Number of irreps:                  1
      Integral cutoff                 0.00e+00
      Number of functions per irrep: [ 116 ]

 OEINTS: Overlap, kinetic, potential, dipole, and quadrupole integrals
         stored in file 35.

      Computing two-electron integrals...done
      Computed 22873594 non-zero two-electron integrals.
        Stored in file 33.


*** tstart() called on n054
*** at Wed Sep 21 16:29:27 2022


	Wfn Parameters:
	--------------------
	Wavefunction         = CCSD_T
	Number of irreps     = 1
	Number of MOs        = 116
	Number of active MOs = 114
	AO-Basis             = NONE
	Semicanonical        = false
	Reference            = RHF
	Print Level          = 1

	IRREP	# MOs	# FZDC	# DOCC	# SOCC	# VIRT	# FZVR
	-----	-----	------	------	------	------	------
	 A	   116	    2	    7	    0	    107	    0
	Transforming integrals...
	IWL integrals will be deleted.
	(OO|OO)...
	Presorting SO-basis two-electron integrals.
	Sorting File: SO Ints (nn|nn) nbuckets = 1
	Transforming the one-electron integrals and constructing Fock matrices
	Starting first half-transformation.
	Sorting half-transformed integrals.
	First half integral transformation complete.
	Starting second half-transformation.
	Two-electron integral transformation complete.
	(OO|OV)...
	Starting second half-transformation.
	Two-electron integral transformation complete.
	(OO|VV)...
	Starting second half-transformation.
	Two-electron integral transformation complete.
	(OV|OO)...
	Starting first half-transformation.
	Sorting half-transformed integrals.
	First half integral transformation complete.
	Starting second half-transformation.
	Two-electron integral transformation complete.
	(OV|OV)...
	Starting second half-transformation.
	Two-electron integral transformation complete.
	(OV|VV)...
	Starting second half-transformation.
	Two-electron integral transformation complete.
	(VV|OO)...
	Starting first half-transformation.
	Sorting half-transformed integrals.
	First half integral transformation complete.
	Starting second half-transformation.
	Two-electron integral transformation complete.
	(VV|OV)...
	Starting second half-transformation.
	Two-electron integral transformation complete.
	(VV|VV)...
	Starting second half-transformation.
	Two-electron integral transformation complete.
	Frozen core energy     =   -106.49081877410526

	Size of irrep 0 of <ab|cd> integrals:    131.080 (MW) /   1048.637 (MB)
	Total:                                   131.080 (MW) /   1048.637 (MB)

	Size of irrep 0 of <ia|bc> integrals:      8.575 (MW) /     68.602 (MB)
	Total:                                     8.575 (MW) /     68.602 (MB)

	Size of irrep 0 of tijab amplitudes:       0.561 (MW) /      4.488 (MB)
	Total:                                     0.561 (MW) /      4.488 (MB)

	Nuclear Rep. energy          =     40.30827264739008
	SCF energy                   =   -115.08910645202613
	One-electron energy          =    -87.56429329607758
	Two-electron energy          =     38.65773297076662
	Reference energy             =   -115.08910645202614

*** tstop() called on n054 at Wed Sep 21 16:29:37 2022
Module time:
	user time   =       7.66 seconds =       0.13 minutes
	system time =       2.60 seconds =       0.04 minutes
	total time  =         10 seconds =       0.17 minutes
Total time:
	user time   =      12.48 seconds =       0.21 minutes
	system time =       2.79 seconds =       0.05 minutes
	total time  =         15 seconds =       0.25 minutes
            **************************
            *                        *
            *        CCENERGY        *
            *                        *
            **************************

    Nuclear Rep. energy (wfn)     =   40.308272647390076
    SCF energy          (wfn)     = -115.089106452026130
    Reference energy    (file100) = -115.089106452026144

    Input parameters:
    -----------------
    Wave function   =     CCSD_T
    Reference wfn   =     RHF
    Brueckner       =     No
    Memory (Mbytes) =     14000.0
    Maxiter         =    300
    R_Convergence   =     1.0e-08
    E_Convergence   =     1.0e-10
    Restart         =     Yes
    DIIS            =     Yes
    AO Basis        =     NONE
    ABCD            =     NEW
    Cache Level     =     2
    Cache Type      =     LOW
    Print Level     =     1
    Num. of threads =     1
    # Amps to Print =     10
    Print MP2 Amps? =     No
    Analyze T2 Amps =     No
    Print Pair Ener =     No
    Local CC        =     No
    SCS-MP2         =     False
    SCSN-MP2        =     False
    SCS-CCSD        =     False

MP2 correlation energy -0.4283409045827194
                Solving CC Amplitude Equations
                ------------------------------
  Iter             Energy              RMS        T1Diag      D1Diag    New D1Diag    D2Diag
  ----     ---------------------    ---------   ----------  ----------  ----------   --------
     0        -0.428340904582719    0.000e+00    0.000000    0.000000    0.000000    0.128357
     1        -0.435626877524184    4.785e-02    0.007308    0.014781    0.014781    0.129695
     2        -0.445460335801382    1.576e-02    0.007424    0.014725    0.014725    0.135478
     3        -0.446931700010064    5.533e-03    0.008330    0.016895    0.016895    0.136924
     4        -0.446839812360710    1.221e-03    0.008390    0.016970    0.016970    0.137159
     5        -0.446882639361708    4.458e-04    0.008429    0.017115    0.017115    0.137261
     6        -0.446890156128913    1.281e-04    0.008441    0.017172    0.017172    0.137269
     7        -0.446887669299554    4.751e-05    0.008443    0.017189    0.017189    0.137266
     8        -0.446887696623941    1.749e-05    0.008445    0.017199    0.017199    0.137266
     9        -0.446887781263282    4.963e-06    0.008445    0.017201    0.017201    0.137266
    10        -0.446887530748775    1.573e-06    0.008445    0.017201    0.017201    0.137266
    11        -0.446887596104866    4.894e-07    0.008445    0.017201    0.017201    0.137266
    12        -0.446887581276830    1.199e-07    0.008445    0.017201    0.017201    0.137266
    13        -0.446887584751201    4.346e-08    0.008445    0.017201    0.017201    0.137266
    14        -0.446887585965692    1.231e-08    0.008445    0.017201    0.017201    0.137266
    15        -0.446887586006902    5.139e-09    0.008445    0.017201    0.017201    0.137266
    16        -0.446887586029757    1.579e-09    0.008445    0.017201    0.017201    0.137266

    Iterations converged.


    Largest TIA Amplitudes:
              3   6        -0.0081558205
              3  14         0.0075957676
              3   9         0.0067195727
              6  14        -0.0067143498
              4   7         0.0058469906
              5   8         0.0058122743
              4   3        -0.0057959564
              3   2         0.0055058010
              6   6         0.0055042943
              4   5        -0.0051748988

    Largest TIjAb Amplitudes:
      3   3   9   9        -0.0231014079
      4   4   7   7        -0.0214915122
      6   6  14  14        -0.0210438764
      5   5  12  12        -0.0204016217
      2   2   7   7        -0.0191142085
      4   4   8   8        -0.0161662249
      3   3  14  14        -0.0151935190
      3   3   2   9        -0.0150928378
      3   3   9   2        -0.0150928378
      3   6   9   9        -0.0150151357

    SCF energy       (wfn)                    = -115.089106452026130
    Reference energy (file100)                = -115.089106452026144

    Opposite-spin MP2 correlation energy      =   -0.330133059074914
    Same-spin MP2 correlation energy          =   -0.098207845507805
    Singles MP2 correlation energy            =   -0.000000000000000
    MP2 correlation energy                    =   -0.428340904582719
      * MP2 total energy                      = -115.517447356608869

    Opposite-spin CCSD correlation energy     =   -0.357718892160808
    Same-spin CCSD correlation energy         =   -0.089168693868949
    Singles CCSD correlation energy           =    0.000000000000000
    CCSD correlation energy                   =   -0.446887586029757
      * CCSD total energy                     = -115.535994038055904

            **************************
            *                        *
            *        CCTRIPLES       *
            *                        *
            **************************


    Wave function   =    CCSD_T
    Reference wfn   =      RHF

    Nuclear Rep. energy (wfn)                =   40.308272647390076
    SCF energy          (wfn)                = -115.089106452026130
    Reference energy    (file100)            = -115.089106452026144
    CCSD energy         (file100)            =   -0.446887586029757
    Total CCSD energy   (file100)            = -115.535994038055904

    Number of ijk index combinations:               84
    Memory available in words        :      1750000000
    ~Words needed per explicit thread:         4900172
    Number of threads for explicit ijk threading:    1

    MKL num_threads set to 1 for explicit threading.

    (T) energy                                =   -0.014790804124580
      * CCSD(T) total energy                  = -115.550784842180477

Giraffe The Energy is -115.550784842180 

    Psi4 stopped on: Wednesday, 21 September 2022 04:30PM
    Psi4 wall time for execution: 0:00:43.68

*** Psi4 exiting successfully. Buy a developer a beer!
