
 Primary working directories    : /tmp/667821.5.gen4.q
 Secondary working directories  : /tmp/667821.5.gen4.q
 Wavefunction directory         : /home/vulcan/nlk36701/wfu/
 Main file repository           : /tmp/667821.5.gen4.q/

 ARCHNAME  : Linux/x86_64
 FC        : /opt/intel/compilers_and_libraries_2016.1.150/linux/bin/intel64/ifort
 FCVERSION : 16.0.1
 BLASLIB   : -mkl
 id        : ccgc

 Nodes     nprocs
 n054         1
 ga_uses_ma=false, calling ma_init with nominal heap.
 GA-space will be limited to   8.0 MW (determined by -G option)

 Using customized tuning parameters: mindgm=10; mindgv=16; mindgc=4; mindgr=1; noblas=0; mincuda=1000; minvec=7
 default implementation of scratch files=df  

 ***,Optimization of min3
 memory,1000,m
 gthresh,energy=1.0d-12,orbital=1.0d-10,oneint=1.0d-16,twoint=1.0d-16,optgrad=1.0d-6,compress=1.0d-13
 geomtyp=xyz
 
  bohr
  geometry = {
  3
  arbitrary comment
  H   -0.0000000000   -1.4231165924    0.9965657988
  O    0.0000000000   -0.0049789280   -0.1307072622
  H    0.0000000000    1.4280955205    1.0004850834
 }
 
 basis=cc-pvdz
 {rhf;maxit,200}
 {ccsd(t);maxit,200}

 Variables initialized (661), CPU time= 0.00 sec
 Commands  initialized (458), CPU time= 0.00 sec, 486 directives.
 Default parameters read. Elapsed time= 0.05 sec

 Checking input...
 Passed
1


                                         ***  PROGRAM SYSTEM MOLPRO  ***
                         Copyright, University College Cardiff Consultants Limited, 2008

                                    Version 2010.1 linked May 16 2016 07:17:05


 **********************************************************************************************************************************
 LABEL *   Optimization of min3                                                          
 Linux-4.4.3/n054(x86_64) 64 bit mpp version                                             DATE: 28-Mar-22          TIME: 11:15:16  
 **********************************************************************************************************************************

 SHA1:             9e8077add272b0f3cad6f7df79ec5211205f459d
 **********************************************************************************************************************************

 THRESHOLDS:

 ZERO    =  1.00D-12  ONEINT  =  1.00D-16  TWOINT  =  1.00D-16  PREFAC  =  1.00D-14  LOCALI  =  1.00D-09  EORDER  =  1.00D-04
 ENERGY  =  1.00D-12  ETEST   =  0.00D+00  EDENS   =  0.00D+00  THRDEDEF=  1.00D-06  GRADIENT=  1.00D-02  STEP    =  1.00D-03
 ORBITAL =  1.00D-10  CIVEC   =  1.00D-05  COEFF   =  1.00D-04  PRINTCI =  5.00D-02  PUNCHCI =  9.90D+01  OPTGRAD =  1.00D-06
 OPTENERG=  1.00D-06  OPTSTEP =  3.00D-04  THRGRAD =  1.00D-10  COMPRESS=  1.00D-13  VARMIN  =  1.00D-07  VARMAX  =  1.00D-03
 THRDOUB =  0.00D+00  THRDIV  =  1.00D-05  THRRED  =  1.00D-07  THRPSP  =  1.00D+00  THRDC   =  1.00D-10  THRCS   =  1.00D-10
 THRNRM  =  1.00D-08  THREQ   =  0.00D+00  THRDE   =  1.00D+00  THRREF  =  1.00D-05  SPARFAC =  1.00D+00  THRDLP  =  1.00D-07
 THRDIA  =  1.00D-10  THRDLS  =  1.00D-07  THRGPS  =  0.00D+00  THRKEX  =  0.00D+00  THRDIS  =  2.00D-01  THRVAR  =  1.00D-10
 THRLOC  =  1.00D-06  THRGAP  =  1.00D-06  THRLOCT = -1.00D+00  THRGAPT = -1.00D+00  THRORB  =  1.00D-06  THRMLTP =  0.00D+00
 THRCPQCI=  1.00D-10  KEXTA   =  0.00D+00  THRCOARS=  0.00D+00  SYMTOL  =  1.00D-06  GRADTOL =  1.00D-06  THROVL  =  1.00D-08
 THRORTH =  1.00D-08  GRID    =  1.00D-06  GRIDMAX =  1.00D-03  DTMAX   =  0.00D+00

 SETTING GEOMTYP        =    XYZ
 ZUNIT=BOHR
 

 Variable memory set to 1000000000 words,  buffer space   230000 words

 SETTING BASIS          =    CC-PVDZ


 Recomputing integrals since basis changed


 Using spherical harmonics

 Library entry H      S cc-pVDZ              selected for orbital group  1
 Library entry H      P cc-pVDZ              selected for orbital group  1
 Library entry O      S cc-pVDZ              selected for orbital group  2
 Library entry O      P cc-pVDZ              selected for orbital group  2
 Library entry O      D cc-pVDZ              selected for orbital group  2

1PROGRAM * SEWARD (Integral evaluation for generally contracted gaussian basis sets)     Author: Roland Lindh, 1990

 Geometry written to block  1 of record 700


 Point group  Cs  



 ATOMIC COORDINATES

 NR  ATOM    CHARGE       X              Y              Z

   1  H       1.00    0.000000000   -1.423116592    0.996565799
   2  O       8.00    0.000000000   -0.004978928   -0.130707262
   3  H       1.00    0.000000000    1.428095521    1.000485083

 Bond lengths in Bohr (Angstrom)

 1-2  1.811590182  2-3  1.825732318
     ( 0.958652237)     ( 0.966135933)

 Bond angles

  1-2-3  103.23324968

 NUCLEAR CHARGE:                   10
 NUMBER OF PRIMITIVE AOS:          41
 NUMBER OF SYMMETRY AOS:           40
 NUMBER OF CONTRACTIONS:           24   (  18A'  +   6A"  )
 NUMBER OF CORE ORBITALS:           1   (   1A'  +   0A"  )
 NUMBER OF VALENCE ORBITALS:        6   (   5A'  +   1A"  )


 NUCLEAR REPULSION ENERGY    9.14854085


 Eigenvalues of metric

         1 0.176E-01 0.453E-01 0.513E-01 0.987E-01 0.160E+00 0.171E+00 0.223E+00 0.519E+00
         2 0.183E+00 0.525E+00 0.624E+00 0.110E+01 0.132E+01 0.224E+01


 Contracted 2-electron integrals neglected if value below      1.0D-16
 AO integral compression algorithm  1   Integral accuracy      1.0D-16

     0.524 MB (compressed) written to integral file (100.0%)

     Node minimum: 0.524 MB, node maximum: 0.524 MB


 NUMBER OF SORTED TWO-ELECTRON INTEGRALS:      25710.     BUFFER LENGTH:  32768
 NUMBER OF SEGMENTS:   1  SEGMENT LENGTH:      25710      RECORD LENGTH: 524288

 Memory used in sort:       0.58 MW

 SORT1 READ       33005. AND WROTE       23239. INTEGRALS IN      1 RECORDS. CPU TIME:     0.00 SEC, REAL TIME:     0.00 SEC
 SORT2 READ       23239. AND WROTE       25710. INTEGRALS IN      2 RECORDS. CPU TIME:     0.00 SEC, REAL TIME:     0.01 SEC

 FILE SIZES:   FILE 1:     2.8 MBYTE,  FILE 4:     4.2 MBYTE,   TOTAL:      7.0 MBYTE

 OPERATOR DM      FOR CENTER  0  COORDINATES:    0.000000    0.000000    0.000000


 **********************************************************************************************************************************
 DATASETS  * FILE   NREC   LENGTH (MB)   RECORD NAMES
              1      19        2.79       500      610      700      900      950      970     1000      129      960     1100   
                                          VAR    BASINP    GEOM    SYMINP    ZMAT    AOBASIS   BASIS     P2S    ABASIS      S 
                                         1400     1410     1200     1210     1080     1600     1650     1300     1700   
                                           T        V       H0       H01     AOSYM     SMH    MOLCAS    ERIS     OPER   

 PROGRAMS   *        TOTAL       INT
 CPU TIMES  *         0.12      0.08
 REAL TIME  *         0.30 SEC
 DISK USED  *         8.05 MB      
 GA USED    *         0.00 MB       (max)       0.00 MB       (current)
 **********************************************************************************************************************************

1PROGRAM * RHF-SCF (CLOSED SHELL)       Authors: W. Meyer, H.-J. Werner


 NUMBER OF ELECTRONS:       5+    5-
 CONVERGENCE THRESHOLDS:    1.00E-10 (Density)    1.00E-13 (Energy)
 MAX. NUMBER OF ITERATIONS:      200
 INTERPOLATION TYPE:            DIIS
 INTERPOLATION STEPS:              2 (START)      1 (STEP)
 LEVEL SHIFTS:                  0.00 (CLOSED)  0.00 (OPEN) 



 Orbital guess generated from atomic densities. Full valence occupancy:    6   1

 Molecular orbital dump at record        2100.2

 Initial alpha occupancy:   4   1
 Initial beta  occupancy:   4   1
 Wave function symmetry:    1

 ITERATION    DDIFF          GRAD             ENERGY        2-EL.EN.            DIPOLE MOMENTS         DIIS
    1      0.000D+00      0.000D+00       -75.98789508     77.800082    0.00000    0.01010    1.16200    0
    2      0.000D+00      0.310D-01       -76.01767918     74.537623    0.00000    0.00371    0.75919    1
    3      0.577D-01      0.163D-01       -76.02622573     75.864460    0.00000    0.00442    0.83565    2
    4      0.190D-01      0.184D-02       -76.02644541     75.766845    0.00000    0.00376    0.82307    3
    5      0.353D-02      0.496D-03       -76.02646353     75.779043    0.00000    0.00351    0.81934    4
    6      0.111D-02      0.780D-04       -76.02646411     75.778991    0.00000    0.00345    0.81869    5
    7      0.177D-03      0.112D-04       -76.02646413     75.778930    0.00000    0.00343    0.81858    6
    8      0.313D-04      0.914D-06       -76.02646413     75.778917    0.00000    0.00343    0.81858    5
    9      0.202D-05      0.118D-06       -76.02646413     75.778923    0.00000    0.00343    0.81858    5
   10      0.262D-06      0.378D-07       -76.02646413     75.778920    0.00000    0.00343    0.81858    5
   11      0.614D-07      0.971D-08       -76.02646413     75.778921    0.00000    0.00343    0.81858    5
   12      0.190D-07      0.201D-08       -76.02646413     75.778921    0.00000    0.00343    0.81858    5
   13      0.436D-08      0.397D-09       -76.02646413     75.778921    0.00000    0.00343    0.81858    6
   14      0.898D-09      0.625D-10       -76.02646413     75.778921    0.00000    0.00343    0.81858    6
   15      0.149D-09      0.948D-11       -76.02646413     75.778921    0.00000    0.00343    0.81858    6
   16      0.219D-10      0.161D-11       -76.02646413     75.778921    0.00000    0.00343    0.81858    0

 Final occupancy:   4   1

 !RHF STATE 1.1 Energy                -76.026464125287
 Nuclear energy                         9.14854085
 One-electron energy                 -123.06446547
 Two-electron energy                   37.88946050
 Virial quotient                       -1.00072944
 !RHF STATE 1.1 Dipole moment           0.00000000     0.00342859     0.81857813
 Dipole moment /Debye                   0.00000000     0.00871404     2.08048179

 Orbital energies:

         1.1          2.1          3.1          4.1          5.1          6.1
    -20.552035    -1.335124    -0.694123    -0.568241     0.184430     0.255639

         1.2          2.2          3.2
     -0.493250     1.199964     1.479186


 **********************************************************************************************************************************
 DATASETS  * FILE   NREC   LENGTH (MB)   RECORD NAMES
              1      19        2.79       500      610      700      900      950      970     1000      129      960     1100   
                                          VAR    BASINP    GEOM    SYMINP    ZMAT    AOBASIS   BASIS     P2S    ABASIS      S 
                                         1400     1410     1200     1210     1080     1600     1650     1300     1700   
                                           T        V       H0       H01     AOSYM     SMH    MOLCAS    ERIS     OPER   

              2       3        0.30       700     1000     2100   
                                         GEOM     BASIS     RHF  

 PROGRAMS   *        TOTAL       RHF       INT
 CPU TIMES  *         0.13      0.01      0.08
 REAL TIME  *         0.33 SEC
 DISK USED  *         8.05 MB      
 GA USED    *         0.00 MB       (max)       0.00 MB       (current)
 **********************************************************************************************************************************


1PROGRAM * CCSD (Closed-shell coupled cluster)     Authors: C. Hampel, H.-J. Werner, 1991, M. Deegan, P.J. Knowles, 1992


 Convergence thresholds:  THRVAR = 1.00D-08  THRDEN = 1.00D-12

 CCSD(T)     terms to be evaluated (factor= 1.000)


 Number of core orbitals:           1 (   1   0 )
 Number of closed-shell orbitals:   4 (   3   1 )
 Number of external orbitals:      19 (  14   5 )

 Molecular orbitals read from record     2100.2  Type=RHF/CANONICAL (state 1.1)

 Number of N-1 electron functions:               4
 Number of N-2 electron functions:              10
 Number of singly external CSFs:                47
 Number of doubly external CSFs:              1563
 Total number of CSFs:                        1611

 Length of J-op  integral file:               0.00 MB
 Length of K-op  integral file:               0.06 MB
 Length of 3-ext integral record:             0.00 MB

 Memory could be reduced to 0.31 Mwords without degradation in triples

 Integral transformation finished. Total CPU:   0.00 sec, npass=  1  Memory used:   0.09 MW

 Reference energy:                    -76.02646413

 MP2 singlet pair energy:              -0.12591207
 MP2 triplet pair energy:              -0.07621157
 MP2 correlation energy:               -0.20212365
 MP2 total energy:                    -76.22858777

 SCS-MP2 correlation energy:           -0.19851502   (PS=  1.200000  PT=  0.333333)
 SCS-MP2 total energy:                -76.22497915

 ITER.      SQ.NORM     CORR.ENERGY   TOTAL ENERGY   ENERGY CHANGE        DEN1      VAR(S)    VAR(P)  DIIS     TIME
   1      1.05311311    -0.21066454   -76.23712866    -0.00854089    -0.00493852  0.28D-03  0.68D-03  1  1     0.00
   2      1.05630307    -0.21160210   -76.23806622    -0.00093756    -0.00390397  0.53D-05  0.58D-04  2  2     0.00
   3      1.05709694    -0.21167726   -76.23814139    -0.00007516    -0.00059908  0.20D-05  0.23D-05  3  3     0.01
   4      1.05727661    -0.21168012   -76.23814424    -0.00000286    -0.00009782  0.12D-06  0.13D-06  4  4     0.01
   5      1.05731018    -0.21167865   -76.23814278     0.00000146    -0.00001554  0.33D-07  0.75D-08  5  5     0.01
   6      1.05731484    -0.21167859   -76.23814272     0.00000006     0.00000038  0.42D-08  0.81D-09  6  6     0.01
   7      1.05731752    -0.21167854   -76.23814266     0.00000006    -0.00000026  0.16D-09  0.68D-10  6  1     0.01
   8      1.05731789    -0.21167849   -76.23814262     0.00000005     0.00000006  0.40D-11  0.47D-11  6  2     0.01
   9      1.05731799    -0.21167848   -76.23814260     0.00000001    -0.00000005  0.93D-13  0.29D-12  6  3     0.01
  10      1.05731802    -0.21167848   -76.23814260     0.00000000    -0.00000002  0.19D-14  0.82D-14  6  4     0.01
  11      1.05731803    -0.21167848   -76.23814260     0.00000000    -0.00000000  0.17D-15  0.32D-15  6  6     0.02
  12      1.05731803    -0.21167848   -76.23814260     0.00000000    -0.00000000  0.39D-17  0.12D-16  6  5     0.02
  13      1.05731803    -0.21167848   -76.23814260    -0.00000000    -0.00000000  0.99D-18  0.93D-18  6  1     0.02
  14      1.05731803    -0.21167848   -76.23814260     0.00000000    -0.00000000  0.26D-18  0.80D-19  6  2     0.02
  15      1.05731803    -0.21167848   -76.23814260     0.00000000    -0.00000000  0.60D-19  0.82D-20  6  3     0.02
  16      1.05731803    -0.21167848   -76.23814260     0.00000000    -0.00000000  0.50D-20  0.15D-20  6  4     0.02

 Norm of t1 vector:      0.02391880      S-energy:    -0.00000000      T1 diagnostic:  0.00597970
                                                                       D1 diagnostic:  0.01129905

 Doubles amplitudes (print threshold =  0.500E-01):

         I         J         SYM. A    SYM. B    A         B      T(IJ, AB)

         4         4         2         2         1         1     -0.05141825


 Total CPU time for triples:      0.00 sec


 RESULTS
 =======

  Reference energy                    -76.026464125287
  CCSD singlet pair energy             -0.143681187587
  CCSD triplet pair energy             -0.067997289996
  CCSD correlation energy              -0.211678477583

  Triples (T) contribution             -0.003071000457
  Total correlation energy             -0.214749478040

  CCSD total energy                   -76.238142602870
  CCSD[T] energy                      -76.241300526452
  CCSD-T energy                       -76.241157785124
 !CCSD(T) total energy                -76.241213603327

 Timing summary (sec):

 STEP                 CPU(USER)    SYS     CPU(TOT)    WALL
 CCSD iterations         0.03      0.01      0.04      0.05

 Program statistics:

 Available memory in ccsd:               999999836
 Min. memory needed in ccsd:                 10413
 Max. memory used in ccsd:                   11148
 Max. memory used in cckext:                 44198 (16 integral passes)



 **********************************************************************************************************************************
 DATASETS  * FILE   NREC   LENGTH (MB)   RECORD NAMES
              1      20        2.90       500      610      700      900      950      970     1000      129      960     1100   
                                          VAR    BASINP    GEOM    SYMINP    ZMAT    AOBASIS   BASIS     P2S    ABASIS      S 
                                         1400     1410     1200     1210     1080     1600     1650     1300     1700     1380   
                                           T        V       H0       H01     AOSYM     SMH    MOLCAS    ERIS     OPER     JKOP   

              2       3        0.30       700     1000     2100   
                                         GEOM     BASIS     RHF  

 PROGRAMS   *        TOTAL   CCSD(T)       RHF       INT
 CPU TIMES  *         0.16      0.03      0.01      0.08
 REAL TIME  *         0.41 SEC
 DISK USED  *         8.05 MB      
 GA USED    *         0.00 MB       (max)       0.00 MB       (current)
 **********************************************************************************************************************************

        CCSD(T)         RHF-SCF 
    -76.24121360    -76.02646413
 **********************************************************************************************************************************
 Variable memory released
