
    -----------------------------------------------------------------------
          Psi4: An Open-Source Ab Initio Electronic Structure Package
                               Psi4 1.4a2.dev629 

                         Git: Rev {master} 2938fc2 dirty


    D. G. A. Smith, L. A. Burns, A. C. Simmonett, R. M. Parrish,
    M. C. Schieber, R. Galvelis, P. Kraus, H. Kruse, R. Di Remigio,
    A. Alenaizan, A. M. James, S. Lehtola, J. P. Misiewicz, M. Scheurer,
    R. A. Shaw, J. B. Schriber, Y. Xie, Z. L. Glick, D. A. Sirianni,
    J. S. O'Brien, J. M. Waldrop, A. Kumar, E. G. Hohenstein,
    B. P. Pritchard, B. R. Brooks, H. F. Schaefer III, A. Yu. Sokolov,
    K. Patkowski, A. E. DePrince III, U. Bozkaya, R. A. King,
    F. A. Evangelista, J. M. Turney, T. D. Crawford, C. D. Sherrill,
    J. Chem. Phys. 152(18) 184108 (2020). https://doi.org/10.1063/5.0006002

                            Additional Code Authors
    E. T. Seidl, C. L. Janssen, E. F. Valeev, M. L. Leininger,
    J. F. Gonthier, R. M. Richard, H. R. McAlexander, M. Saitow, X. Wang,
    P. Verma, and M. H. Lechner

             Previous Authors, Complete List of Code Contributors,
                       and Citations for Specific Modules
    https://github.com/psi4/psi4/blob/master/codemeta.json
    https://github.com/psi4/psi4/graphs/contributors
    http://psicode.org/psi4manual/master/introduction.html#citing-psifour

    -----------------------------------------------------------------------


    Psi4 started on: Tuesday, 15 September 2020 12:58PM

    Process ID: 3252
    Host:       n044
    PSIDATADIR: /opt/psi/4/master/share/psi4
    Memory:     500.0 MiB
    Threads:    1
    
  ==> Input File <==

--------------------------------------------------------------------------
# o-Benzyne preliminary computations

memory 14 gb

molecule {
  0 1
  C         -1.3709614458         -0.0245782668          0.0000040327  
  O          1.3022842790          0.1195252336          0.0000032846  
  H         -2.0720337023          1.9032054649         -0.0009190915  
  H         -2.1035370748         -0.9748979077          1.6768339193  
  H         -2.1034558819         -0.9764099784         -1.6760032088  
  H          1.9346331377         -1.5562005910         -0.0000117258  
  units bohr
}

set {
  basis=cc-pVTZ
  reference rhf
  e_convergence 10 
  d_convergence 10
  r_convergence 8
  maxiter 300
}

energy('ccsd(t)')
--------------------------------------------------------------------------

  Memory set to  13.039 GiB by Python driver.

Scratch directory: /tmp/

*** tstart() called on n044
*** at Tue Sep 15 12:58:59 2020

   => Loading Basis Set <=

    Name: CC-PVTZ
    Role: ORBITAL
    Keyword: BASIS
    atoms 1   entry C          line   186 file /opt/psi/4/master/share/psi4/basis/cc-pvtz.gbs 
    atoms 2   entry O          line   262 file /opt/psi/4/master/share/psi4/basis/cc-pvtz.gbs 
    atoms 3-6 entry H          line    23 file /opt/psi/4/master/share/psi4/basis/cc-pvtz.gbs 


         ---------------------------------------------------------
                                   SCF
               by Justin Turney, Rob Parrish, Andy Simmonett
                          and Daniel G. A. Smith
                              RHF Reference
                        1 Threads,  13351 MiB Core
         ---------------------------------------------------------

  ==> Geometry <==

    Molecular point group: c1
    Full point group: C1

    Geometry (in Bohr), charge = 0, multiplicity = 1:

       Center              X                  Y                   Z               Mass       
    ------------   -----------------  -----------------  -----------------  -----------------
         C           -1.370961444638    -0.024578265855     0.000004031477    12.000000000000
         O            1.302284280162     0.119525234545     0.000003283377    15.994914619570
         H           -2.072033701138     1.903205465845    -0.000919092723     1.007825032230
         H           -2.103537073638    -0.974897906755     1.676833918077     1.007825032230
         H           -2.103455880738    -0.976409977455    -1.676003210023     1.007825032230
         H            1.934633138862    -1.556200590055    -0.000011727023     1.007825032230

  Running in c1 symmetry.

  Rotational constants: A =      4.32766  B =      0.83191  C =      0.80326 [cm^-1]
  Rotational constants: A = 129740.08982  B =  24940.00256  C =  24081.11180 [MHz]
  Nuclear repulsion =   40.474695412151398

  Charge       = 0
  Multiplicity = 1
  Electrons    = 18
  Nalpha       = 9
  Nbeta        = 9

  ==> Algorithm <==

  SCF Algorithm Type is PK.
  DIIS enabled.
  MOM disabled.
  Fractional occupation disabled.
  Guess Type is SAD.
  Energy threshold   = 1.00e-10
  Density threshold  = 1.00e-10
  Integral threshold = 0.00e+00

  ==> Primary Basis <==

  Basis Set: CC-PVTZ
    Blend: CC-PVTZ
    Number of shells: 44
    Number of basis function: 116
    Number of Cartesian functions: 130
    Spherical Harmonics?: true
    Max angular momentum: 3

  ==> Integral Setup <==

  Using in-core PK algorithm.
   Calculation information:
      Number of atoms:                   6
      Number of AO shells:              44
      Number of primitives:             84
      Number of atomic orbitals:       130
      Number of basis functions:       116

      Integral cutoff                 1.00e-12
      Number of threads:                 1

  Performing in-core PK
  Using 46056582 doubles for integral storage.
  We computed 490499 shell quartets total.
  Whereas there are 490545 unique shell quartets.

  ==> DiskJK: Disk-Based J/K Matrices <==

    J tasked:                  Yes
    K tasked:                  Yes
    wK tasked:                  No
    Memory [MiB]:            10013
    Schwarz Cutoff:          1E-12

    OpenMP threads:              1

  Minimum eigenvalue in the overlap matrix is 1.8276143348E-03.
  Reciprocal condition number of the overlap matrix is 2.7532167318E-04.
    Using symmetric orthogonalization.

  ==> Pre-Iterations <==

  SCF Guess: Superposition of Atomic Densities via on-the-fly atomic UHF (no occupation information).

   -------------------------
    Irrep   Nso     Nmo    
   -------------------------
     A        116     116 
   -------------------------
    Total     116     116
   -------------------------

  ==> Iterations <==

                        Total Energy        Delta E     RMS |[F,P]|

   @RHF iter SAD:  -114.43424092101529   -1.14434e+02   0.00000e+00 
   @RHF iter   1:  -115.01519429353907   -5.80953e-01   3.42142e-03 DIIS
   @RHF iter   2:  -115.07216710367678   -5.69728e-02   1.94136e-03 DIIS
   @RHF iter   3:  -115.08873965062283   -1.65725e-02   2.99703e-04 DIIS
   @RHF iter   4:  -115.08960959903776   -8.69948e-04   8.65297e-05 DIIS
   @RHF iter   5:  -115.08968043900812   -7.08400e-05   2.09757e-05 DIIS
   @RHF iter   6:  -115.08968502539832   -4.58639e-06   4.53507e-06 DIIS
   @RHF iter   7:  -115.08968535805208   -3.32654e-07   1.03679e-06 DIIS
   @RHF iter   8:  -115.08968537704507   -1.89930e-08   2.16831e-07 DIIS
   @RHF iter   9:  -115.08968537787459   -8.29516e-10   4.02482e-08 DIIS
   @RHF iter  10:  -115.08968537790219   -2.75975e-11   1.00221e-08 DIIS
   @RHF iter  11:  -115.08968537790358   -1.39266e-12   2.05575e-09 DIIS
   @RHF iter  12:  -115.08968537790386   -2.84217e-13   3.74902e-10 DIIS
   @RHF iter  13:  -115.08968537790390   -4.26326e-14   6.90462e-11 DIIS
  Energy and wave function converged.


  ==> Post-Iterations <==

    Orbital Energies [Eh]
    ---------------------

    Doubly Occupied:                                                      

       1A    -20.551221     2A    -11.268104     3A     -1.358084  
       4A     -0.925264     5A     -0.691308     6A     -0.619168  
       7A     -0.591771     8A     -0.502685     9A     -0.449317  

    Virtual:                                                              

      10A      0.138948    11A      0.179558    12A      0.220494  
      13A      0.224102    14A      0.291140    15A      0.386268  
      16A      0.404304    17A      0.548346    18A      0.585848  
      19A      0.624311    20A      0.625655    21A      0.640371  
      22A      0.691325    23A      0.704995    24A      0.722334  
      25A      0.834572    26A      0.865217    27A      0.874231  
      28A      0.926912    29A      1.069781    30A      1.102218  
      31A      1.178170    32A      1.190306    33A      1.264064  
      34A      1.269472    35A      1.284266    36A      1.365084  
      37A      1.448811    38A      1.492785    39A      1.523949  
      40A      1.547034    41A      1.581221    42A      1.633527  
      43A      1.778013    44A      2.096388    45A      2.180995  
      46A      2.199807    47A      2.301822    48A      2.320058  
      49A      2.488669    50A      2.509690    51A      2.576372  
      52A      2.806266    53A      2.955057    54A      3.056760  
      55A      3.110783    56A      3.121332    57A      3.144455  
      58A      3.227105    59A      3.244799    60A      3.314880  
      61A      3.316510    62A      3.343510    63A      3.386344  
      64A      3.503992    65A      3.615717    66A      3.639094  
      67A      3.702692    68A      3.712082    69A      3.748817  
      70A      3.764042    71A      3.816664    72A      3.844218  
      73A      3.910206    74A      4.015074    75A      4.029051  
      76A      4.121568    77A      4.169501    78A      4.176038  
      79A      4.254641    80A      4.260175    81A      4.296061  
      82A      4.403883    83A      4.446458    84A      4.477216  
      85A      4.566484    86A      4.586689    87A      4.718219  
      88A      4.791772    89A      5.000308    90A      5.060184  
      91A      5.061060    92A      5.209363    93A      5.282032  
      94A      5.319474    95A      5.375675    96A      5.443585  
      97A      5.550722    98A      5.553856    99A      5.569832  
     100A      5.796666   101A      5.950665   102A      6.194409  
     103A      6.222623   104A      6.252739   105A      6.438171  
     106A      6.648701   107A      7.023408   108A      7.141491  
     109A      7.217480   110A      7.236765   111A      7.356393  
     112A      7.454155   113A      7.592061   114A      7.935596  
     115A     12.249258   116A     13.767792  

    Final Occupation by Irrep:
              A 
    DOCC [     9 ]

  @RHF Final Energy:  -115.08968537790390

   => Energetics <=

    Nuclear Repulsion Energy =             40.4746954121513980
    One-Electron Energy =                -237.2149147993637825
    Two-Electron Energy =                  81.6505340093084868
    Total Energy =                       -115.0896853779039049

Computation Completed


Properties will be evaluated at   0.000000,   0.000000,   0.000000 [a0]

Properties computed using the SCF density matrix

  Nuclear Dipole Moment: [e a0]
     X:    -2.1519      Y:    -0.7956      Z:    -0.0000

  Electronic Dipole Moment: [e a0]
     X:     1.7675      Y:     0.2112      Z:     0.0000

  Dipole Moment: [e a0]
     X:    -0.3843      Y:    -0.5844      Z:    -0.0000     Total:     0.6995

  Dipole Moment: [D]
     X:    -0.9769      Y:    -1.4854      Z:    -0.0001     Total:     1.7778


*** tstop() called on n044 at Tue Sep 15 12:59:03 2020
Module time:
	user time   =       3.52 seconds =       0.06 minutes
	system time =       0.03 seconds =       0.00 minutes
	total time  =          4 seconds =       0.07 minutes
Total time:
	user time   =       3.52 seconds =       0.06 minutes
	system time =       0.03 seconds =       0.00 minutes
	total time  =          4 seconds =       0.07 minutes
 MINTS: Wrapper to libmints.
   by Justin Turney

   Calculation information:
      Number of threads:                 1
      Number of atoms:                   6
      Number of AO shells:              44
      Number of SO shells:              44
      Number of primitives:             84
      Number of atomic orbitals:       130
      Number of basis functions:       116

      Number of irreps:                  1
      Integral cutoff                 0.00e+00
      Number of functions per irrep: [ 116 ]

 OEINTS: Overlap, kinetic, potential, dipole, and quadrupole integrals
         stored in file 35.

      Computing two-electron integrals...done
      Computed 22874013 non-zero two-electron integrals.
        Stored in file 33.


*** tstart() called on n044
*** at Tue Sep 15 12:59:05 2020


	Wfn Parameters:
	--------------------
	Wavefunction         = CCSD_T
	Number of irreps     = 1
	Number of MOs        = 116
	Number of active MOs = 116
	AO-Basis             = NONE
	Semicanonical        = false
	Reference            = RHF
	Print Level          = 1

	IRREP	# MOs	# FZDC	# DOCC	# SOCC	# VIRT	# FZVR
	-----	-----	------	------	------	------	------
	 A	   116	    0	    9	    0	    107	    0
	Transforming integrals...
	IWL integrals will be deleted.
	(OO|OO)...
	Presorting SO-basis two-electron integrals.
	Sorting File: SO Ints (nn|nn) nbuckets = 1
	Transforming the one-electron integrals and constructing Fock matrices
	Starting first half-transformation.
	Sorting half-transformed integrals.
	First half integral transformation complete.
	Starting second half-transformation.
	Two-electron integral transformation complete.
	(OO|OV)...
	Starting second half-transformation.
	Two-electron integral transformation complete.
	(OO|VV)...
	Starting second half-transformation.
	Two-electron integral transformation complete.
	(OV|OO)...
	Starting first half-transformation.
	Sorting half-transformed integrals.
	First half integral transformation complete.
	Starting second half-transformation.
	Two-electron integral transformation complete.
	(OV|OV)...
	Starting second half-transformation.
	Two-electron integral transformation complete.
	(OV|VV)...
	Starting second half-transformation.
	Two-electron integral transformation complete.
	(VV|OO)...
	Starting first half-transformation.
	Sorting half-transformed integrals.
	First half integral transformation complete.
	Starting second half-transformation.
	Two-electron integral transformation complete.
	(VV|OV)...
	Starting second half-transformation.
	Two-electron integral transformation complete.
	(VV|VV)...
	Starting second half-transformation.
	Two-electron integral transformation complete.
	Frozen core energy     =      0.00000000000000

	Size of irrep 0 of <ab|cd> integrals:    131.080 (MW) /   1048.637 (MB)
	Total:                                   131.080 (MW) /   1048.637 (MB)

	Size of irrep 0 of <ia|bc> integrals:     11.025 (MW) /     88.203 (MB)
	Total:                                    11.025 (MW) /     88.203 (MB)

	Size of irrep 0 of tijab amplitudes:       0.927 (MW) /      7.419 (MB)
	Total:                                     0.927 (MW) /      7.419 (MB)

	Nuclear Rep. energy          =     40.47469541215140
	SCF energy                   =   -115.08968537790390
	One-electron energy          =   -237.21491482926069
	Two-electron energy          =     81.65053403920548
	Reference energy             =   -115.08968537790383

*** tstop() called on n044 at Tue Sep 15 12:59:18 2020
Module time:
	user time   =      10.44 seconds =       0.17 minutes
	system time =       2.74 seconds =       0.05 minutes
	total time  =         13 seconds =       0.22 minutes
Total time:
	user time   =      15.71 seconds =       0.26 minutes
	system time =       2.95 seconds =       0.05 minutes
	total time  =         19 seconds =       0.32 minutes
            **************************
            *                        *
            *        CCENERGY        *
            *                        *
            **************************

    Nuclear Rep. energy (wfn)     =   40.474695412151398
    SCF energy          (wfn)     = -115.089685377903905
    Reference energy    (file100) = -115.089685377903834

    Input parameters:
    -----------------
    Wave function   =     CCSD_T
    Reference wfn   =     RHF
    Brueckner       =     No
    Memory (Mbytes) =     14000.0
    Maxiter         =    300
    R_Convergence   =     1.0e-08
    E_Convergence   =     1.0e-10
    Restart         =     Yes
    DIIS            =     Yes
    AO Basis        =     NONE
    ABCD            =     NEW
    Cache Level     =     2
    Cache Type      =     LOW
    Print Level     =     1
    Num. of threads =     1
    # Amps to Print =     10
    Print MP2 Amps? =     No
    Analyze T2 Amps =     No
    Print Pair Ener =     No
    Local CC        =     No
    SCS-MP2         =     False
    SCSN-MP2        =     False
    SCS-CCSD        =     False

MP2 correlation energy -0.4570526269199590
                Solving CC Amplitude Equations
                ------------------------------
  Iter             Energy              RMS        T1Diag      D1Diag    New D1Diag    D2Diag
  ----     ---------------------    ---------   ----------  ----------  ----------   --------
     0        -0.457052626919959    0.000e+00    0.000000    0.000000    0.000000    0.127944
     1        -0.464702645168831    4.746e-02    0.006457    0.014743    0.014743    0.129087
     2        -0.474604962866171    1.553e-02    0.006566    0.014704    0.014704    0.134792
     3        -0.476058601927342    5.432e-03    0.007353    0.016752    0.016752    0.136191
     4        -0.475955351207351    1.189e-03    0.007405    0.016890    0.016890    0.136419
     5        -0.475994272141374    4.272e-04    0.007436    0.017018    0.017018    0.136518
     6        -0.476002727187650    1.193e-04    0.007445    0.017066    0.017066    0.136526
     7        -0.476000620747972    4.396e-05    0.007447    0.017080    0.017080    0.136524
     8        -0.476000491837681    1.628e-05    0.007448    0.017088    0.017088    0.136524
     9        -0.476000602659762    4.784e-06    0.007448    0.017089    0.017089    0.136524
    10        -0.476000362254957    1.536e-06    0.007448    0.017090    0.017090    0.136523
    11        -0.476000427880679    4.707e-07    0.007448    0.017090    0.017090    0.136523
    12        -0.476000413859298    1.143e-07    0.007448    0.017090    0.017090    0.136523
    13        -0.476000416804856    4.057e-08    0.007448    0.017090    0.017090    0.136523
    14        -0.476000417921972    1.160e-08    0.007448    0.017090    0.017090    0.136523
    15        -0.476000417966871    4.795e-09    0.007448    0.017090    0.017090    0.136523
    16        -0.476000417994344    1.503e-09    0.007448    0.017090    0.017090    0.136523

    Iterations converged.


    Largest TIA Amplitudes:
              5   6        -0.0079696100
              5  14         0.0075700306
              5   9         0.0070533998
              8  14        -0.0062861081
              6   7         0.0062483396
              6   3        -0.0059033255
              7   8         0.0058220530
              5   2         0.0056934073
              8   6         0.0052663921
              6   5        -0.0050678450

    Largest TIjAb Amplitudes:
      5   5   9   9        -0.0230171634
      6   6   7   7        -0.0223032567
      8   8  14  14        -0.0211414090
      7   7  12  12        -0.0204478424
      4   4   7   7        -0.0182084241
      5   5  14  14        -0.0151909239
      6   6   8   8        -0.0151135008
      5   5   2   9        -0.0149543666
      5   5   9   2        -0.0149543666
      5   8   9   9        -0.0149281003

    SCF energy       (wfn)                    = -115.089685377903905
    Reference energy (file100)                = -115.089685377903834

    Opposite-spin MP2 correlation energy      =   -0.353566086084074
    Same-spin MP2 correlation energy          =   -0.103486540835885
    Singles MP2 correlation energy            =   -0.000000000000000
    MP2 correlation energy                    =   -0.457052626919959
      * MP2 total energy                      = -115.546738004823794

    Opposite-spin CCSD correlation energy     =   -0.381508428722273
    Same-spin CCSD correlation energy         =   -0.094491989272071
    Singles CCSD correlation energy           =    0.000000000000000
    CCSD correlation energy                   =   -0.476000417994344
      * CCSD total energy                     = -115.565685795898176

            **************************
            *                        *
            *        CCTRIPLES       *
            *                        *
            **************************


    Wave function   =    CCSD_T
    Reference wfn   =      RHF

    Nuclear Rep. energy (wfn)                =   40.474695412151398
    SCF energy          (wfn)                = -115.089685377903905
    Reference energy    (file100)            = -115.089685377903834
    CCSD energy         (file100)            =   -0.476000417994344
    Total CCSD energy   (file100)            = -115.565685795898176

    Number of ijk index combinations:              165
    Memory available in words        :      1750000000
    ~Words needed per explicit thread:         4900172
    Number of threads for explicit ijk threading:    1

    MKL num_threads set to 1 for explicit threading.

    (T) energy                                =   -0.014997156384062
      * CCSD(T) total energy                  = -115.580682952282245


    Psi4 stopped on: Tuesday, 15 September 2020 01:00PM
    Psi4 wall time for execution: 0:01:20.37

*** Psi4 exiting successfully. Buy a developer a beer!
