
 Primary working directories    : /tmp/333988.17.gen6.q
 Secondary working directories  : /tmp/333988.17.gen6.q
 Wavefunction directory         : /home/vulcan/mel64643/wfu/
 Main file repository           : /tmp/333988.17.gen6.q/

 ARCHNAME  : Linux/x86_64
 FC        : /opt/intel/compilers_and_libraries_2016.1.150/linux/bin/intel64/ifort
 FCVERSION : 16.0.1
 BLASLIB   : -mkl
 id        : ccgc

 Nodes     nprocs
 n084         3
 Number of processes for MPI-2 version of Molpro:   nprocs(total)=    4   nprocs(compute)=    3   nprocs(helper)=    1
 ga_uses_ma=false, calling ma_init with nominal heap.
 GA-space will be limited to   8.0 MW (determined by -G option)

 Using customized tuning parameters: mindgm=10; mindgv=16; mindgc=4; mindgr=1; noblas=0; mincuda=1000; minvec=7
 default implementation of scratch files=sf  

 ***,Optimization of min3
 memory,1000,m
 gthresh,energy=1.0d-10,orbital=1.0d-10,oneint=1.0d-16,twoint=1.0d-16,optgrad=1.0d-6,compress=1.0d-13
 geomtyp=xyz
 
  bohr
  geometry = {
  12
  arbitrary comment
  C         -3.0980831109          1.5850510499          0.0215461503
  C         -0.8621634688         -0.0700133065         -0.6512753204
  C         -1.1171114372         -2.7748202952          0.2462750333
  O          1.3073620885          1.0999848704          0.5846673101
  O          3.4490587513          0.1211787900         -0.2507021022
  H         -4.7925943236          0.8368826958         -0.8846107814
  H         -2.8058889554          3.5196353063         -0.6248556341
  H         -3.4027095800          1.6017770508          2.0619628061
  H         -0.4691038060         -0.0059117631         -2.6749003367
  H         -2.6958265759         -3.6813837543         -0.7244292326
  H         -1.4722587817         -2.8277708838          2.2786170385
  H          0.6057637198         -3.8239670907         -0.1663313559
 }
 
 basis=cc-pvtz
 {rhf;maxit,200}
 {uccsd(t);maxit,200}

 Variables initialized (661), CPU time= 0.00 sec
 Commands  initialized (458), CPU time= 0.01 sec, 486 directives.
 Default parameters read. Elapsed time= 0.05 sec

 Checking input...
 Passed
1


                                         ***  PROGRAM SYSTEM MOLPRO  ***
                         Copyright, University College Cardiff Consultants Limited, 2008

                                    Version 2010.1 linked May 16 2016 07:17:05


 **********************************************************************************************************************************
 LABEL *   Optimization of min3                                                          
 Linux-4.4.3/n084(x86_64) 64 bit mpp version                                             DATE: 15-Jul-20          TIME: 07:11:53  
 **********************************************************************************************************************************

 SHA1:             9e8077add272b0f3cad6f7df79ec5211205f459d
 **********************************************************************************************************************************

 THRESHOLDS:

 ZERO    =  1.00D-12  ONEINT  =  1.00D-16  TWOINT  =  1.00D-16  PREFAC  =  1.00D-14  LOCALI  =  1.00D-09  EORDER  =  1.00D-04
 ENERGY  =  1.00D-10  ETEST   =  0.00D+00  EDENS   =  0.00D+00  THRDEDEF=  1.00D-06  GRADIENT=  1.00D-02  STEP    =  1.00D-03
 ORBITAL =  1.00D-10  CIVEC   =  1.00D-05  COEFF   =  1.00D-04  PRINTCI =  5.00D-02  PUNCHCI =  9.90D+01  OPTGRAD =  1.00D-06
 OPTENERG=  1.00D-06  OPTSTEP =  3.00D-04  THRGRAD =  1.00D-10  COMPRESS=  1.00D-13  VARMIN  =  1.00D-07  VARMAX  =  1.00D-03
 THRDOUB =  0.00D+00  THRDIV  =  1.00D-05  THRRED  =  1.00D-07  THRPSP  =  1.00D+00  THRDC   =  1.00D-10  THRCS   =  1.00D-10
 THRNRM  =  1.00D-08  THREQ   =  0.00D+00  THRDE   =  1.00D+00  THRREF  =  1.00D-05  SPARFAC =  1.00D+00  THRDLP  =  1.00D-07
 THRDIA  =  1.00D-10  THRDLS  =  1.00D-07  THRGPS  =  0.00D+00  THRKEX  =  0.00D+00  THRDIS  =  2.00D-01  THRVAR  =  1.00D-10
 THRLOC  =  1.00D-06  THRGAP  =  1.00D-06  THRLOCT = -1.00D+00  THRGAPT = -1.00D+00  THRORB  =  1.00D-06  THRMLTP =  0.00D+00
 THRCPQCI=  1.00D-10  KEXTA   =  0.00D+00  THRCOARS=  0.00D+00  SYMTOL  =  1.00D-06  GRADTOL =  1.00D-06  THROVL  =  1.00D-08
 THRORTH =  1.00D-08  GRID    =  1.00D-06  GRIDMAX =  1.00D-03  DTMAX   =  0.00D+00

 SETTING GEOMTYP        =    XYZ
 ZUNIT=BOHR
 

 Variable memory set to 1000000000 words,  buffer space   230000 words

 SETTING BASIS          =    CC-PVTZ


 Recomputing integrals since basis changed


 Using spherical harmonics

 Library entry C      S cc-pVTZ              selected for orbital group  1
 Library entry C      P cc-pVTZ              selected for orbital group  1
 Library entry C      D cc-pVTZ              selected for orbital group  1
 Library entry C      F cc-pVTZ              selected for orbital group  1
 Library entry O      S cc-pVTZ              selected for orbital group  2
 Library entry O      P cc-pVTZ              selected for orbital group  2
 Library entry O      D cc-pVTZ              selected for orbital group  2
 Library entry O      F cc-pVTZ              selected for orbital group  2
 Library entry H      S cc-pVTZ              selected for orbital group  3
 Library entry H      P cc-pVTZ              selected for orbital group  3
 Library entry H      D cc-pVTZ              selected for orbital group  3

1PROGRAM * SEWARD (Integral evaluation for generally contracted gaussian basis sets)     Author: Roland Lindh, 1990

 Geometry written to block  1 of record 700


 Point group  C1  



 ATOMIC COORDINATES

 NR  ATOM    CHARGE       X              Y              Z

   1  C       6.00   -3.098083111    1.585051050    0.021546150
   2  C       6.00   -0.862163469   -0.070013306   -0.651275320
   3  C       6.00   -1.117111437   -2.774820295    0.246275033
   4  O       8.00    1.307362088    1.099984870    0.584667310
   5  O       8.00    3.449058751    0.121178790   -0.250702102
   6  H       1.00   -4.792594324    0.836882696   -0.884610781
   7  H       1.00   -2.805888955    3.519635306   -0.624855634
   8  H       1.00   -3.402709580    1.601777051    2.061962806
   9  H       1.00   -0.469103806   -0.005911763   -2.674900337
  10  H       1.00   -2.695826576   -3.681383754   -0.724429233
  11  H       1.00   -1.472258782   -2.827770884    2.278617039
  12  H       1.00    0.605763720   -3.823967091   -0.166331356

 Bond lengths in Bohr (Angstrom)

 1-2  2.862038330  1-6  2.062097117  1-7  2.060540933  1-8  2.063098925  2-3  2.861219312
     ( 1.514525455)     ( 1.091214797)     ( 1.090391300)     ( 1.091744931)     ( 1.514092050)

  2- 4  2.757406583   2- 9  2.062441057   3-10  2.063120347   3-11  2.063818652   3-12  2.058944350
       ( 1.459156720)       ( 1.091396802)       ( 1.091756267)       ( 1.092125794)       ( 1.089546425)

 4-5  2.498553180
     ( 1.322177398)

 Bond angles

  1-2-3  113.78543652   1-2-4  105.30345922   1-2-9  111.19691607   2-1-6  109.19935018

  2- 1- 7  111.00213961   2- 1- 8  110.64282770   2- 3-10  109.63224669   2- 3-11  110.39548025

  2- 3-12  110.13760320   2- 4- 5  110.99830738   3- 2- 4  109.30620565   3- 2- 9  110.74161011

  4-2-9  106.06065451   6-1-7  108.62148638   6-1-8  108.43392012   7-1-8  108.87971383

 10- 3-11  108.68555907  10- 3-12  108.79082196  11- 3-12  109.16330840

 NUCLEAR CHARGE:                   41
 NUMBER OF PRIMITIVE AOS:         354
 NUMBER OF SYMMETRY AOS:          322
 NUMBER OF CONTRACTIONS:          248   ( 248A   )
 NUMBER OF CORE ORBITALS:           5   (   5A   )
 NUMBER OF VALENCE ORBITALS:       27   (  27A   )


 NUCLEAR REPULSION ENERGY  186.85369417


 Eigenvalues of metric

         1 0.803E-03 0.954E-03 0.110E-02 0.124E-02 0.136E-02 0.150E-02 0.160E-02 0.164E-02


 Contracted 2-electron integrals neglected if value below      1.0D-16
 AO integral compression algorithm  1   Integral accuracy      1.0D-16

     3375.104 MB (compressed) written to integral file ( 82.1%)

     Node minimum: 1088.160 MB, node maximum: 1145.045 MB


 NUMBER OF SORTED TWO-ELECTRON INTEGRALS:  158903334.     BUFFER LENGTH:  32768
 NUMBER OF SEGMENTS:  10  SEGMENT LENGTH:   15997437      RECORD LENGTH: 524288

 Memory used in sort:      16.55 MW

 SORT1 READ   513551057. AND WROTE   152670243. INTEGRALS IN    442 RECORDS. CPU TIME:     5.94 SEC, REAL TIME:     6.92 SEC
 SORT2 READ   459500656. AND WROTE   476679126. INTEGRALS IN  12453 RECORDS. CPU TIME:     1.35 SEC, REAL TIME:     2.51 SEC

 Node minimum:   158882750.  Node maximum:   158903334. integrals

 OPERATOR DM      FOR CENTER  0  COORDINATES:    0.000000    0.000000    0.000000


 **********************************************************************************************************************************
 DATASETS  * FILE   NREC   LENGTH (MB)   RECORD NAMES
              1      18        5.04       500      610      700      900      950      970     1000      129      960     1100   
                                          VAR    BASINP    GEOM    SYMINP    ZMAT    AOBASIS   BASIS     P2S    ABASIS      S 
                                         1400     1410     1200     1210     1080     1600     1650     1700   
                                           T        V       H0       H01     AOSYM     SMH    MOLCAS    OPER   

 PROGRAMS   *        TOTAL       INT
 CPU TIMES  *        12.98     12.91
 REAL TIME  *        15.79 SEC
 DISK USED  *         8.85 GB      
 GA USED    *         0.01 MB       (max)       0.00 MB       (current)
 **********************************************************************************************************************************

1PROGRAM * RHF-SCF (OPEN SHELL)       Authors: W. Meyer, H.-J. Werner


 NUMBER OF ELECTRONS:      21+   20-    SPACE SYMMETRY=1    SPIN SYMMETRY: Doublet 
 CONVERGENCE THRESHOLDS:    1.00E-10 (Density)    1.00E-11 (Energy)
 MAX. NUMBER OF ITERATIONS:      200
 INTERPOLATION TYPE:            DIIS
 INTERPOLATION STEPS:              2 (START)      1 (STEP)
 LEVEL SHIFTS:                 -0.30 (CLOSED)  0.00 (OPEN) 



 Orbital guess generated from atomic densities. Full valence occupancy:   32

 Molecular orbital dump at record        2100.2

 ITERATION    DDIFF          GRAD             ENERGY        2-EL.EN.            DIPOLE MOMENTS         DIIS
    1      0.000D+00      0.000D+00      -267.26126753    560.250769   -1.77517   -0.07066   -0.10149    0
    2      0.000D+00      0.326D-02      -267.33500204    563.077621   -1.01139   -0.42708   -0.35628    1
    3      0.471D-02      0.229D-02      -267.36140185    562.030319   -1.18440   -0.24056   -0.21578    2
    4      0.211D-02      0.546D-03      -267.36963954    562.220484   -0.97185   -0.31286   -0.29597    3
    5      0.927D-03      0.484D-03      -267.37385780    562.261817   -0.91616   -0.31489   -0.29995    4
    6      0.583D-03      0.272D-03      -267.37578196    562.228684   -0.87451   -0.30821   -0.29780    5
    7      0.486D-03      0.133D-03      -267.37611866    562.214396   -0.88444   -0.29682   -0.28984    6
    8      0.258D-03      0.358D-04      -267.37614077    562.211613   -0.88411   -0.29347   -0.28831    7
    9      0.854D-04      0.190D-04      -267.37615187    562.211857   -0.88663   -0.29403   -0.28838    8
   10      0.451D-04      0.824D-05      -267.37615370    562.211761   -0.88781   -0.29341   -0.28809    9
   11      0.200D-04      0.324D-05      -267.37615395    562.211702   -0.88844   -0.29324   -0.28792    9
   12      0.788D-05      0.148D-05      -267.37615402    562.211930   -0.88859   -0.29334   -0.28797    9
   13      0.373D-05      0.529D-06      -267.37615402    562.211984   -0.88860   -0.29340   -0.28799    9
   14      0.149D-05      0.299D-06      -267.37615403    562.211982   -0.88859   -0.29341   -0.28800    9
   15      0.814D-06      0.145D-06      -267.37615403    562.211989   -0.88859   -0.29342   -0.28800    9
   16      0.409D-06      0.722D-07      -267.37615403    562.211992   -0.88858   -0.29342   -0.28800    9
   17      0.167D-06      0.323D-07      -267.37615403    562.211986   -0.88858   -0.29342   -0.28800    9
   18      0.101D-06      0.176D-07      -267.37615403    562.211984   -0.88858   -0.29342   -0.28800    9
   19      0.516D-07      0.819D-08      -267.37615403    562.211986   -0.88858   -0.29342   -0.28800    9
   20      0.281D-07      0.444D-08      -267.37615403    562.211985   -0.88858   -0.29342   -0.28800    9
   21      0.189D-07      0.361D-08      -267.37615403    562.211985   -0.88858   -0.29342   -0.28800    9
   22      0.187D-07      0.309D-08      -267.37615403    562.211985   -0.88858   -0.29342   -0.28800    9
   23      0.257D-07      0.244D-08      -267.37615403    562.211986   -0.88858   -0.29342   -0.28800    9
   24      0.355D-07      0.178D-08      -267.37615403    562.211986   -0.88858   -0.29342   -0.28800    9
   25      0.358D-07      0.951D-09      -267.37615403    562.211986   -0.88858   -0.29342   -0.28800    9
   26      0.212D-07      0.395D-09      -267.37615403    562.211986   -0.88858   -0.29342   -0.28800    9
   27      0.438D-08      0.189D-09      -267.37615403    562.211986   -0.88858   -0.29342   -0.28800    9
   28      0.140D-08      0.877D-10      -267.37615403    562.211986   -0.88858   -0.29342   -0.28800    9
   29      0.601D-09      0.428D-10      -267.37615403    562.211986   -0.88858   -0.29342   -0.28800    9
   30      0.117D-09      0.201D-10      -267.37615403    562.211986   -0.88858   -0.29342   -0.28800    9
   31      0.581D-10      0.150D-10      -267.37615403    562.211986   -0.88858   -0.29342   -0.28800    0

 Final alpha occupancy:  21
 Final beta  occupancy:  20

 !RHF STATE 1.1 Energy               -267.376154025942
 Nuclear energy                       186.85369417
 One-electron energy                 -735.33584115
 Two-electron energy                  281.10599296
 Virial quotient                       -1.00109466
 !RHF STATE 1.1 Dipole moment          -0.88857790    -0.29341777    -0.28800055
 Dipole moment /Debye                  -2.25839181    -0.74574474    -0.73197643

 Orbital energies:

         1.1          2.1          3.1          4.1          5.1          6.1          7.1          8.1          9.1         10.1
    -20.649072   -20.640473   -11.296559   -11.228775   -11.224955    -1.524832    -1.172776    -1.034905    -0.953077    -0.819432

        11.1         12.1         13.1         14.1         15.1         16.1         17.1         18.1         19.1         20.1
     -0.696565    -0.668858    -0.653328    -0.595537    -0.562741    -0.558009    -0.544054    -0.501122    -0.489428    -0.465862

        21.1         22.1         23.1
     -0.563133     0.137663     0.174791


 **********************************************************************************************************************************
 DATASETS  * FILE   NREC   LENGTH (MB)   RECORD NAMES
              1      18        5.04       500      610      700      900      950      970     1000      129      960     1100   
                                          VAR    BASINP    GEOM    SYMINP    ZMAT    AOBASIS   BASIS     P2S    ABASIS      S 
                                         1400     1410     1200     1210     1080     1600     1650     1700   
                                           T        V       H0       H01     AOSYM     SMH    MOLCAS    OPER   

              2       3        2.21       700     1000     2100   
                                         GEOM     BASIS     RHF  

 PROGRAMS   *        TOTAL       RHF       INT
 CPU TIMES  *        47.57     34.59     12.91
 REAL TIME  *        53.52 SEC
 DISK USED  *         8.89 GB      
 SF USED    *         0.25 MB      
 GA USED    *         0.01 MB       (max)       0.00 MB       (current)
 **********************************************************************************************************************************


1PROGRAM * CCSD (Unrestricted open-shell coupled cluster)     Authors: C. Hampel, H.-J. Werner, 1991, M. Deegan, P.J. Knowles, 1992


 Convergence thresholds:  THRVAR = 1.00D-08  THRDEN = 1.00D-10

 CCSD(T)     terms to be evaluated (factor= 1.000)


 Number of core orbitals:           5 (   5 )
 Number of closed-shell orbitals:  15 (  15 )
 Number of active  orbitals:        1 (   1 )
 Number of external orbitals:     227 ( 227 )

 Memory could be reduced to 332.02 Mwords without degradation in triples

 Number of N-1 electron functions:              31
 Number of N-2 electron functions:             465
 Number of singly external CSFs:              7068
 Number of doubly external CSFs:          18353430
 Total number of CSFs:                    18360498

 Molecular orbitals read from record     2100.2  Type=RHF/CANONICAL (state 1.1)

 Integral transformation finished. Total CPU:  26.68 sec, npass=  1  Memory used: 145.25 MW

 Starting RMP2 calculation

 ITER.      SQ.NORM     CORR.ENERGY   TOTAL ENERGY   ENERGY CHANGE        DEN1      VAR(S)    VAR(P)  DIIS     TIME
   1      1.26503457    -0.96742391  -268.34357794    -0.96742391    -0.00323014  0.26D-04  0.11D-02  1  1    31.17
   2      1.26781134    -0.97090655  -268.34706057    -0.00348264    -0.00000665  0.10D-05  0.23D-05  2  2    34.21
   3      1.26789112    -0.97095936  -268.34711338    -0.00005281    -0.00000008  0.54D-07  0.11D-07  3  3    37.36
   4      1.26789284    -0.97095917  -268.34711320     0.00000018    -0.00000000  0.16D-08  0.12D-09  4  4    40.72
   5      1.26789310    -0.97095926  -268.34711328    -0.00000009    -0.00000000  0.19D-10  0.46D-11  5  5    44.24
   6      1.26789316    -0.97095929  -268.34711332    -0.00000003    -0.00000000  0.50D-13  0.56D-13  6  6    47.75
   7      1.26789316    -0.97095929  -268.34711332     0.00000000    -0.00000000  0.15D-14  0.86D-15  6  1    51.50
   8      1.26789316    -0.97095929  -268.34711332     0.00000000    -0.00000000  0.16D-16  0.80D-17  6  2    55.26
   9      1.26789316    -0.97095929  -268.34711332    -0.00000000    -0.00000000  0.32D-18  0.10D-18  6  3    59.02

 Norm of t1 vector:      0.04589937      S-energy:    -0.00446840      T1 diagnostic:  0.00074484
 Norm of t2 vector:      0.51554476      P-energy:    -0.96649089
                                         Alpha-Beta:  -0.73688301
                                         Alpha-Alpha: -0.11899496
                                         Beta-Beta:   -0.11061292

 Spin contamination <S**2-Sz**2-Sz>     0.00145636
  Reference energy                   -267.376154025940
  RHF-RMP2 correlation energy          -0.970959290197
 !RHF-RMP2 energy                    -268.347113316137

 Starting UCCSD calculation

 ITER.      SQ.NORM     CORR.ENERGY   TOTAL ENERGY   ENERGY CHANGE        DEN1      VAR(S)    VAR(P)  DIIS     TIME
   1      1.27952207    -0.97915006  -268.35530409    -0.97915006    -0.02927287  0.65D-02  0.54D-02  1  1   161.36
   2      1.30586095    -1.00573071  -268.38188474    -0.02658065    -0.00362366  0.61D-03  0.96D-03  2  2   262.73
   3      1.32245255    -1.01253512  -268.38868915    -0.00680441    -0.00090978  0.75D-03  0.76D-04  3  3   364.34
   4      1.33365151    -1.01518496  -268.39133899    -0.00264984    -0.00038462  0.31D-03  0.33D-04  4  4   466.18
   5      1.34870184    -1.01717905  -268.39333307    -0.00199409    -0.00011781  0.10D-03  0.90D-05  5  5   569.32
   6      1.36021195    -1.01819991  -268.39435394    -0.00102087    -0.00001812  0.93D-05  0.32D-05  6  6   672.42
   7      1.36390831    -1.01844080  -268.39459482    -0.00024088    -0.00000315  0.16D-05  0.61D-06  6  1   768.21
   8      1.36451111    -1.01848293  -268.39463696    -0.00004214    -0.00000067  0.27D-06  0.15D-06  6  2   870.54
   9      1.36483072    -1.01850133  -268.39465536    -0.00001840    -0.00000015  0.66D-07  0.32D-07  6  4   972.39
  10      1.36481710    -1.01850004  -268.39465407     0.00000129    -0.00000002  0.11D-07  0.43D-08  6  3  1074.18
  11      1.36487922    -1.01850510  -268.39465912    -0.00000505    -0.00000000  0.26D-08  0.94D-09  6  5  1175.91
  12      1.36487185    -1.01850263  -268.39465665     0.00000247    -0.00000000  0.12D-08  0.22D-09  6  6  1277.75
  13      1.36486756    -1.01850148  -268.39465551     0.00000115    -0.00000000  0.77D-09  0.61D-10  6  1  1379.65
  14      1.36485468    -1.01849997  -268.39465400     0.00000150    -0.00000000  0.53D-09  0.27D-10  6  2  1469.43
  15      1.36484828    -1.01849921  -268.39465323     0.00000077    -0.00000000  0.43D-09  0.21D-10  6  3  1544.92
  16      1.36484506    -1.01849904  -268.39465307     0.00000017    -0.00000000  0.31D-09  0.17D-10  6  4  1621.12
  17      1.36484479    -1.01849909  -268.39465311    -0.00000005    -0.00000000  0.14D-09  0.17D-10  6  5  1697.17
  18      1.36484808    -1.01849929  -268.39465332    -0.00000021    -0.00000000  0.29D-10  0.62D-11  6  6  1773.43
  19      1.36485145    -1.01849963  -268.39465366    -0.00000034    -0.00000000  0.25D-11  0.17D-11  6  2  1849.14
  20      1.36485090    -1.01849950  -268.39465353     0.00000013    -0.00000000  0.60D-12  0.17D-12  6  1  1924.86
  21      1.36485119    -1.01849954  -268.39465357    -0.00000004    -0.00000000  0.21D-12  0.61D-13  6  4  2000.29
  22      1.36485114    -1.01849954  -268.39465356     0.00000001    -0.00000000  0.60D-13  0.14D-13  6  3  2076.31
  23      1.36485117    -1.01849954  -268.39465357    -0.00000001    -0.00000000  0.17D-13  0.57D-14  6  6  2152.21
  24      1.36485117    -1.01849954  -268.39465357     0.00000000    -0.00000000  0.40D-14  0.10D-14  6  5  2227.95
  25      1.36485117    -1.01849954  -268.39465357     0.00000000    -0.00000000  0.87D-15  0.28D-15  6  1  2303.72
  26      1.36485119    -1.01849954  -268.39465357    -0.00000000    -0.00000000  0.14D-15  0.54D-16  6  2  2379.37
  27      1.36485119    -1.01849954  -268.39465357    -0.00000000    -0.00000000  0.44D-16  0.16D-16  6  3  2455.30
  28      1.36485119    -1.01849954  -268.39465357    -0.00000000    -0.00000000  0.99D-17  0.47D-17  6  5  2543.87
  29      1.36485119    -1.01849954  -268.39465357    -0.00000000    -0.00000000  0.16D-17  0.38D-18  6  4  2634.52
  30      1.36485119    -1.01849954  -268.39465357     0.00000000    -0.00000000  0.59D-18  0.15D-18  6  6  2726.37

 Norm of t1 vector:      0.23098699      S-energy:    -0.00501516      T1 diagnostic:  0.02846200
                                                                       D1 diagnostic:  0.14593894
 Norm of t2 vector:      0.55811845      P-energy:    -1.01348438
                                         Alpha-Beta:  -0.80112890
                                         Alpha-Alpha: -0.10871434
                                         Beta-Beta:   -0.10364114

 Singles amplitudes (print threshold =  0.500E-01):

         I         SYM. A    A   T(IA) [Beta-Beta]

         8         1         1     -0.09631955
         9         1         1      0.09845589
        11         1         1     -0.05433956
        12         1         1     -0.07385836
        14         1         1     -0.11205170

 Spin contamination <S**2-Sz**2-Sz>     0.00176166

 Memory could be reduced to 360.52 Mwords without degradation in triples
 

 RESULTS
 =======

  Reference energy                   -267.376154025940
  UCCSD singles energy                 -0.005015163557
  UCCSD pair energy                    -1.013484377972
  UCCSD correlation energy             -1.018499541529
  Triples (T) contribution             -0.040769503639
  Total correlation energy             -1.059269045168
 
  RHF-UCCSD energy                   -268.394653567469
  RHF-UCCSD[T] energy                -268.438730493589
  RHF-UCCSD-T energy                 -268.434929388429
 !RHF-UCCSD(T) energy                -268.435423071108

 Program statistics:

 Available memory in ccsd:               999997692
 Min. memory needed in ccsd:              51505734
 Max. memory used in ccsd:                74803578
 Max. memory used in cckext:              59475747 (30 integral passes)
 Max. memory used in cckint:             145249478 ( 1 integral passes)



 **********************************************************************************************************************************
 DATASETS  * FILE   NREC   LENGTH (MB)   RECORD NAMES
              1      18        5.04       500      610      700      900      950      970     1000      129      960     1100   
                                          VAR    BASINP    GEOM    SYMINP    ZMAT    AOBASIS   BASIS     P2S    ABASIS      S 
                                         1400     1410     1200     1210     1080     1600     1650     1700   
                                           T        V       H0       H01     AOSYM     SMH    MOLCAS    OPER   

              2       3        2.21       700     1000     2100   
                                         GEOM     BASIS     RHF  

 PROGRAMS   *        TOTAL  UCCSD(T)       RHF       INT
 CPU TIMES  *      4179.00   4131.43     34.59     12.91
 REAL TIME  *      4267.37 SEC
 DISK USED  *        15.87 GB      
 SF USED    *         6.57 GB      
 GA USED    *         0.01 MB       (max)       0.00 MB       (current)
 **********************************************************************************************************************************

        UCCSD(T)        RHF-SCF 
   -268.43542307   -267.37615403
 **********************************************************************************************************************************
 Variable memory released
