 --invoking executable xjoda


   *************************************************************************
         <<<     CCCCCC     CCCCCC   |||     CCCCCC     CCCCCC   >>>
       <<<      CCC        CCC       |||    CCC        CCC         >>>
      <<<      CCC        CCC        |||   CCC        CCC            >>>
    <<<        CCC        CCC        |||   CCC        CCC              >>>
      <<<      CCC        CCC        |||   CCC        CCC            >>>
       <<<      CCC        CCC       |||    CCC        CCC         >>>
         <<<     CCCCCC     CCCCCC   |||     CCCCCC     CCCCCC   >>>
   *************************************************************************

     ****************************************************************
     * CFOUR Coupled-Cluster techniques for Computational Chemistry *
     ****************************************************************
 

   Department of Chemistry                Institut fuer Physikalische Chemie
   University of Texas at Austin          Universitaet Mainz
   Austin, TX  78712, USA                 D-55099 Mainz, Germany
 
                       Version 1.0
 
                     n022                                              
                     Wed Jul  1 10:50:31 EDT 2020                      
                     integer*8 version is running
 
    -------------------------------------------------------------------
                    Input from ZMAT file
    -------------------------------------------------------------------
 
 MIN4                                                                           
 H                                                                              
 O 1 R                                                                          
 H 2 R 1 A                                                                      
                                                                                
 R    =        1.825003884611463                                                
 A    =      101.941289586770836                                                
                                                                                
 *CFOUR(REF=RHF                                                                 
        CALC=CCSD(T)                                                            
        VIB=FINDIF                                                              
        BASIS=cc-pVDZ                                                           
        ORB=SEMICANONICAL                                                       
        UNITS=BOHR                                                              
        MEMORY=7                                                                
        MEM_UNIT=GB                                                             
        SCF_CONV=9                                                              
        CC_CONV=6                                                               
        CHARGE=0                                                                
        MULT=1)                                                                 
                                                                                
                                                                                
 
    -------------------------------------------------------------------
                    CFOUR Control Parameters 
    -------------------------------------------------------------------
        External           Internal           Value            Units
          Name               Name
    -------------------------------------------------------------------
       PRINT                IPRNT               0               ***   
       CALCLEVEL            ICLLVL           CCSD(T)    [ 22]   ***   
       DERIV_LEV            IDRLVL            FIRST     [  1]   ***   
       CC_CONV              ICCCNV          10D-  6             ***   
       SCF_CONV             ISCFCV          10D-  9             ***   
       XFORM_TOL            IXFTOL          10D- 11             ***   
       CC_MAXCYC            ICCCYC             50              cycles 
       LINDEP_TOL           ILINDP              8               ***   
       RDO                  IRDOFM              ON      [  1]   ***   
  
       SCF_EXTRAPO          IRPP                ON      [  1]   ***   
       REFERENCE            IREFNC             RHF      [  0]   ***   
       CC_EXPORDER          ICCEOR              5               ***   
       TAMP_SUM             IEVERY              5               ***   
       NTOP_TAMP            ITOPT2             15               ***   
       CCORBOPT             ICCORB             OFF      [  0] x 0.01  
       SCF_MAXCYC           ISCFCY            150              cycles 
       OCCUPATION           IOCCU   ESTIMATED BY SCF 
       PROPS                IPROPS             OFF      [  0]   ***   
       RELAX_DENS           IRDENS              ON      [  1]   ***   
  
       SCF_EXPORDE          IRPPOR              6               ***   
       CC_EXTRAPOL          ICCEXT             DIIS     [  1]   ***   
       BRUECKNER            IBRKNR             OFF      [  0]   ***   
       XFIELD               IXEFLD              0             x 10-6  
       YFIELD               IYEFLD              0             x 10-6  
       ZFIELD               IZEFLD              0             x 10-6  
       SAVE_INTS            ISVINT             OFF      [  0]   ***   
       DROPMO               IDRPMO      NONE         
       CHARGE               ICHRGE              0               ***   
       MULTIPLICTY          IMULTP              1               ***   
  
       CPHF_CONVER          ICPHFT          10D- 16             ***   
       CPHF_MAXCYC          ICPHFC             64              cycles 
       INCORE               INCORE             OFF      [  0]   ***   
       MEMORY_SIZE          IMEMSZ         875000000           words  
       FILE_RECSIZ          IFLREC              4096           words  
       NON-HF               INONHF             OFF      [  0]   ***   
       ORBITALS             IORBTP         SEMICANONICAL[  1]   ***   
  
       SCF_EXPSTAR          IRPPLS              8               ***   
       LOCK_ORBOCC          ILOCOC             OFF      [  0]   ***   
       HBAR                 IHBAR              OFF      [  0]   ***   
       CACHE_RECS           ICHREC             10               ***   
       GUESS                IGUESS            MOREAD    [  0]   ***   
       JODA_PRINT           IJPRNT              0               ***   
       GEO_METHOD           INR            SINGLE_POINT [  5]   ***   
       GEO_CONV             ICONTL              5              H/bohr 
       EIGENVECTOR          IVEC                1               ***   
  
       NEGEVAL              IDIE             ABORT      [  0]   ***   
       CURVILINEAR          ICURVY            OFF       [  0]   ***   
       SCALE_ON             ISTCRT              0               ***   
       GEO_MAXSTEP          IMXSTP            300            millibohr
       VIBRATION            IVIB             FINDIF     [  3]   ***   
       EVAL_HESS            IRECAL              0            # of cyc.
       INTEGRALS            INTTYP             VMOL     [  1]   ***   
       FD_STEPSIZE          IDISFD              5            10-4 bohr
       POINTS               IGRDFD              0               ***   
       CONTRACTION          ICNTYP          GENERAL     [  1]   ***   
  
       SYMMETRY             ISYM             ON         [  0]   ***   
       BASIS                IBASIS         PVDZ         [ 13]   ***   
       SPHERICAL            IDFGHI             ON       [  1]   ***   
       RESET_FLAGS          IRESET             OFF      [  0]   ***   
       PERT_ORB             IPTORB         CANONICAL    [  1]   ***   
       GENBAS_1             IGNBS1              0               ***   
       GENBAS_2             IGNBS2              0               ***   
       GENBAS_3             IGNBS3              0               ***   
       COORDINATES          ICOORD         INTERNAL     [  0]   ***   
       SYM_CHECK            ISYMCK         OVERRIDE     [  1]   ***   
  
       SCF_PRINT            ISCFPR              0               ***   
       ECP                  IECP           OFF          [  0]   ***   
       RESTART_CC           ICCRES         OFF          [  0]   ***   
       TRANS_INV            ITRAIN         USE          [  0]   ***   
       HFSTABILITY          ISTABL         OFF          [  0]   ***   
       ROT_EVEC             ROTVEC              0               ***   
       BRUCK_CONV           IBRTOL          10D-  4             ***   
       UNITS                IUNITS         BOHR         [  1]   ***   
       FD_USEGROUP          IFDGRP         FULL         [  0]   ***   
  
       FD_PROJECT           IFDPRJ         ON           [  0]   ***   
       FD_CALTYPE           IFDCAL         GRADONLY     [  0]   ***   
       VTRAN                IVTRAN         FULL/PARTIAL [  0]   ***   
       HF2_FILE             IHF2Fl         USE          [  1]   ***   
       SUBGROUP             ISUBGP         DEFAULT      [  0]   ***   
       SUBGRPAXIS           ISBXYZ         X            [  0]   ***   
       EXCITE               IEXCIT         NONE         [  0]   ***   
       LINEQ_CONV           IZTACN          10D-  7           cycles  
  
       TREAT_PERT           ITREAT         SIMULTANEOUS [  0]   ***   
       ESTATE_PROP          IEXPRP         OFF          [  0]   ***   
       GEO_MAXCYC           IOPTCY             50               ***   
       ABCDTYPE             IABCDT         STANDARD     [  0]   ***   
       AO_LADDERS           IAOLAD         SINGLEPASS   [  1]   ***   
       FOCK                 IFOCK          AO           [  1]   ***   
       ESTATE_MAXC          IEXMXC             20               ***   
       ESTATE_CONV          IEXTOL          10D-  5             ***   
       DIRECT               IDIRCT         OFF          [  0]   ***   
  
       GAMMA_ABCD           IGABCD         STORE        [  0]   ***   
       LINEQ_TYPE           ILTYPE         DIIS         [  1]   ***   
       LINEQ_MAXCY          ILMAXC             50               ***   
       TRANGRAD             IRESRM         OFF          [  0]   ***   
       PSI                  IPSI           OFF          [  0]   ***   
       GAMMA_ABCI           IGABCI         STORE        [  0]   ***   
       ESTATE_DIAG          IEXDIG         ITERATIVE    [  0]   ***   
       FC_FIELD             IFINFC              0             x 10-6  
       SD_FIELD             IFINSD              0             x 10-6  
       DIFF_TYPE            IDIFTY         RELAXED      [  0]   ***   
  
       LINEQ_EXPOR          ILMAXD              5               ***   
       FINITE_PERT          IFIPER              0             x 10-6  
       ANHARMONIC           IANHAR         OFF          [  0]   ***   
       CC_PROGRAM           ICCPRO         VCC          [  0]   ***   
       OPEN-SHELL           IOPEN          SPIN-ORBITAL [  0]   ***   
       UIJ_THRESHO          IUIJTH             25               ***   
       SCF_DAMPING          IDAMP               0             x 10-3  
       PROP_INTEGR          IINTYP         INTERNAL     [  0]   ***   
       ANH_SYMMETR          IANHSM         ABELIAN      [  0]   ***   
       ANH_ALGORIT          IANALG         STANDARD     [  0]   ***   
  
       EOM_NONIT            EOMNON         OFF          [  0]   ***   
       VIB_ALGORIT          IGEALG         STANDARD     [  0]   ***   
       ANH_DERIVAT          IANDER         SECOND       [  1]   ***   
       SPINROTATIO          ISRCON         OFF          [  0]   ***   
       CIS_CONV             ICISTL              5               ***   
       ANH_STEPSIZ          ICUBST             50000          x 10-6  
       SPIN_FLIP            ISPFLP         OFF          [  0]   ***   
       GRID                 IGRID          OFF          [  0]   ***   
  
       DBOC                 IDBOC          OFF          [  0]   ***   
       EOMFOLLOW            IEOMSR         ENERGY       [  0]   ***   
       T3_EXTRAPOL          IT3EXT         OFF          [  0]   ***   
       ESTATE_LOCK          IESLOC         OFF          [  0]   ***   
       UNOS                 IUNOS          OFF          [  0]   ***   
       FREQ_ALGORI          IVIALG         STANDARD     [  0]   ***   
       RELATIVIST           IRELAT         OFF          [  0]   ***   
       FROZEN_CORE          IFROCO         OFF          [  0]   ***   
       EXCITATION           IEXCIT              0               ***   
       INPUT_MRCC           IMRCC          ON           [  1]   ***   
  
       GIAO                 IGIAO          OFF          [  1]   ***   
       EOM_NSING            IEOMSI          10D-  0             ***   
       EOM_NTRIP            IEOMTR          10D-  0             ***   
       EOM_NSTATES          IMRCCD         DAVIDSON     [  0]   ***   
       DIAG_MRCC            IEOMST          10D-  0             ***   
       NEWNORM              INEWNO         OFF          [  0]   ***   
       TESTSUITE            ITESTS         OFF          [  0]   ***   
       BUFFERSIZE           IBUFFS            600               ***   
       SPINORBIT            ISOCAL         OFF          [  0]   ***   
       DCT                  IDCT           OFF          [  0]   ***   
  
       PARALLEL             IPARAL         ON           [  1]   ***   
       PARA_PRINT           IPPRIN              0               ***   
       COMM_SIZE            IPSIZE            ***               ***   
       PARA_INT             IPINTS         ON           [  1]   ***   
       RAMAN_INT            IRAMIN         OFF          [  0]   ***   
       RAMAN_ORB            IRAMRE         UNRELAXED    [  0]   ***   
       BREIT                IBREIT         OFF          [  0]   ***   
       MEM_UNIT             IMEMU          GB           [  3]   ***   
       SPIN_ORBIT           ISPORB         OFF          [  0]   ***   
       GENBAS_4             IGNBS4              0               ***   
  
       SPIN_SCAL            ISCSMP         OFF          [  0]   ***   
       GRID_ALGO            IGALGO         SERIAL       [  0]   ***   
       VIBPHASE             ISETPH         STANDARD     [  0]   ***   
       SEQUENCE             ISEQUE         OFF          [  0]   ***   
       HESS_TYPE            IHESTP         SCF          [  0]   ***   
       CONTINUUM            ICONTU         NONE         [  0]   ***   
       SCF_NOSTOP           ISCFST         OFF          [  0]   ***   
       CONSTANT             ICONST         OLD          [  1]   ***   
  
       EOM_MRCC             IMRCCE         OLD          [  0]   ***   
       EOM_ORDER            IEXORD         ENERGY       [  0]   ***   
       GIMIC                IGIMIC         OFF          [  0]   ***   
    -------------------------------------------------------------------
   3 entries found in Z-matrix 
   Job Title : MIN4                                                                            
   There are  2 unique internal coordinates.
   Of these,  0 will be optimized.
   User supplied Z-matrix: 
--------------------------------------------------------------------------------
       SYMBOL    BOND      LENGTH    ANGLE     ANGLE     DIHED     ANGLE
                  TO      (ANGST)    WRT      (DEG)      WRT      (DEG)
--------------------------------------------------------------------------------
        H    
        O          1         R    
        H          2         R          1        A    
                  *Initial values for internal coordinates* 
                      Name             Value
                        R               1.8250038846
                        A             101.9412895868
--------------------------------------------------------------------------------
  1  H          1     1.00783
  2  O          8    15.99491
  3  H          1     1.00783
   Rotational constants (in cm-1): 
          9.3835291840            14.8595998499            25.4626898300
   Rotational constants (in MHz): 
     281311.1672885240        445479.6588001629        763352.3440853608
********************************************************************************
   The full molecular point group is C2v .
   The largest Abelian subgroup of the full molecular point group is C2v .
   The computational point group is C2v .
********************************************************************************
--------------------------------------------------------------------------------
   Analysis of internal coordinates specified by Z-matrix 
--------------------------------------------------------------------------------
   *The nuclear repulsion energy is    9.11979 a.u.
   *There are   2 degrees of freedom within the tot. symm. molecular subspace.
   *Z-matrix requests optimization of   0 coordinates.
   *The optimization is constrained.
   *The following   2 parameters can have non-zero 
    derivatives within the totally symmetric subspace:
             A    [ 3]  R    [ 1]
   *The following   0 parameters are to be optimized:

   *The following coordinates must be varied in an  unconstrained optimization.
             A    [ 3]  R    [ 1]
--------------------------------------------------------------------------------
 ----------------------------------------------------------------
 Z-matrix   Atomic            Coordinates (in bohr)
  Symbol    Number           X              Y              Z
 ----------------------------------------------------------------
     H         1         0.00000000    -1.41770578     1.02062176
     O         8         0.00000000     0.00000000    -0.12861690
     H         1         0.00000000     1.41770578     1.02062176
 ----------------------------------------------------------------
   Interatomic distance matrix (Angstroms) 
 
                 H             O             H    
                [ 1]        [ 2]        [ 3]
  H    [ 1]     0.00000
  O    [ 2]     0.96575     0.00000
  H    [ 3]     1.50043     0.96575     0.00000
   Rotational constants (in cm-1): 
          9.3835291840            25.4626898300            14.8595998499
   Rotational constants (in MHz): 
     281311.1672885243        763352.3440853611        445479.6588001631
  There are   24 basis functions.
 @GEOPT-W, Archive file not created for single-point calculation.
                0.06 seconds walltime passed
 --executable xjoda finished with status            0
 --invoking executable xsymcor
  @GETMEM-I,   Allocated    6675 MB of main memory.
  @CHRTABLE-I, There are   4 unique irreducible representations.
  @CHRTABLE-I, There are   4 unique irreducible representations.
  @VIBINF-I, Symmetries species for nuclear motions:
  Irrep     Label    Total    Vibrations     Translations     Rotations
    1          A1     3.00       2.00            1.00            0.00
    2          A2     1.00      -0.00            0.00            1.00
    3          B1     2.00       0.00            1.00            1.00
    4          B2     3.00       1.00            1.00            1.00
   Total number of calculations required      :     5
   Number of single-point energy calculations :     0
   Number of energy gradient     calculations :     5
  there are                      1  more gradients 
  @CHECKOUT-I, Total execution time :       0.0000 seconds.
 --executable xsymcor finished with status            0
 --invoking executable xjoda
  1  H          1     1.00783
  2  O          8    15.99491
  3  H          1     1.00783
   Rotational constants (in cm-1): 
          9.3864737001            14.8669852714            25.4626898300
   Rotational constants (in MHz): 
     281399.4416737635        445701.0681980075        763352.3440853615
********************************************************************************
   The full molecular point group is C2v .
   The largest Abelian subgroup of the full molecular point group is C2v .
   The computational point group is C2v .
********************************************************************************
  There are   24 basis functions.
 @GEOPT-W, Archive file not created for single-point calculation.
                0.06 seconds walltime passed
 --executable xjoda finished with status            0
 --invoking executable xvmol
 Serial version of molecule started
 
    -------------------------------------------------------------------
                    Input from MOL file
    -------------------------------------------------------------------
 INTGRL        1    0    1    0    0    0    0    0    0                        
          *** CFOUR Program System (Release V0.1) ***                           
 MIN4                                                                           
     2    2 X  Y       0.10E-08              0    0                             
    9999.00      3.00                                                           
           1.00000000    1    2    1    1                                       
 H #1   0.000000000000000  -1.417353599802177   1.020621763958115               
     4    2                                                                     
    13.0100000000000       1.968500000000000E-002  0.000000000000000E+000       
    1.96200000000000       0.137977000000000       0.000000000000000E+000       
   0.444600000000000       0.478148000000000       0.000000000000000E+000       
   0.122000000000000       0.501240000000000        1.00000000000000            
     1    1                                                                     
   0.727000000000000        1.00000000000000                                    
           8.00000000    1    3    1    1    1                                  
 O #2  -0.000000000000000  -0.000000000000000  -0.128616899655544               
     9    3                                                                     
    11720.0000000000       7.100000000000000E-004 -1.600000000000000E-004       
   0.000000000000000E+000                                                       
    1759.00000000000       5.470000000000000E-003 -1.263000000000000E-003       
   0.000000000000000E+000                                                       
    400.800000000000       2.783700000000000E-002 -6.267000000000000E-003       
   0.000000000000000E+000                                                       
    113.700000000000       0.104800000000000      -2.571600000000000E-002       
   0.000000000000000E+000                                                       
    37.0300000000000       0.283062000000000      -7.092400000000000E-002       
   0.000000000000000E+000                                                       
    13.2700000000000       0.448719000000000      -0.165411000000000            
   0.000000000000000E+000                                                       
    5.02500000000000       0.270952000000000      -0.116955000000000            
   0.000000000000000E+000                                                       
    1.01300000000000       1.545800000000000E-002  0.557368000000000            
   0.000000000000000E+000                                                       
   0.302300000000000      -2.585000000000000E-003  0.572759000000000            
    1.00000000000000                                                            
     4    2                                                                     
    17.7000000000000       4.301800000000000E-002  0.000000000000000E+000       
    3.85400000000000       0.228913000000000       0.000000000000000E+000       
    1.04600000000000       0.508728000000000       0.000000000000000E+000       
   0.275300000000000       0.460531000000000        1.00000000000000            
     1    1                                                                     
    1.18500000000000        1.00000000000000                                    
 FINISH                                                                         
 
    -------------------------------------------------------------------
 
 One- and two-electron integrals over symmetry-adapted AOs are calculated.

  Spherical harmonics are used.
  
  Integrals less than  0.10E-13 are neglected.

  Nuclear repulsion energy :    9.1211891265 a.u.
  required memory for a1 array                5013204  words 
  required memory for a2 array                2046060  words 
 basis number:   1     5
 basis number:   8    15
  @GETMEM-I,   Allocated      69 MB of main memory.
  @MOLECU-I, One electron integrals required         0.00000 seconds.
  @TWOEL-I,       2350 integrals of symmetry type  I I I I
  @TWOEL-I,       4467 integrals of symmetry type  I J I J
  @TWOEL-I,       2860 integrals of symmetry type  I I J J
  @TWOEL-I,       1735 integrals of symmetry type  I J K L
  @TWOEL-I, Total number of 2-e integrals      11412.
  @MOLECU-I, Two electron integrals required         0.07000 seconds.
  @CHECKOUT-I, Total execution time :       0.0800 seconds.
                0.00 seconds walltime passed
 --executable xvmol finished with status            0
 --invoking executable xvmol2ja
  @GETMEM-I,   Allocated    6675 MB of main memory.
  @CHECKOUT-I, Total execution time :       0.0000 seconds.
                0.00 seconds walltime passed
 --executable xvmol2ja finished with status            0
 --invoking executable xvscf
 NSOSCF                     0
  There are   24 functions in the AO basis.

  There are 4 irreducible representations.

       Irrep        # of functions
         1                 11
         2                  4
         3                  7
         4                  2


  Parameters for SCF calculation: 
        SCF reference function:  RHF  
  Maximum number of iterations:  150
     Full symmetry point group: C2v 
     Computational point group: C2v 
        Initial density matrix: MOREAD                 
     SCF convergence tolerance: 10**(- 9)
  DIIS convergence acceleration:  ON
          Latest start for DIIS:   8
                     DIIS order:   6

  Memory information:      62156 words required.
  Fock matrices are constructed from AO integral file.
  @GETMEM-I,   Allocated       0 MB of main memory.
  Initialization and symmetry analysis required      0.000 seconds.

  @INITGES-I, Occupancies from core Hamiltonian:

          Alpha population by irrep:   3    1    1    0
           Beta population by irrep:   3    1    1    0


 total no. of electrons in initial guess :  0.000000000000000E+000
  --------------------------------------------------------------------
  Iteration         Total Energy            Largest Density Difference
  --------------------------------------------------------------------
       0             9.121189126524747              0.0000000000D+00
   current occupation vector 
     3  1  1  0
     3  1  1  0
       1           -68.877848959857147              0.9704818168D+01
   current occupation vector 
     3  1  1  0
     3  1  1  0
       2           -69.891365390058183              0.9390507206D+01
   current occupation vector 
     3  0  2  0
     3  0  2  0
       3           -73.263222905403012              0.7299765069D+01
   current occupation vector 
     3  1  1  0
     3  1  1  0
       4           -73.377150126053948              0.3774457775D+01
   current occupation vector 
     4  0  1  0
     4  0  1  0
       5           -74.651768701851154              0.3247013048D+01
   current occupation vector 
     3  1  1  0
     3  1  1  0
       6           -75.489552273659797              0.2620502095D+01
   current occupation vector 
     3  1  1  0
     3  1  1  0
       7           -75.834113589672228              0.1487199118D+01
   current occupation vector 
     3  1  1  0
     3  1  1  0
       8           -75.958695356912386              0.9835470942D+00
   current occupation vector 
     3  1  1  0
     3  1  1  0
       9           -76.026153069256111              0.3301642536D+00
   current occupation vector 
     3  1  1  0
     3  1  1  0
      10           -76.026164847139171              0.4715828040D-02
   current occupation vector 
     3  1  1  0
     3  1  1  0
      11           -76.026166309550831              0.2053743162D-02
   current occupation vector 
     3  1  1  0
     3  1  1  0
      12           -76.026166348819942              0.3508176520D-03
   current occupation vector 
     3  1  1  0
     3  1  1  0
      13           -76.026166349159894              0.3418357319D-04
   current occupation vector 
     3  1  1  0
     3  1  1  0
      14           -76.026166349170978              0.5162691832D-05
   current occupation vector 
     3  1  1  0
     3  1  1  0
      15           -76.026166349172001              0.1531982121D-05
   current occupation vector 
     3  1  1  0
     3  1  1  0
      16           -76.026166349171859              0.3309744623D-06
   current occupation vector 
     3  1  1  0
     3  1  1  0
      17           -76.026166349171746              0.8907847349D-07
   current occupation vector 
     3  1  1  0
     3  1  1  0
      18           -76.026166349171802              0.1047985743D-07
   current occupation vector 
     3  1  1  0
     3  1  1  0
      19           -76.026166349171888              0.2467480442D-08
   current occupation vector 
     3  1  1  0
     3  1  1  0

  SCF has converged.

 save density matrix on hard disk
 total electron number:   10.0000000000000     
     E(SCF)=       -76.026166349172001              0.1883810885D-09

  Eigenvector printing suppressed.

 @PUTMOS-I, Writing converged MOs to NEWMOS. 
 @PUTMOS-I, Symmetry   1 Full   2 Partial   3
 @PUTMOS-I, Symmetry   2 Full   1 Partial   0
 @PUTMOS-I, Symmetry   3 Full   1 Partial   3
 @PUTMOS-I, Symmetry   4 Full   0 Partial   2
  @DMPJOB-I, Rotating orbitals to semicanonical basis.
             *** Eigenvalues correspond to new basis. ***



 
  ORBITAL EIGENVALUES (ALPHA)  (1H = 27.2113838 eV)

       MO #        E(hartree)               E(eV)           FULLSYM    COMPSYM
       ----   --------------------   --------------------   -------   ---------
    1     1         -20.5533108882        -559.2840313416      A1        A1 (1)
    2     2          -1.3345436041         -36.3147782344      A1        A1 (1)
    3    16          -0.6899190595         -18.7736523318      B2        B2 (3)
    4     3          -0.5703291820         -15.5194462748      A1        A1 (1)
    5    12          -0.4935011498         -13.4288492022      B1        B1 (2)
  +++++++++++++++++++++++++++++++++++++++++++++++++++++++++++++++++++++++++++++
    6     4           0.1836160853           4.9964477723      A1        A1 (1)
    7    17           0.2552861087           6.9466882883      B2        B2 (3)
    8    18           0.7748552215          21.0848828375      B2        B2 (3)
    9     5           0.8579214358          23.3452294772      A1        A1 (1)
   10     6           1.1664127293          31.7397044685      A1        A1 (1)
   11    13           1.1995624276          32.6417536341      B1        B1 (2)
   12    19           1.2565654705          34.1928853110      B2        B2 (3)
   13     7           1.4215933192          38.6835214448      A1        A1 (1)
   14    23           1.4827774168          40.3484254070      A2        A2 (4)
   15    14           1.6586040491          45.1329113835      B1        B1 (2)
   16     8           1.8636313839          50.7119888864      A1        A1 (1)
   17    20           1.9409309865          52.8154180403      B2        B2 (3)
   18    21           2.4271073527          66.0449497446      B2        B2 (3)
   19     9           2.4744927406          67.3343717219      A1        A1 (1)
   20    15           3.2914119172          89.5638729878      B1        B1 (2)
   21    24           3.3210156746          90.3694321925      A2        A2 (4)
   22    10           3.5075348745          95.4448777312      A1        A1 (1)
   23    11           3.8393928859         104.4751934530      A1        A1 (1)
   24    22           4.1520259746         112.9823724247      B2        B2 (3)


  VSCF finished.

  @CHECKOUT-I, Total execution time :       0.0000 seconds.
                0.06 seconds walltime passed
 --executable xvscf finished with status            0
 --invoking executable xvtran
  @GETMEM-I,   Allocated    6675 MB of main memory.
  Full RHF integral transformation
  Transformation of IIII integrals :
  1 pass through the AO integral file was required.
        2350 AO integrals were read.
        2678 MO integrals were written to HF2.
  Transformation of IIJJ integrals :
  1 pass through the AO integral file was required.
        2860 AO integrals were read.
        3100 MO integrals were written to HF2.
  Transformation of IJIJ integrals :
  1 pass through the AO integral file was required.
        4467 AO integrals were read.
        4793 MO integrals were written to HF2.
  Transformation of IJKL integrals :
  1 pass through the AO integral file was required.
        1735 AO integrals were read.
        1848 MO integrals were written to HF2.
  Summary of active molecular orbitals: 
------------------------------------------------------------------------
 
  Index      Eigenvalue    Symmetry    Index      Eigenvalue    Symmetry
------------------------------------------------------------------------
     1       -20.5533109        1        13         3.8393929        1
     2        -1.3345436        1        14         1.1995624        2
     3        -0.5703292        1        15         1.6586040        2
     4        -0.4935011        2        16         3.2914119        2
     5        -0.6899191        3        17         0.2552861        3
     6         0.1836161        1        18         0.7748552        3
     7         0.8579214        1        19         1.2565655        3
     8         1.1664127        1        20         1.9409310        3
     9         1.4215933        1        21         2.4271074        3
    10         1.8636314        1        22         4.1520260        3
    11         2.4744927        1        23         1.4827774        4
    12         3.5075349        1        24         3.3210157        4
------------------------------------------------------------------------
  @CHECKOUT-I, Total execution time :       0.0000 seconds.
                0.00 seconds walltime passed
 --executable xvtran finished with status            0
 --invoking executable xintprc
  @GETMEM-I,   Allocated    6675 MB of main memory.
  @GMOIAA-I, Processing MO integrals for spin case AA.
  @GMOIAA-I, Generation of integral list completed.
                      TYPE                NUMBER
                      ----               --------
                      PPPP                  4957
                      PPPH                  4884
                      PPHH                  1277
                      PHPH                   832
                      PHHH                   420
                      HHHH                    49

                     TOTAL                 12419

  @FORMT2-I, Second-order MP correlation energies:
              ----------------------------------------------
              E(SCF)                =  -76.026166349172 a.u.
              E2(AA)                =   -0.025846020379 a.u.
              E2(AB)                =   -0.153127917722 a.u.
              E2(TOT)               =   -0.204819958480 a.u.
              Total MP2 energy      =  -76.230986307652 a.u.
              ----------------------------------------------
   Largest T2 amplitudes for spin case AB:
       _       _                 _       _                 _       _
   i   j   a   b             i   j   a   b             i   j   a   b
-----------------------------------------------------------------------------
[  4   4  14  14]-0.04720 [  3   3   8   8]-0.03186 [  5   5  18  18]-0.03033
[  4   3  14   8] 0.02881 [  3   4   8  14] 0.02881 [  5   5  17  17]-0.02734
[  5   4  19  14] 0.02344 [  4   5  14  19] 0.02344 [  5   4  17  14]-0.02337
[  4   5  14  17]-0.02337 [  5   5   7   7]-0.02272 [  3   3  18  18]-0.02191
[  5   5  19  19]-0.02172 [  3   5   8  17] 0.01875 [  5   3  17   8] 0.01875
-----------------------------------------------------------------------------
   Norm of T2AB vector (     2459 symmetry allowed elements):  0.1949572454.
-----------------------------------------------------------------------------
  @CHECKOUT-I, Total execution time :       0.0000 seconds.
                0.00 seconds walltime passed
 --executable xintprc finished with status            0
 54                     3
 --invoking executable xvcc
  @GETMEM-I,   Allocated    6675 MB of main memory.
   CCSD(T) energy will be calculated.
   The total correlation energy is -0.204819958480 a.u.
   The total correlation energy is -0.209636361469 a.u.
  Convergence information after     1 iterations: 
  Largest element of residual vector : -0.61196160E-02.
  Largest element of DIIS residual   : -0.61196160E-02.
   The total correlation energy is -0.212918638448 a.u.
  Convergence information after     2 iterations: 
  Largest element of residual vector : -0.18750729E-02.
  Largest element of DIIS residual   : -0.22141994E-02.
   The total correlation energy is -0.213806964437 a.u.
  Convergence information after     3 iterations: 
  Largest element of residual vector :  0.93072838E-03.
  Largest element of DIIS residual   :  0.79812349E-03.
   The total correlation energy is -0.214095411759 a.u.
  Convergence information after     4 iterations: 
  Largest element of residual vector :  0.15717504E-03.
  Largest element of DIIS residual   :  0.95861369E-04.
   The total correlation energy is -0.214113576108 a.u.
  Convergence information after     5 iterations: 
  Largest element of residual vector :  0.12225117E-03.
  Largest element of DIIS residual   :  0.77854978E-04.
   The total correlation energy is -0.214116401510 a.u.
  Convergence information after     6 iterations: 
  Largest element of residual vector :  0.42053295E-04.
  Largest element of DIIS residual   :  0.17462110E-04.
   The total correlation energy is -0.214115723168 a.u.
  Convergence information after     7 iterations: 
  Largest element of residual vector :  0.15748755E-04.
  Largest element of DIIS residual   :  0.40581262E-05.
   The total correlation energy is -0.214115896001 a.u.
  Convergence information after     8 iterations: 
  Largest element of residual vector :  0.22626966E-05.
  Largest element of DIIS residual   :  0.76817822E-06.
   The total correlation energy is -0.214115870600 a.u.
  Convergence information after     9 iterations: 
  Largest element of residual vector :  0.39529680E-06.
  Largest element of DIIS residual   : -0.20546440E-06.
  Amplitude equations converged in     9iterations.
   The total correlation energy is -0.214115879101 a.u.
   The CC iterations have converged.

   Largest T1 amplitudes for spin case AA:
   i       a                 i       a                 i       a    
-----------------------------------------------------------------------------
[  3       6    ] 0.00768 [  5      21    ]-0.00747 [  5      17    ] 0.00604
[  3      11    ]-0.00518 [  5      19    ] 0.00488 [  2       8    ] 0.00430
[  2       6    ] 0.00360 [  4      15    ] 0.00339 [  4      14    ] 0.00322
[  3       7    ] 0.00312 [  3       9    ] 0.00296 [  2      11    ]-0.00274
[  5      18    ] 0.00205 [  2      10    ] 0.00153 [  3      10    ] 0.00139
-----------------------------------------------------------------------------
   Norm of T1AA vector (       33 symmetry allowed elements):  0.0170620290.
-----------------------------------------------------------------------------
   Largest T2 amplitudes for spin case AB:
       _       _                 _       _                 _       _
   i   j   a   b             i   j   a   b             i   j   a   b
-----------------------------------------------------------------------------
[  4   4  14  14]-0.05141 [  5   5  18  18]-0.03639 [  3   3   8   8]-0.03438
[  5   5  17  17]-0.03064 [  4   3  14   8] 0.02810 [  3   4   8  14] 0.02810
[  5   5   7   7]-0.02750 [  3   3  18  18]-0.02591 [  5   4  19  14] 0.02297
[  4   5  14  19] 0.02297 [  5   5  19  19]-0.02231 [  5   4  17  14]-0.02200
[  4   5  14  17]-0.02200 [  5   5  18  17]-0.02167 [  5   5  17  18]-0.02167
-----------------------------------------------------------------------------
   Norm of T2AB vector (     2459 symmetry allowed elements):  0.2174428350.
-----------------------------------------------------------------------------
       Summary of iterative solution of CC equations 
      -----------------------------------------------------------
                       Correlation           Total
       Iteration         Energy              Energy
      -----------------------------------------------------------
            0        -0.204819958480     -76.230986307652  DIIS 
            1        -0.209636361469     -76.235802710641  DIIS 
            2        -0.212918638448     -76.239084987621  DIIS 
            3        -0.213806964437     -76.239973313609  DIIS 
            4        -0.214095411759     -76.240261760931  DIIS 
            5        -0.214113576108     -76.240279925280  DIIS 
            6        -0.214116401510     -76.240282750682  DIIS 
            7        -0.214115723168     -76.240282072340  DIIS 
            8        -0.214115896001     -76.240282245173  DIIS 
            9        -0.214115879101     -76.240282228273  DIIS 
      -----------------------------------------------------------
      A miracle has come to pass. The CC iterations have converged.
        E(CCSD)           =     -76.240282228273
        E(CCSD + T(CCSD)) =     -76.243493772628
        E(CCSD(T))        =     -76.243404938395
  @CHECKOUT-I, Total execution time :       0.1200 seconds.
 --executable xvcc finished with status            0
 54 done                     3
 --invoking executable xlambda
  @GETMEM-I,   Allocated    6675 MB of main memory.
  The Lambda equations are solved for CCSD(T).
  Initial lambda amplitudes: 
  Convergence information after     1 iterations: 
  Largest element of residual vector : -0.26649595E-02.
  Largest element of DIIS residual   : -0.26649595E-02.
  Convergence information after     2 iterations: 
  Largest element of residual vector :  0.88657436E-03.
  Largest element of DIIS residual   :  0.56465972E-03.
  Convergence information after     3 iterations: 
  Largest element of residual vector :  0.22352874E-03.
  Largest element of DIIS residual   : -0.88062895E-04.
  Convergence information after     4 iterations: 
  Largest element of residual vector :  0.67664673E-04.
  Largest element of DIIS residual   :  0.58590352E-04.
  Convergence information after     5 iterations: 
  Largest element of residual vector :  0.36184664E-04.
  Largest element of DIIS residual   :  0.17375465E-04.
  Convergence information after     6 iterations: 
  Largest element of residual vector :  0.13631452E-04.
  Largest element of DIIS residual   :  0.54965342E-05.
  Convergence information after     7 iterations: 
  Largest element of residual vector :  0.44959150E-05.
  Largest element of DIIS residual   : -0.12702718E-05.
  Convergence information after     8 iterations: 
  Largest element of residual vector : -0.59903360E-06.
  Largest element of DIIS residual   : -0.14108946E-06.
  Convergence information after     9 iterations: 
  Largest element of residual vector : -0.10802961E-06.
  Largest element of DIIS residual   :  0.42012268E-07.
  Amplitude equations converged in     9 iterations.
      The lambda equations have converged.
  @CHECKOUT-I, Total execution time :       0.0600 seconds.
 --executable xlambda finished with status            0
 --invoking executable xdens
  @GETMEM-I,   Allocated    6675 MB of main memory.
  CCSD(T) density and intermediates are calculated.
  The perturbed orbitals are chosen canonical.
  The iterative expansion of D(ai) converged after  16 iterations.
  ----------------------------------------------------------------------
                 Natural orbital occupation numbers
  ----------------------------------------------------------------------
  1.99992  1.98408  1.97194  1.96446  1.96148  0.02908  0.02648  0.01754
  0.01168  0.00623  0.00586  0.00529  0.00467  0.00455  0.00134  0.00125
  0.00082  0.00079  0.00074  0.00060  0.00057  0.00053  0.00007  0.00005
  Trace of density matrix :  10.0000000000.
  ----------------------------------------------------------------------
  Density calculation successfully completed.
  @CHECKOUT-I, Total execution time :       0.0200 seconds.
                0.00 seconds walltime passed
 --executable xdens finished with status            0
 --invoking executable xanti
  @GETMEM-I,   Allocated    6675 MB of main memory.
 CCSD(T) MO gammas will be sorted to Mulliken order.
  @CHECKOUT-I, Total execution time :       0.0000 seconds.
                0.06 seconds walltime passed
 --executable xanti finished with status            0
 --invoking executable xbcktrn
  @GETMEM-I,   Allocated    6675 MB of main memory.
  @CHECKOUT-I, Total execution time :       0.0000 seconds.
                0.00 seconds walltime passed
 --executable xbcktrn finished with status            0
 --invoking executable xvdint
  @GETMEM-I,   Allocated    6675 MB of main memory.
 One- and two-electron integral derivatives are calculated
 for RHF-CC/MBPT gradients and dipole moments.
 Spherical gaussians are used.

                     Kinetic energy integral gradient
                     --------------------------------

                         H #1 y     1.1384124352
                         H #1 z    -0.9076820602
                         O #2 z     0.9076820602


 H #1 1     0.0000000000            0.5692062176           -0.4538410301
 H #1 2     0.0000000000           -0.5692062176           -0.4538410301
 O #2       0.0000000000            0.0000000000            0.9076820602



                   Nuclear attraction integral gradient
                   ------------------------------------

                         H #1 y   -10.7696309152
                         H #1 z     8.5534266714
                         O #2 z    -8.5534266714


 H #1 1     0.0000000000           -5.3848154576            4.2767133357
 H #1 2     0.0000000000            5.3848154576            4.2767133357
 O #2       0.0000000000            0.0000000000           -8.5534266714



                      Reorthonormalization gradient
                      -----------------------------

                         H #1 y     0.5533801320
                         H #1 z    -0.4790243908
                         O #2 z     0.4790243908


 H #1 1     0.0000000000            0.2766900660           -0.2395121954
 H #1 2     0.0000000000           -0.2766900660           -0.2395121954
 O #2       0.0000000000            0.0000000000            0.4790243908



                Electronic contributions to dipole moment
                -----------------------------------------

                               au             Debye

                    z     -0.23632158     -0.60066966

  Conversion factor used: 1 a.u. =   2.54174691 Debye 


  Evaluation of 1e integral derivatives required    0.00 seconds.
  Evaluation of 2el integral derivatives

                      Two-electron integral gradient
                      ------------------------------

                         H #1 y     5.0967060545
                         H #1 z    -4.1404083215
                         O #2 z     4.1404083215


 H #1 1     0.0000000000            2.5483530273           -2.0702041607
 H #1 2     0.0000000000           -2.5483530273           -2.0702041607
 O #2       0.0000000000            0.0000000000            4.1404083215


  Evaluation of 2e integral derivatives required    0.02 seconds.

                            Molecular gradient
                            ------------------

                         H #1 y     0.0002811066
                         H #1 z    -0.0001425895
                         O #2 z     0.0001425895


 H #1 1     0.0000000000            0.0001405533           -0.0000712948
 H #1 2     0.0000000000           -0.0001405533           -0.0000712948
 O #2       0.0000000000            0.0000000000            0.0001425895


  Molecular gradient norm 0.346E-03

                           Total dipole moment
                           -------------------

                               au             Debye

                    z      0.77598675      1.97236192

  Conversion factor used: 1 a.u. =   2.54174691 Debye 


  @CHECKOUT-I, Total execution time :       0.0200 seconds.
                0.06 seconds walltime passed
 --executable xvdint finished with status            0
 --invoking executable xsymcor
  @GETMEM-I,   Allocated    6675 MB of main memory.
  current energy   -76.2434049383950     
  there are                      1  more gradients 
  @CHECKOUT-I, Total execution time :       0.0000 seconds.
 --executable xsymcor finished with status            0
 --invoking executable xjoda
  1  H          1     1.00783
  2  O          8    15.99491
  3  H          1     1.00783
   Rotational constants (in cm-1): 
          9.3805857838            14.8522199303            25.4626898300
   Rotational constants (in MHz): 
     281222.9263581776        445258.4143445350        763352.3440853617
********************************************************************************
   The full molecular point group is C2v .
   The largest Abelian subgroup of the full molecular point group is C2v .
   The computational point group is C2v .
********************************************************************************
  There are   24 basis functions.
 @GEOPT-W, Archive file not created for single-point calculation.
                0.00 seconds walltime passed
 --executable xjoda finished with status            0
 --invoking executable xvmol
 Serial version of molecule started
 
    -------------------------------------------------------------------
                    Input from MOL file
    -------------------------------------------------------------------
 INTGRL        1    0    1    0    0    0    0    0    0                        
          *** CFOUR Program System (Release V0.1) ***                           
 MIN4                                                                           
     2    2 X  Y       0.10E-08              0    0                             
    9999.00      3.00                                                           
           1.00000000    1    2    1    1                                       
 H #1  -0.000000000000000  -1.418057956146919   1.020621763958115               
     4    2                                                                     
    13.0100000000000       1.968500000000000E-002  0.000000000000000E+000       
    1.96200000000000       0.137977000000000       0.000000000000000E+000       
   0.444600000000000       0.478148000000000       0.000000000000000E+000       
   0.122000000000000       0.501240000000000        1.00000000000000            
     1    1                                                                     
   0.727000000000000        1.00000000000000                                    
           8.00000000    1    3    1    1    1                                  
 O #2   0.000000000000000  -0.000000000000000  -0.128616899655544               
     9    3                                                                     
    11720.0000000000       7.100000000000000E-004 -1.600000000000000E-004       
   0.000000000000000E+000                                                       
    1759.00000000000       5.470000000000000E-003 -1.263000000000000E-003       
   0.000000000000000E+000                                                       
    400.800000000000       2.783700000000000E-002 -6.267000000000000E-003       
   0.000000000000000E+000                                                       
    113.700000000000       0.104800000000000      -2.571600000000000E-002       
   0.000000000000000E+000                                                       
    37.0300000000000       0.283062000000000      -7.092400000000000E-002       
   0.000000000000000E+000                                                       
    13.2700000000000       0.448719000000000      -0.165411000000000            
   0.000000000000000E+000                                                       
    5.02500000000000       0.270952000000000      -0.116955000000000            
   0.000000000000000E+000                                                       
    1.01300000000000       1.545800000000000E-002  0.557368000000000            
   0.000000000000000E+000                                                       
   0.302300000000000      -2.585000000000000E-003  0.572759000000000            
    1.00000000000000                                                            
     4    2                                                                     
    17.7000000000000       4.301800000000000E-002  0.000000000000000E+000       
    3.85400000000000       0.228913000000000       0.000000000000000E+000       
    1.04600000000000       0.508728000000000       0.000000000000000E+000       
   0.275300000000000       0.460531000000000        1.00000000000000            
     1    1                                                                     
    1.18500000000000        1.00000000000000                                    
 FINISH                                                                         
 
    -------------------------------------------------------------------
 
 One- and two-electron integrals over symmetry-adapted AOs are calculated.

  Spherical harmonics are used.
  
  Integrals less than  0.10E-13 are neglected.

  Nuclear repulsion energy :    9.1183854089 a.u.
  required memory for a1 array                5013204  words 
  required memory for a2 array                2046060  words 
 basis number:   1     5
 basis number:   8    15
  @GETMEM-I,   Allocated      69 MB of main memory.
  @MOLECU-I, One electron integrals required         0.00000 seconds.
  @TWOEL-I,       2350 integrals of symmetry type  I I I I
  @TWOEL-I,       4467 integrals of symmetry type  I J I J
  @TWOEL-I,       2860 integrals of symmetry type  I I J J
  @TWOEL-I,       1735 integrals of symmetry type  I J K L
  @TWOEL-I, Total number of 2-e integrals      11412.
  @MOLECU-I, Two electron integrals required         0.04000 seconds.
  @CHECKOUT-I, Total execution time :       0.0500 seconds.
                0.06 seconds walltime passed
 --executable xvmol finished with status            0
 --invoking executable xvmol2ja
  @GETMEM-I,   Allocated    6675 MB of main memory.
  @CHECKOUT-I, Total execution time :       0.0000 seconds.
                0.00 seconds walltime passed
 --executable xvmol2ja finished with status            0
 --invoking executable xvscf
 NSOSCF                     0
  There are   24 functions in the AO basis.

  There are 4 irreducible representations.

       Irrep        # of functions
         1                 11
         2                  4
         3                  7
         4                  2


  Parameters for SCF calculation: 
        SCF reference function:  RHF  
  Maximum number of iterations:  150
     Full symmetry point group: C2v 
     Computational point group: C2v 
        Initial density matrix: MOREAD                 
     SCF convergence tolerance: 10**(- 9)
  DIIS convergence acceleration:  ON
          Latest start for DIIS:   8
                     DIIS order:   6

  Memory information:      62156 words required.
  Fock matrices are constructed from AO integral file.
  @GETMEM-I,   Allocated       0 MB of main memory.
  Initialization and symmetry analysis required      0.000 seconds.

  @INITGES-I, Occupancies from core Hamiltonian:

          Alpha population by irrep:   3    1    1    0
           Beta population by irrep:   3    1    1    0


 total no. of electrons in initial guess :  0.000000000000000E+000
  --------------------------------------------------------------------
  Iteration         Total Energy            Largest Density Difference
  --------------------------------------------------------------------
       0             9.118385408945731              0.0000000000D+00
   current occupation vector 
     3  1  1  0
     3  1  1  0
       1           -68.878290886486766              0.9704446089D+01
   current occupation vector 
     3  1  1  0
     3  1  1  0
       2           -69.891397988290834              0.9390223859D+01
   current occupation vector 
     3  0  2  0
     3  0  2  0
       3           -73.262532164830205              0.7296486506D+01
   current occupation vector 
     3  1  1  0
     3  1  1  0
       4           -73.376500013022778              0.3774482779D+01
   current occupation vector 
     4  0  1  0
     4  0  1  0
       5           -74.650958450598992              0.3247270230D+01
   current occupation vector 
     3  1  1  0
     3  1  1  0
       6           -75.488843247950840              0.2621210606D+01
   current occupation vector 
     3  1  1  0
     3  1  1  0
       7           -75.833727661164801              0.1488164723D+01
   current occupation vector 
     3  1  1  0
     3  1  1  0
       8           -75.958508988349351              0.9844985486D+00
   current occupation vector 
     3  1  1  0
     3  1  1  0
       9           -76.026134271712294              0.3305219370D+00
   current occupation vector 
     3  1  1  0
     3  1  1  0
      10           -76.026146136246055              0.4730072465D-02
   current occupation vector 
     3  1  1  0
     3  1  1  0
      11           -76.026147608515913              0.2060849971D-02
   current occupation vector 
     3  1  1  0
     3  1  1  0
      12           -76.026147648146448              0.3524998484D-03
   current occupation vector 
     3  1  1  0
     3  1  1  0
      13           -76.026147648490593              0.3435012964D-04
   current occupation vector 
     3  1  1  0
     3  1  1  0
      14           -76.026147648501976              0.5210185016D-05
   current occupation vector 
     3  1  1  0
     3  1  1  0
      15           -76.026147648502814              0.1546270163D-05
   current occupation vector 
     3  1  1  0
     3  1  1  0
      16           -76.026147648502828              0.3348335786D-06
   current occupation vector 
     3  1  1  0
     3  1  1  0
      17           -76.026147648502842              0.8960425868D-07
   current occupation vector 
     3  1  1  0
     3  1  1  0
      18           -76.026147648502771              0.1049174081D-07
   current occupation vector 
     3  1  1  0
     3  1  1  0
      19           -76.026147648502743              0.2473006244D-08
   current occupation vector 
     3  1  1  0
     3  1  1  0

  SCF has converged.

 save density matrix on hard disk
 total electron number:   10.0000000000000     
     E(SCF)=       -76.026147648502871              0.1880515743D-09

  Eigenvector printing suppressed.

 @PUTMOS-I, Writing converged MOs to NEWMOS. 
 @PUTMOS-I, Symmetry   1 Full   2 Partial   3
 @PUTMOS-I, Symmetry   2 Full   1 Partial   0
 @PUTMOS-I, Symmetry   3 Full   1 Partial   3
 @PUTMOS-I, Symmetry   4 Full   0 Partial   2
 @PUTMOS-I, NEWMOS already exists and will be deleted. 
  @DMPJOB-I, Rotating orbitals to semicanonical basis.
             *** Eigenvalues correspond to new basis. ***



 
  ORBITAL EIGENVALUES (ALPHA)  (1H = 27.2113838 eV)

       MO #        E(hartree)               E(eV)           FULLSYM    COMPSYM
       ----   --------------------   --------------------   -------   ---------
    1     1         -20.5533474350        -559.2850258315      A1        A1 (1)
    2     2          -1.3343761426         -36.3102213765      A1        A1 (1)
    3    16          -0.6898227302         -18.7710310778      B2        B2 (3)
    4     3          -0.5702176330         -15.5164108714      A1        A1 (1)
    5    12          -0.4934715428         -13.4280435552      B1        B1 (2)
  +++++++++++++++++++++++++++++++++++++++++++++++++++++++++++++++++++++++++++++
    6     4           0.1835738676           4.9952989700      A1        A1 (1)
    7    17           0.2552380050           6.9453793206      B2        B2 (3)
    8    18           0.7747439134          21.0818539883      B2        B2 (3)
    9     5           0.8575280152          23.3345239564      A1        A1 (1)
   10     6           1.1663989941          31.7393307148      A1        A1 (1)
   11    13           1.1995623381          32.6417511966      B1        B1 (2)
   12    19           1.2565565942          34.1926437759      B2        B2 (3)
   13     7           1.4219115283          38.6921803543      A1        A1 (1)
   14    23           1.4826037777          40.3437004462      A2        A2 (4)
   15    14           1.6587211993          45.1360992034      B1        B1 (2)
   16     8           1.8637529432          50.7152966835      A1        A1 (1)
   17    20           1.9404411179          52.8020880375      B2        B2 (3)
   18    21           2.4264982728          66.0283758377      B2        B2 (3)
   19     9           2.4737132356          67.3131603130      A1        A1 (1)
   20    15           3.2910094544          89.5529214174      B1        B1 (2)
   21    24           3.3208417941          90.3647006624      A2        A2 (4)
   22    10           3.5070994593          95.4330294791      A1        A1 (1)
   23    11           3.8392620338         104.4716327844      A1        A1 (1)
   24    22           4.1515413566         112.9691852980      B2        B2 (3)


  VSCF finished.

  @CHECKOUT-I, Total execution time :       0.0000 seconds.
                0.00 seconds walltime passed
 --executable xvscf finished with status            0
 --invoking executable xvtran
  @GETMEM-I,   Allocated    6675 MB of main memory.
  Full RHF integral transformation
  Transformation of IIII integrals :
  1 pass through the AO integral file was required.
        2350 AO integrals were read.
        2678 MO integrals were written to HF2.
  Transformation of IIJJ integrals :
  1 pass through the AO integral file was required.
        2860 AO integrals were read.
        3100 MO integrals were written to HF2.
  Transformation of IJIJ integrals :
  1 pass through the AO integral file was required.
        4467 AO integrals were read.
        4793 MO integrals were written to HF2.
  Transformation of IJKL integrals :
  1 pass through the AO integral file was required.
        1735 AO integrals were read.
        1848 MO integrals were written to HF2.
  Summary of active molecular orbitals: 
------------------------------------------------------------------------
 
  Index      Eigenvalue    Symmetry    Index      Eigenvalue    Symmetry
------------------------------------------------------------------------
     1       -20.5533474        1        13         3.8392620        1
     2        -1.3343761        1        14         1.1995623        2
     3        -0.5702176        1        15         1.6587212        2
     4        -0.4934715        2        16         3.2910095        2
     5        -0.6898227        3        17         0.2552380        3
     6         0.1835739        1        18         0.7747439        3
     7         0.8575280        1        19         1.2565566        3
     8         1.1663990        1        20         1.9404411        3
     9         1.4219115        1        21         2.4264983        3
    10         1.8637529        1        22         4.1515414        3
    11         2.4737132        1        23         1.4826038        4
    12         3.5070995        1        24         3.3208418        4
------------------------------------------------------------------------
  @CHECKOUT-I, Total execution time :       0.0000 seconds.
                0.06 seconds walltime passed
 --executable xvtran finished with status            0
 --invoking executable xintprc
  @GETMEM-I,   Allocated    6675 MB of main memory.
  @GMOIAA-I, Processing MO integrals for spin case AA.
  @GMOIAA-I, Generation of integral list completed.
                      TYPE                NUMBER
                      ----               --------
                      PPPP                  4957
                      PPPH                  4884
                      PPHH                  1277
                      PHPH                   832
                      PHHH                   420
                      HHHH                    49

                     TOTAL                 12419

  @FORMT2-I, Second-order MP correlation energies:
              ----------------------------------------------
              E(SCF)                =  -76.026147648503 a.u.
              E2(AA)                =   -0.025847115936 a.u.
              E2(AB)                =   -0.153142748038 a.u.
              E2(TOT)               =   -0.204836979910 a.u.
              Total MP2 energy      =  -76.230984628413 a.u.
              ----------------------------------------------
   Largest T2 amplitudes for spin case AB:
       _       _                 _       _                 _       _
   i   j   a   b             i   j   a   b             i   j   a   b
-----------------------------------------------------------------------------
[  4   4  14  14]-0.04720 [  3   3   8   8]-0.03188 [  5   5  18  18]-0.03034
[  4   3  14   8] 0.02882 [  3   4   8  14] 0.02882 [  5   5  17  17]-0.02736
[  5   4  19  14] 0.02344 [  4   5  14  19] 0.02344 [  4   5  14  17]-0.02338
[  5   4  17  14]-0.02338 [  5   5   7   7]-0.02273 [  3   3  18  18]-0.02191
[  5   5  19  19]-0.02172 [  3   5   8  17] 0.01876 [  5   3  17   8] 0.01876
-----------------------------------------------------------------------------
   Norm of T2AB vector (     2459 symmetry allowed elements):  0.1949884996.
-----------------------------------------------------------------------------
  @CHECKOUT-I, Total execution time :       0.0100 seconds.
                0.00 seconds walltime passed
 --executable xintprc finished with status            0
 54                     3
 --invoking executable xvcc
  @GETMEM-I,   Allocated    6675 MB of main memory.
   CCSD(T) energy will be calculated.
   The total correlation energy is -0.204836979910 a.u.
   The total correlation energy is -0.209650844542 a.u.
  Convergence information after     1 iterations: 
  Largest element of residual vector : -0.61228059E-02.
  Largest element of DIIS residual   : -0.61228059E-02.
   The total correlation energy is -0.212935219663 a.u.
  Convergence information after     2 iterations: 
  Largest element of residual vector : -0.18767138E-02.
  Largest element of DIIS residual   : -0.22159112E-02.
   The total correlation energy is -0.213824166899 a.u.
  Convergence information after     3 iterations: 
  Largest element of residual vector :  0.93259535E-03.
  Largest element of DIIS residual   :  0.79969029E-03.
   The total correlation energy is -0.214113009653 a.u.
  Convergence information after     4 iterations: 
  Largest element of residual vector :  0.15775907E-03.
  Largest element of DIIS residual   :  0.96196144E-04.
   The total correlation energy is -0.214131200913 a.u.
  Convergence information after     5 iterations: 
  Largest element of residual vector :  0.12262152E-03.
  Largest element of DIIS residual   :  0.78057181E-04.
   The total correlation energy is -0.214134031163 a.u.
  Convergence information after     6 iterations: 
  Largest element of residual vector :  0.42172940E-04.
  Largest element of DIIS residual   :  0.17493927E-04.
   The total correlation energy is -0.214133350134 a.u.
  Convergence information after     7 iterations: 
  Largest element of residual vector :  0.15784243E-04.
  Largest element of DIIS residual   :  0.40618591E-05.
   The total correlation energy is -0.214133523521 a.u.
  Convergence information after     8 iterations: 
  Largest element of residual vector :  0.22662145E-05.
  Largest element of DIIS residual   :  0.77008491E-06.
   The total correlation energy is -0.214133498052 a.u.
  Convergence information after     9 iterations: 
  Largest element of residual vector :  0.39581278E-06.
  Largest element of DIIS residual   : -0.20571058E-06.
  Amplitude equations converged in     9iterations.
   The total correlation energy is -0.214133506568 a.u.
   The CC iterations have converged.

   Largest T1 amplitudes for spin case AA:
   i       a                 i       a                 i       a    
-----------------------------------------------------------------------------
[  3       6    ] 0.00769 [  5      21    ]-0.00747 [  5      17    ] 0.00604
[  3      11    ]-0.00518 [  5      19    ] 0.00489 [  2       8    ] 0.00431
[  2       6    ] 0.00360 [  4      15    ] 0.00339 [  4      14    ] 0.00322
[  3       7    ] 0.00312 [  3       9    ] 0.00296 [  2      11    ]-0.00274
[  5      18    ] 0.00205 [  2      10    ] 0.00153 [  3      10    ] 0.00139
-----------------------------------------------------------------------------
   Norm of T1AA vector (       33 symmetry allowed elements):  0.0170740792.
-----------------------------------------------------------------------------
   Largest T2 amplitudes for spin case AB:
       _       _                 _       _                 _       _
   i   j   a   b             i   j   a   b             i   j   a   b
-----------------------------------------------------------------------------
[  4   4  14  14]-0.05141 [  5   5  18  18]-0.03639 [  3   3   8   8]-0.03439
[  5   5  17  17]-0.03067 [  4   3  14   8] 0.02811 [  3   4   8  14] 0.02811
[  5   5   7   7]-0.02752 [  3   3  18  18]-0.02591 [  5   4  19  14] 0.02297
[  4   5  14  19] 0.02297 [  5   5  19  19]-0.02230 [  5   4  17  14]-0.02201
[  4   5  14  17]-0.02201 [  5   5  18  17]-0.02169 [  5   5  17  18]-0.02169
-----------------------------------------------------------------------------
   Norm of T2AB vector (     2459 symmetry allowed elements):  0.2174860285.
-----------------------------------------------------------------------------
       Summary of iterative solution of CC equations 
      -----------------------------------------------------------
                       Correlation           Total
       Iteration         Energy              Energy
      -----------------------------------------------------------
            0        -0.204836979910     -76.230984628413  DIIS 
            1        -0.209650844542     -76.235798493045  DIIS 
            2        -0.212935219663     -76.239082868166  DIIS 
            3        -0.213824166899     -76.239971815402  DIIS 
            4        -0.214113009653     -76.240260658155  DIIS 
            5        -0.214131200913     -76.240278849416  DIIS 
            6        -0.214134031163     -76.240281679666  DIIS 
            7        -0.214133350134     -76.240280998637  DIIS 
            8        -0.214133523521     -76.240281172024  DIIS 
            9        -0.214133506568     -76.240281155071  DIIS 
      -----------------------------------------------------------
      A miracle has come to pass. The CC iterations have converged.
        E(CCSD)           =     -76.240281155071
        E(CCSD + T(CCSD)) =     -76.243493840664
        E(CCSD(T))        =     -76.243404938519
  @CHECKOUT-I, Total execution time :       0.1000 seconds.
 --executable xvcc finished with status            0
 54 done                     3
 --invoking executable xlambda
  @GETMEM-I,   Allocated    6675 MB of main memory.
  The Lambda equations are solved for CCSD(T).
  Initial lambda amplitudes: 
  Convergence information after     1 iterations: 
  Largest element of residual vector : -0.26631963E-02.
  Largest element of DIIS residual   : -0.26631963E-02.
  Convergence information after     2 iterations: 
  Largest element of residual vector :  0.88705755E-03.
  Largest element of DIIS residual   :  0.56535378E-03.
  Convergence information after     3 iterations: 
  Largest element of residual vector :  0.22374574E-03.
  Largest element of DIIS residual   : -0.88171021E-04.
  Convergence information after     4 iterations: 
  Largest element of residual vector :  0.67786474E-04.
  Largest element of DIIS residual   :  0.58684590E-04.
  Convergence information after     5 iterations: 
  Largest element of residual vector :  0.36248837E-04.
  Largest element of DIIS residual   :  0.17406161E-04.
  Convergence information after     6 iterations: 
  Largest element of residual vector :  0.13655701E-04.
  Largest element of DIIS residual   :  0.55032865E-05.
  Convergence information after     7 iterations: 
  Largest element of residual vector :  0.45031233E-05.
  Largest element of DIIS residual   : -0.12722141E-05.
  Convergence information after     8 iterations: 
  Largest element of residual vector : -0.60003682E-06.
  Largest element of DIIS residual   : -0.14123592E-06.
  Convergence information after     9 iterations: 
  Largest element of residual vector : -0.10813148E-06.
  Largest element of DIIS residual   :  0.42089020E-07.
  Amplitude equations converged in     9 iterations.
      The lambda equations have converged.
  @CHECKOUT-I, Total execution time :       0.0500 seconds.
 --executable xlambda finished with status            0
 --invoking executable xdens
  @GETMEM-I,   Allocated    6675 MB of main memory.
  CCSD(T) density and intermediates are calculated.
  The perturbed orbitals are chosen canonical.
  The iterative expansion of D(ai) converged after  16 iterations.
  ----------------------------------------------------------------------
                 Natural orbital occupation numbers
  ----------------------------------------------------------------------
  1.99992  1.98408  1.97194  1.96444  1.96146  0.02910  0.02650  0.01754
  0.01168  0.00623  0.00586  0.00529  0.00467  0.00455  0.00134  0.00125
  0.00082  0.00079  0.00074  0.00060  0.00057  0.00053  0.00007  0.00005
  Trace of density matrix :  10.0000000000.
  ----------------------------------------------------------------------
  Density calculation successfully completed.
  @CHECKOUT-I, Total execution time :       0.0100 seconds.
                0.00 seconds walltime passed
 --executable xdens finished with status            0
 --invoking executable xanti
  @GETMEM-I,   Allocated    6675 MB of main memory.
 CCSD(T) MO gammas will be sorted to Mulliken order.
  @CHECKOUT-I, Total execution time :       0.0000 seconds.
                0.00 seconds walltime passed
 --executable xanti finished with status            0
 --invoking executable xbcktrn
  @GETMEM-I,   Allocated    6675 MB of main memory.
  @CHECKOUT-I, Total execution time :       0.0000 seconds.
                0.00 seconds walltime passed
 --executable xbcktrn finished with status            0
 --invoking executable xvdint
  @GETMEM-I,   Allocated    6675 MB of main memory.
 One- and two-electron integral derivatives are calculated
 for RHF-CC/MBPT gradients and dipole moments.
 Spherical gaussians are used.

                     Kinetic energy integral gradient
                     --------------------------------

                         H #1 y     1.1380024028
                         H #1 z    -0.9067439979
                         O #2 z     0.9067439979


 H #1 1     0.0000000000            0.5690012014           -0.4533719989
 H #1 2     0.0000000000           -0.5690012014           -0.4533719989
 O #2       0.0000000000            0.0000000000            0.9067439979



                   Nuclear attraction integral gradient
                   ------------------------------------

                         H #1 y   -10.7680389922
                         H #1 z     8.5465513090
                         O #2 z    -8.5465513090


 H #1 1     0.0000000000           -5.3840194961            4.2732756545
 H #1 2     0.0000000000            5.3840194961            4.2732756545
 O #2       0.0000000000            0.0000000000           -8.5465513090



                      Reorthonormalization gradient
                      -----------------------------

                         H #1 y     0.5533286679
                         H #1 z    -0.4786947210
                         O #2 z     0.4786947210


 H #1 1     0.0000000000            0.2766643339           -0.2393473605
 H #1 2     0.0000000000           -0.2766643339           -0.2393473605
 O #2       0.0000000000            0.0000000000            0.4786947210



                Electronic contributions to dipole moment
                -----------------------------------------

                               au             Debye

                    z     -0.23641532     -0.60090791

  Conversion factor used: 1 a.u. =   2.54174691 Debye 


  Evaluation of 1e integral derivatives required    0.01 seconds.
  Evaluation of 2el integral derivatives

                      Two-electron integral gradient
                      ------------------------------

                         H #1 y     5.0967632757
                         H #1 z    -4.1372365705
                         O #2 z     4.1372365705


 H #1 1     0.0000000000            2.5483816378           -2.0686182853
 H #1 2     0.0000000000           -2.5483816378           -2.0686182853
 O #2       0.0000000000            0.0000000000            4.1372365705


  Evaluation of 2e integral derivatives required    0.02 seconds.

                            Molecular gradient
                            ------------------

                         H #1 y    -0.0002808915
                         H #1 z     0.0001424217
                         O #2 z    -0.0001424217


 H #1 1     0.0000000000           -0.0001404457            0.0000712109
 H #1 2     0.0000000000            0.0001404457            0.0000712109
 O #2       0.0000000000            0.0000000000           -0.0001424217


  Molecular gradient norm 0.346E-03

                           Total dipole moment
                           -------------------

                               au             Debye

                    z      0.77589301      1.97212366

  Conversion factor used: 1 a.u. =   2.54174691 Debye 


  @CHECKOUT-I, Total execution time :       0.0300 seconds.
                0.06 seconds walltime passed
 --executable xvdint finished with status            0
 --invoking executable xsymcor
  @GETMEM-I,   Allocated    6675 MB of main memory.
  current energy   -76.2434049385194     
  there are                      1  more gradients 
  @CHECKOUT-I, Total execution time :       0.0000 seconds.
 --executable xsymcor finished with status            0
 --invoking executable xjoda
  1  H          1     1.00783
  2  O          8    15.99491
  3  H          1     1.00783
   Rotational constants (in cm-1): 
          9.3812803906            14.8595998499            25.4461379477
   Rotational constants (in MHz): 
     281243.7501492375        445479.6588001631        762856.1310696931
********************************************************************************
   The full molecular point group is C2v .
   The largest Abelian subgroup of the full molecular point group is C2v .
   The computational point group is C2v .
********************************************************************************
  There are   24 basis functions.
 @GEOPT-W, Archive file not created for single-point calculation.
                0.06 seconds walltime passed
[...]
  @CHECKOUT-I, Total execution time :       0.0100 seconds.
                0.00 seconds walltime passed
 --executable xintprc finished with status            0
 54                     3
 --invoking executable xvcc
  @GETMEM-I,   Allocated    6675 MB of main memory.
   CCSD(T) energy will be calculated.
   The total correlation energy is -0.204828467115 a.u.
   The total correlation energy is -0.209643601665 a.u.
  Convergence information after     1 iterations: 
  Largest element of residual vector : -0.61209141E-02.
  Largest element of DIIS residual   : -0.61209141E-02.
   The total correlation energy is -0.212926927691 a.u.
  Convergence information after     2 iterations: 
  Largest element of residual vector : -0.18758916E-02.
  Largest element of DIIS residual   : -0.22150536E-02.
   The total correlation energy is -0.213815564403 a.u.
  Convergence information after     3 iterations: 
  Largest element of residual vector :  0.93166161E-03.
  Largest element of DIIS residual   :  0.79890678E-03.
   The total correlation energy is -0.214104209412 a.u.
  Convergence information after     4 iterations: 
  Largest element of residual vector :  0.15746689E-03.
  Largest element of DIIS residual   :  0.96028681E-04.
   The total correlation energy is -0.214122387212 a.u.
  Convergence information after     5 iterations: 
  Largest element of residual vector :  0.12243628E-03.
  Largest element of DIIS residual   :  0.77956076E-04.
   The total correlation energy is -0.214125215035 a.u.
  Convergence information after     6 iterations: 
  Largest element of residual vector :  0.42113115E-04.
  Largest element of DIIS residual   :  0.17478023E-04.
   The total correlation energy is -0.214124535350 a.u.
  Convergence information after     7 iterations: 
  Largest element of residual vector :  0.15766501E-04.
  Largest element of DIIS residual   :  0.40599918E-05.
   The total correlation energy is -0.214124708460 a.u.
  Convergence information after     8 iterations: 
  Largest element of residual vector :  0.22644543E-05.
  Largest element of DIIS residual   :  0.76913105E-06.
   The total correlation energy is -0.214124683025 a.u.
  Convergence information after     9 iterations: 
  Largest element of residual vector :  0.39555412E-06.
  Largest element of DIIS residual   : -0.20558775E-06.
  Amplitude equations converged in     9iterations.
   The total correlation energy is -0.214124691534 a.u.
   The CC iterations have converged.

   Largest T1 amplitudes for spin case AA:
   i       a                 i       a                 i       a    
-----------------------------------------------------------------------------
[  4       6    ] 0.00769 [  3      15    ]-0.00747 [  3       7    ] 0.00604
[  4      16    ]-0.00518 [  3      11    ] 0.00489 [  2      10    ] 0.00430
[  2       6    ] 0.00360 [  5      22    ] 0.00339 [  5      20    ] 0.00322
[  4       9    ] 0.00312 [  4      12    ] 0.00296 [  2      16    ]-0.00274
[  3       8    ] 0.00205 [  2      13    ] 0.00153 [  4      13    ] 0.00139
-----------------------------------------------------------------------------
   Norm of T1AA vector (       61 symmetry allowed elements):  0.0170680539.
-----------------------------------------------------------------------------
   Largest T2 amplitudes for spin case AB:
       _       _                 _       _                 _       _
   i   j   a   b             i   j   a   b             i   j   a   b
-----------------------------------------------------------------------------
[  5   5  20  20]-0.05141 [  3   3   8   8]-0.03639 [  4   4  10  10]-0.03439
[  3   3   7   7]-0.03065 [  5   4  20  10] 0.02810 [  4   5  10  20] 0.02810
[  3   3   9   9]-0.02751 [  4   4   8   8]-0.02591 [  5   3  20  11] 0.02297
[  3   5  11  20] 0.02297 [  3   3  11  11]-0.02231 [  5   3  20   7]-0.02201
[  3   5   7  20]-0.02201 [  3   3   8   7]-0.02168 [  3   3   7   8]-0.02168
-----------------------------------------------------------------------------
   Norm of T2AB vector (     4877 symmetry allowed elements):  0.2174644342.
-----------------------------------------------------------------------------
       Summary of iterative solution of CC equations 
      -----------------------------------------------------------
                       Correlation           Total
       Iteration         Energy              Energy
      -----------------------------------------------------------
            0        -0.204828467115     -76.230985443710  DIIS 
            1        -0.209643601665     -76.235800578260  DIIS 
            2        -0.212926927691     -76.239083904285  DIIS 
            3        -0.213815564403     -76.239972540998  DIIS 
            4        -0.214104209412     -76.240261186007  DIIS 
            5        -0.214122387212     -76.240279363806  DIIS 
            6        -0.214125215035     -76.240282191630  DIIS 
            7        -0.214124535350     -76.240281511945  DIIS 
            8        -0.214124708460     -76.240281685054  DIIS 
            9        -0.214124691534     -76.240281668128  DIIS 
      -----------------------------------------------------------
      A miracle has come to pass. The CC iterations have converged.
        E(CCSD)           =     -76.240281668128
        E(CCSD + T(CCSD)) =     -76.243493783015
        E(CCSD(T))        =     -76.243404914828
  @CHECKOUT-I, Total execution time :       0.2000 seconds.
 --executable xvcc finished with status            0
 54 done                     3
 --invoking executable xlambda
  @GETMEM-I,   Allocated    6675 MB of main memory.
  The Lambda equations are solved for CCSD(T).
  Initial lambda amplitudes: 
  Convergence information after     1 iterations: 
  Largest element of residual vector : -0.26640773E-02.
  Largest element of DIIS residual   : -0.26640773E-02.
  Convergence information after     2 iterations: 
  Largest element of residual vector :  0.88681543E-03.
  Largest element of DIIS residual   :  0.56500632E-03.
  Convergence information after     3 iterations: 
  Largest element of residual vector :  0.22363650E-03.
  Largest element of DIIS residual   : -0.88116958E-04.
  Convergence information after     4 iterations: 
  Largest element of residual vector :  0.67725655E-04.
  Largest element of DIIS residual   :  0.58637511E-04.
  Convergence information after     5 iterations: 
  Largest element of residual vector :  0.36216773E-04.
  Largest element of DIIS residual   :  0.17390814E-04.
  Convergence information after     6 iterations: 
  Largest element of residual vector :  0.13643576E-04.
  Largest element of DIIS residual   :  0.54999082E-05.
  Convergence information after     7 iterations: 
  Largest element of residual vector :  0.44995177E-05.
  Largest element of DIIS residual   : -0.12712422E-05.
  Convergence information after     8 iterations: 
  Largest element of residual vector : -0.59953464E-06.
  Largest element of DIIS residual   : -0.14116199E-06.
  Convergence information after     9 iterations: 
  Largest element of residual vector : -0.10808021E-06.
  Largest element of DIIS residual   :  0.42050674E-07.
  Amplitude equations converged in     9 iterations.
      The lambda equations have converged.
  @CHECKOUT-I, Total execution time :       0.0900 seconds.
 --executable xlambda finished with status            0
 --invoking executable xdens
  @GETMEM-I,   Allocated    6675 MB of main memory.
  CCSD(T) density and intermediates are calculated.
  The perturbed orbitals are chosen canonical.
  The iterative expansion of D(ai) converged after  17 iterations.
  ----------------------------------------------------------------------
                 Natural orbital occupation numbers
  ----------------------------------------------------------------------
  1.99992  1.98408  1.97194  1.96445  1.96147  0.02909  0.02649  0.01754
  0.01168  0.00623  0.00586  0.00529  0.00467  0.00455  0.00134  0.00125
  0.00082  0.00079  0.00074  0.00060  0.00057  0.00053  0.00007  0.00005
  Trace of density matrix :  10.0000000000.
  ----------------------------------------------------------------------
  Density calculation successfully completed.
  @CHECKOUT-I, Total execution time :       0.0300 seconds.
                0.06 seconds walltime passed
 --executable xdens finished with status            0
 --invoking executable xanti
  @GETMEM-I,   Allocated    6675 MB of main memory.
 CCSD(T) MO gammas will be sorted to Mulliken order.
  @CHECKOUT-I, Total execution time :       0.0100 seconds.
                0.00 seconds walltime passed
 --executable xanti finished with status            0
 --invoking executable xbcktrn
  @GETMEM-I,   Allocated    6675 MB of main memory.
  @CHECKOUT-I, Total execution time :       0.0000 seconds.
                0.00 seconds walltime passed
 --executable xbcktrn finished with status            0
 --invoking executable xvdint
  @GETMEM-I,   Allocated    6675 MB of main memory.
 One- and two-electron integral derivatives are calculated
 for RHF-CC/MBPT gradients and dipole moments.
 Spherical gaussians are used.

                     Kinetic energy integral gradient
                     --------------------------------

                         H #1 x     0.5689822704
                         H #1 y    -0.4542101543
                         O #2 x     0.0002424229
                         O #2 y     0.9072130626
                         H #3 x    -0.5692246932
                         H #3 y    -0.4530029083


 H #1       0.5689822704           -0.4542101543            0.0000000000
 O #2       0.0002424229            0.9072130626            0.0000000000
 H #3      -0.5692246932           -0.4530029083            0.0000000000



                   Nuclear attraction integral gradient
                   ------------------------------------

                         H #1 x    -5.3824489612
                         H #1 y     4.2800245494
                         O #2 x    -0.0039334354
                         O #2 y    -8.5499881986
                         H #3 x     5.3863823966
                         H #3 y     4.2699636493


 H #1      -5.3824489612            4.2800245494            0.0000000000
 O #2      -0.0039334354           -8.5499881986            0.0000000000
 H #3       5.3863823966            4.2699636493            0.0000000000



                      Reorthonormalization gradient
                      -----------------------------

                         H #1 x     0.2765400110
                         H #1 y    -0.2396778835
                         O #2 x     0.0002741769
                         O #2 y     0.4788594747
                         H #3 x    -0.2768141879
                         H #3 y    -0.2391815913


 H #1       0.2765400110           -0.2396778835            0.0000000000
 O #2       0.0002741769            0.4788594747            0.0000000000
 H #3      -0.2768141879           -0.2391815913            0.0000000000



                Electronic contributions to dipole moment
                -----------------------------------------

                               au             Debye

                    x     -0.00036195     -0.00091998
                    y     -0.23636824     -0.60078825

  Conversion factor used: 1 a.u. =   2.54174691 Debye 


  Evaluation of 1e integral derivatives required    0.01 seconds.
  Evaluation of 2el integral derivatives

                      Two-electron integral gradient
                      ------------------------------

                         H #1 x     2.5471794790
                         H #1 y    -2.0716658316
                         O #2 x     0.0023742244
                         O #2 y     4.1388216869
                         H #3 x    -2.5495537034
                         H #3 y    -2.0671558552


 H #1       2.5471794790           -2.0716658316            0.0000000000
 O #2       0.0023742244            4.1388216869            0.0000000000
 H #3      -2.5495537034           -2.0671558552            0.0000000000


  Evaluation of 2e integral derivatives required    0.03 seconds.

                            Molecular gradient
                            ------------------

                         H #1 x     0.0001554646
                         H #1 y    -0.0001262116
                         O #2 x    -0.0003109210
                         O #2 y     0.0000003802
                         H #3 x     0.0001554564
                         H #3 y     0.0001258314


 H #1       0.0001554646           -0.0001262116            0.0000000000
 O #2      -0.0003109210            0.0000003802            0.0000000000
 H #3       0.0001554564            0.0001258314            0.0000000000


  Molecular gradient norm 0.420E-03

                           Total dipole moment
                           -------------------

                               au             Debye

                    x      0.00063284      0.00160852
                    y      0.77593963      1.97224216

  Conversion factor used: 1 a.u. =   2.54174691 Debye 


  @CHECKOUT-I, Total execution time :       0.0400 seconds.
                0.06 seconds walltime passed
 --executable xvdint finished with status            0
 --invoking executable xsymcor
  @GETMEM-I,   Allocated    6675 MB of main memory.
  current energy   -76.2434049148281     
  there are                      0  more gradients 
  Vibrational frequencies  (cm-1) :
      1 1691.61685    54.04362
      2 3824.93370     3.25334
  Vibrational frequencies  (cm-1) :
      1 3931.30411    19.56755
  @CHECKOUT-I, Total execution time :       0.0000 seconds.
 --executable xsymcor finished with status            0
 --invoking executable xjoda
  1  H          1     1.00783
  2  O          8    15.99491
  3  H          1     1.00783
   Rotational constants (in cm-1): 
          9.3835291840            14.8595998499            25.4626898300
   Rotational constants (in MHz): 
     281311.1672885240        445479.6588001629        763352.3440853608
********************************************************************************
   The full molecular point group is C2v .
   The largest Abelian subgroup of the full molecular point group is C2v .
   The computational point group is C2v .
********************************************************************************
 @GEOPT-W, Archive file not created for single-point calculation.
  @PROJFCM-I, Projecting force constant matrix onto totally symmetric subspace.
  Largest difference between matrix elements of symmetrized
  and unsymmetrized FCM : ***************.
  masses used (in AMU) in vibrational analysis: 
   1.007825035     15.994914630      1.007825035
                     Normal Coordinate Analysis
  ----------------------------------------------------------------
    Irreducible         Harmonic       Infrared        Type 
   Representation       Frequency      Intensity 
  ----------------------------------------------------------------
                       (cm-1)         (km/mol)
  ----------------------------------------------------------------
      ----                 0.0000i        0.0000       --------- 
      ----                 0.0000i        0.0000       --------- 
      ----                 0.0000         0.0000       --------- 
      ----                 0.0000         0.0000       --------- 
      ----                 0.0000         0.0000       --------- 
      ----                 0.0001         0.0000       --------- 
        A1              1691.6192        54.0436       VIBRATION 
        A1              3824.9389         3.2533       VIBRATION 
        B2              3931.3095        19.5676       VIBRATION 
  ----------------------------------------------------------------
 
 
                                   Normal Coordinates 

                A1                        A1                        B2
              1691.62                   3824.94                   3931.31 
             VIBRATION                 VIBRATION                 VIBRATION 
 H     -0.000 0.4209  0.5354    0.0000  0.5682 -0.3967    0.0000  0.5295 -0.4293
 O      0.000-0.0000 -0.2688   -0.0000 -0.0000  0.1991    0.0000 -0.2658 -0.0000
 H     -0.000-0.4209  0.5354    0.0000 -0.5682 -0.3967    0.0000  0.5295  0.4293
 
                      Normal modes in internal coordinates 
---------------------------------------------------------------------------
              0.000         0.000         0.000         0.000         0.000
---------------------------------------------------------------------------
R         -0.000000      0.000000      0.000000      0.000000      0.000000
R          0.000000     -0.000000      0.000000     -0.000000     -0.000000
A          0.000000      0.000000     -0.000000      0.000000     -0.000000
---------------------------------------------------------------------------
              0.000      1691.619      3824.939      3931.309
---------------------------------------------------------------------------
R          0.000000      0.065280     -0.707059     -0.707107
R         -0.000000      0.065280     -0.707059      0.707107
A         -0.000000     -0.995729     -0.011609      0.000000
---------------------------------------------------------------------------
 
  ----------------------------------------------------------------
                    Dipole Moment Function
                   (Normal Coordinate Basis)
  ----------------------------------------------------------------
    Mode     Symmetry    d(Mu(x))/dQ   d(Mu(y))/dQ   d(Mu(z))/dQ
  ----------------------------------------------------------------
     Q7          A1        0.000000      0.000000      0.235450
     Q8          A1        0.000000      0.000000     -0.057769
     Q9          B2        0.000000      0.141676      0.000000
  ----------------------------------------------------------------
---------------------------------------------------------------------------
------------------------------------------------------------
        Parameter                (MHz)                 (CM-1)
------------------------------------------------------------
 
           R6                -.327462E+01           -.109230E-03
           R5                0.282717E+02           0.943041E-03
           SI                            0.486927E+01
 
  A-reduced centrifugal distortion parameters 
 
           DJ                0.298852E+02           0.996861E-03
           DK                0.568267E+03           0.189553E-01
           DJK               -.103492E+03           -.345211E-02
           DELJ              0.364344E+02           0.121532E-02
           DELK              0.601013E+03           0.200476E-01
           DELJK             -.142787E+03           -.476287E-02
           delJ              0.148278E+02           0.494603E-03
           delK              0.723672E+01           0.241391E-03
 
  S-reduced centrifugal distortion parameters 
 
           DJ                0.356913E+02           0.119053E-02
           DK                0.597297E+03           0.199237E-01
           DJK               -.138329E+03           -.461415E-02
           D1                -.148278E+02           -.494603E-03
           D2                -.371551E+00           -.123936E-04
------------------------------------------------------------
   Vibrational frequencies after rotational projection  of 
   Cartesian force constants: 
            1               0.0000i
            2               0.0000i
            3               0.0000i
            4               0.0000 
            5               0.0000 
            6               0.0000 
            7            1691.6192 
            8            3824.9389 
            9            3931.3095 
  Zero-point vibrational energy:   13.5064 kcal/mol =   56.5108 kJ/mol.
                0.06 seconds walltime passed
 --executable xjoda finished with status            0
