 --invoking executable--
/opt/vulcan/opt/vulcan/linux-x86_64/intel-13.0.0/cfour-2.0-yhj426etc3g7hslvbmpgvdymp2w76rob/bin/xjoda


   *************************************************************************
         <<<     CCCCCC     CCCCCC   |||     CCCCCC     CCCCCC   >>>
       <<<      CCC        CCC       |||    CCC        CCC         >>>
      <<<      CCC        CCC        |||   CCC        CCC            >>>
    <<<        CCC        CCC        |||   CCC        CCC              >>>
      <<<      CCC        CCC        |||   CCC        CCC            >>>
       <<<      CCC        CCC       |||    CCC        CCC         >>>
         <<<     CCCCCC     CCCCCC   |||     CCCCCC     CCCCCC   >>>
   *************************************************************************

     ****************************************************************
     * CFOUR Coupled-Cluster techniques for Computational Chemistry *
     ****************************************************************
 

   Department of Chemistry                Institut fuer Physikalische Chemie
   University of Texas at Austin          Universitaet Mainz
   Austin, TX  78712, USA                 D-55099 Mainz, Germany
 
                       Version 1.2
 
                     n045                                              
                     Fri Jul 31 11:01:17 EDT 2020                      
                     integer*8 version is running
 
********************************************************************************
*                          Input from ZMAT file                                *
********************************************************************************
MIN4                                                                            
C                                                                               
O 1 R1*                                                                         
H 1 R2* 2 A2*                                                                   
H 1 R3* 2 A3* 3 D3*                                                             
H 1 R3* 2 A3* 3 D4*                                                             
H 2 R5* 1 A5* 3 D5*                                                             
                                                                                
R1   =        2.696573997657883                                                 
R2   =        2.081647917136476                                                 
A2   =      112.301547773046437                                                 
R3   =        2.074526657212965                                                 
A3   =      109.366965271564894                                                 
D3   =     -121.395401869715215                                                 
D4   =      119.995549686614808                                                 
R5   =        1.836471596506251                                                 
A5   =      106.939243760784038                                                 
D5   =     -179.964522118665798                                                 
                                                                                
*CFOUR(REF=RHF                                                                  
       CALC=CCSD(T)                                                             
       BASIS=cc-pVDZ                                                            
       ORB=SEMICANONICAL                                                        
       UNITS=BOHR                                                               
       MEMORY=7                                                                 
       MEM_UNIT=GB                                                              
       SCF_CONV=9                                                               
       CC_CONV=6                                                                
       CHARGE=0                                                                 
       MULT=1)                                                                  
                                                                                
********************************************************************************
    -------------------------------------------------------------------
                    CFOUR Control Parameters 
    -------------------------------------------------------------------
        External           Internal           Value            Units
          Name               Name
    -------------------------------------------------------------------
       ABCDTYPE             IABCDT         STANDARD     [  0]   ***   
       ANHARMONIC           IANHAR         OFF          [  0]   ***   
       ANH_ALGORIT          IANALG         STANDARD     [  0]   ***   
       ANH_DERIVAT          IANDER         SECOND       [  1]   ***   
       ANH_STEPSIZ          ICUBST             50000          x 10-6  
       ANH_SYMMETR          IANHSM         ABELIAN      [  0]   ***   
       AO_LADDERS           IAOLAD         SINGLEPASS   [  1]   ***   
       AV_SCF               IAVSCF         OFF          [  0]   ***   
       BASIS                IBASIS         PVDZ         [ 13]   ***   
       BOTHVECTORS          BOTHVC         OFF          [  0]   ***   
       BOX_POTENT           IPIAB          OFF          [  0]   ***   
       BREIT                IBREIT         OFF          [  0]   ***   
       BRUCK_CONV           IBRTOL          10D-  4             ***   
       BRUECKNER            IBRKNR             OFF      [  0]   ***   
       BUFFERSIZE           IBUFFS            600               ***   
       CACHE_RECS           ICHREC             10               ***   
       CALCLEVEL            ICLLVL           CCSD(T)    [ 22]   ***   
       CCORBOPT             ICCORB             OFF      [  0] x 0.01  
       CC_CONV              ICCCNV          10D-  6             ***   
       CC_EXPORDER          ICCEOR              5               ***   
       CC_EXTRAPOL          ICCEXT             DIIS     [  1]   ***   
       CC_GUESS             ICCGES         MP2          [  0]   ***   
       CC_MAXCYC            ICCCYC            100              cycles 
       CC_PROGRAM           ICCPRO         VCC          [  0]   ***   
       CHARGE               ICHRGE              0               ***   
       CHOLESKY             ICHOLE         OFF          [  0]   ***   
       CIS_CONV             ICISTL              5               ***   
       COMM_SIZE            IPSIZE            ***               ***   
       CONSTANT             ICONST         OLD          [  1]   ***   
       CONTINUUM            ICONTU         NONE         [  0]   ***   
       CONTRACTION          ICNTYP          GENERAL     [  1]   ***   
       COORDINATES          ICOORD         INTERNAL     [  0]   ***   
       CPHF_CONVER          ICPHFT          10D- 16             ***   
       CPHF_MAXCYC          ICPHFC             64              cycles 
       CUBIC                ICUBIC         OFF          [  0]   ***   
       CURVILINEAR          ICURVY            OFF       [  0]   ***   
       D3_ISOTRANS          D3ISOT         OFF          [  0]   ***   
       DBOC                 IDBOC          OFF          [  0]   ***   
       DCT                  IDCT           OFF          [  0]   ***   
       DERIV_LEV            IDRLVL            FIRST     [  1]   ***   
       DEVMEM_SIZE          IDVMEM         *********           MByte  
       DIAG_MRCC            IEOMST          10D-  0             ***   
       DIFF_TYPE            IDIFTY         RELAXED      [  0]   ***   
       DIRECT               IDIRCT         OFF          [  0]   ***   
       DROPMO               IDRPMO      NONE         
       ECP                  IECP           OFF          [  0]   ***   
       EIGENVECTOR          IVEC                1               ***   
       EL_ANHARM            IELANH         OFF          [  0]   ***   
       EOMFOLLOW            IEOMSR         ENERGY       [  0]   ***   
       EOMIP                IEOMIP         OFF          [  0]   ***   
       EOM_MRCC             IMRCCE         NEW          [  1]   ***   
       EOM_NONIT            EOMNON         OFF          [  0]   ***   
       EOM_NSING            IEOMSI          10D-  0             ***   
       EOM_NSTATES          IMRCCD         DAVIDSON     [  0]   ***   
       EOM_NTRIP            IEOMTR          10D-  0             ***   
       EOM_ORDER            IEXORD         ENERGY       [  0]   ***   
       EOM_PROPSTA          IEOMST              0               ***   
       ESTATE_CONV          IEXTOL          10D-  5             ***   
       ESTATE_DIAG          IEXDIG         ITERATIVE    [  0]   ***   
       ESTATE_LOCK          IESLOC         ON           [  1]   ***   
       ESTATE_MAXC          IEXMXC             40               ***   
       ESTATE_PROP          IEXPRP         OFF          [  0]   ***   
       EVAL_HESS            IRECAL              0            # of cyc.
       EXCITATION           IEXCIT              0               ***   
       EXCITE               IEXCIT         NONE         [  0]   ***   
       EXTERN_POT           IEXPOT         OFF          [  0]   ***   
       FCGRADNEW            IFCGNW         OFF          [  0]   ***   
       FC_FIELD             IFINFC              0             x 10-6  
       FD_CALTYPE           IFDCAL         GRADONLY     [  0]   ***   
       FD_PROJECT           IFDPRJ         OFF          [  1]   ***   
       FD_STEPSIZE          IDISFD              0            10-4 bohr
       FD_USEGROUP          IFDGRP         FULL         [  0]   ***   
       FILE_RECSIZ          IFLREC              4096           words  
       FINITE_PERT          IFIPER              0             x 10-6  
       FIXGEOM              IFIXGM         OFF          [  0]   ***   
       FOCK                 IFOCK          AO           [  1]   ***   
       FREQ_ALGORI          IVIALG         STANDARD     [  0]   ***   
       FROZEN_CORE          IFROCO         OFF          [  0]   ***   
       FROZEN_VIRT          IFROVI         OFF          [  0]   ***   
       GAMMA_ABCD           IGABCD         STORE        [  0]   ***   
       GAMMA_ABCI           IGABCI         STORE        [  0]   ***   
       GENBAS_1             IGNBS1              0               ***   
       GENBAS_2             IGNBS2              0               ***   
       GENBAS_3             IGNBS3              0               ***   
       GENBAS_4             IGNBS4              0               ***   
       GEO_CONV             ICONTL              5              H/bohr 
       GEO_MAXCYC           IOPTCY             50               ***   
       GEO_MAXSTEP          IMXSTP            300            millibohr
       GEO_METHOD           INR                NR       [  0]   ***   
       GIAO                 IGIAO          OFF          [  1]   ***   
       GIMIC                IGIMIC         OFF          [  0]   ***   
       GRID                 IGRID          OFF          [  0]   ***   
       GRID_ALGO            IGALGO         SERIAL       [  0]   ***   
       GUESS                IGUESS            MOREAD    [  0]   ***   
       HBAR                 IHBAR              OFF      [  0]   ***   
       HESS_TYPE            IHESTP         SCF          [  0]   ***   
       HF2_FILE             IHF2Fl         USE          [  1]   ***   
       HFSTABILITY          ISTABL         OFF          [  0]   ***   
       INCORE               INCORE             OFF      [  0]   ***   
       INPUT_MRCC           IMRCC          ON           [  1]   ***   
       INTEGRALS            INTTYP             VMOL     [  1]   ***   
       JODA_PRINT           IJPRNT              0               ***   
       KEYWORD_OUT          IDMPKW         NO           [  0]   ***   
       LINDEP_TOL           ILINDP              8               ***   
       LINEQ_CONV           IZTACN          10D-  7           cycles  
       LINEQ_EXPOR          ILMAXD              5               ***   
       LINEQ_MAXCY          ILMAXC            100               ***   
       LINEQ_TYPE           ILTYPE         DIIS         [  1]   ***   
       LOCK_ORBOCC          ILOCOC             OFF      [  0]   ***   
       MEMORY_SIZE          IMEMSZ         875000000           words  
       MEM_UNIT             IMEMU          GB           [  3]   ***   
       MRCC                 IMRCCC         OFF          [  0]   ***   
       MULTIPLICTY          IMULTP              1               ***   
       NACOUPLING           IVCOUP         OFF          [  0]   ***   
       NEGEVAL              IDIE             ABORT      [  0]   ***   
       NEWNORM              INEWNO         OFF          [  0]   ***   
       NON-HF               INONHF             OFF      [  0]   ***   
       NTOP_TAMP            ITOPT2             15               ***   
       NUC_MODEL            INUCMO         POINT        [  0]   ***   
       OCCUPATION           IOCCU   ESTIMATED BY SCF 
       OPEN-SHELL           IOPEN          SPIN-ORBITAL [  0]   ***   
       OPTVIB               IOPTVB         OFF          [  0]   ***   
       ORBITALS             IORBTP         SEMICANONICAL[  1]   ***   
       PARALLEL             IPARAL         ON           [  1]   ***   
       PARA_INT             IPINTS         ON           [  1]   ***   
       PARA_PRINT           IPPRIN              0               ***   
       PERT_ORB             IPTORB         CANONICAL    [  1]   ***   
       POINTS               IGRDFD              0               ***   
       PRINT                IPRNT               0               ***   
       PROPS                IPROPS             OFF      [  0]   ***   
       PROP_INTEGR          IINTYP         INTERNAL     [  0]   ***   
       PSI                  IPSI           OFF          [  0]   ***   
       QC_ALG               IQCALG         FLM          [  0]   ***   
       QC_LINALG            IQCLIN         TRIDIAG      [  2]   ***   
       QC_MAXCYC            IQCMAX          10D-100           cycles  
       QC_MAXSCFCY          IQCMSC          10D- 15           cycles  
       QC_RTRUST            IQCRTR          10D-  0           x 10-3  
       QC_SKIPSCF           IQCSKI         OFF          [  0]   ***   
       QC_START             IQCSTA          10D-  1             ***   
       QRHFGUESS            IQGUES         OFF          [  0]   ***   
       QUARTIC              IQUART         OFF          [  0]   ***   
       RAMAN_INT            IRAMIN         OFF          [  0]   ***   
       RAMAN_ORB            IRAMRE         UNRELAXED    [  0]   ***   
       RDO                  IRDOFM              ON      [  1]   ***   
       REFERENCE            IREFNC             RHF      [  0]   ***   
       RELATIVIST           IRELAT         OFF          [  0]   ***   
       RELAX_DENS           IRDENS              ON      [  1]   ***   
       RESET_FLAGS          IRESET             OFF      [  0]   ***   
       RESTART_CC           ICCRES         OFF          [  0]   ***   
       ROT_EVEC             ROTVEC              0               ***   
       SAVE_INTS            ISVINT             OFF      [  0]   ***   
       SCALE_ON             ISTCRT              0               ***   
       SCF_CONV             ISCFCV          10D-  9             ***   
       SCF_DAMPING          IDAMP               0             x 10-3  
       SCF_EXPORDE          IRPPOR              6               ***   
       SCF_EXPSTAR          IRPPLS              8               ***   
       SCF_EXTRAPO          IRPP                ON      [  1]   ***   
       SCF_MAXCYC           ISCFCY            150              cycles 
       SCF_NOSTOP           ISCFST         OFF          [  0]   ***   
       SCF_PRINT            ISCFPR              0               ***   
       SCF_PROG             ISCFPR         SCF          [  0]   ***   
       SD_FIELD             IFINSD              0             x 10-6  
       SOPERT               IPERSO         OFF          [  0]   ***   
       SPHERICAL            IDFGHI             ON       [  1]   ***   
       SPINORBIT            ISOCAL         OFF          [  0]   ***   
       SPINROTATIO          ISRCON         OFF          [  0]   ***   
       SPIN_FLIP            ISPFLP         OFF          [  0]   ***   
       SPIN_ORBIT           ISPORB         OFF          [  0]   ***   
       SPIN_SCAL            ISCSMP         OFF          [  0]   ***   
       STEEPSCALE           ISTPSC              1000          x 10-3  
       SUBGROUP             ISUBGP         DEFAULT      [  0]   ***   
       SUBGRPAXIS           ISBXYZ         X            [  0]   ***   
       SYMMETRY             ISYM             ON         [  0]   ***   
       SYM_CHECK            ISYMCK         OVERRIDE     [  1]   ***   
       T3_EXTRAPOL          IT3EXT         OFF          [  0]   ***   
       T4_EXTRAPOL          IT4EXP         OFF          [  0]   ***   
       TAMP_SUM             IEVERY              5               ***   
       TESTSUITE            ITESTS         OFF          [  0]   ***   
       THERMOCH             ITHERM         OFF          [  0]   ***   
       TOL_CHOLESK          ITOLCH          10D-  4             ***   
       TRANGRAD             IRESRM         OFF          [  0]   ***   
       TRANS_INV            ITRAIN         USE          [  0]   ***   
       TREAT_PERT           ITREAT         SIMULTANEOUS [  0]   ***   
       TRIP_ALGORI          ITRALG         NORMAL       [  0]   ***   
       UIJ_THRESHO          IUIJTH              1               ***   
       UNITS                IUNITS         BOHR         [  1]   ***   
       UNOS                 IUNOS          OFF          [  0]   ***   
       UPDATE_HESS          IHUPDT         ON           [  1]   ***   
       VIBPHASE             ISETPH         STANDARD     [  0]   ***   
       VIBRATION            IVIB              NO        [  0]   ***   
       VIB_ALGORIT          IGEALG         STANDARD     [  0]   ***   
       VNATORB              IVNORB         OFF          [  0]   ***   
       VTRAN                IVTRAN         FULL/PARTIAL [  0]   ***   
       XFIELD               IXEFLD              0             x 10-6  
       XFORM_TOL            IXFTOL          10D- 11             ***   
       YFIELD               IYEFLD              0             x 10-6  
       ZFIELD               IZEFLD              0             x 10-6  
       ZSCALE_EXP           IZEXPS         OFF          [  0]   ***   
    -------------------------------------------------------------------
   6 entries found in Z-matrix 
   Job Title : MIN4                                                                            
   There are 10 unique internal coordinates.
   Of these, 10 will be optimized.
   User supplied Z-matrix: 
--------------------------------------------------------------------------------
       SYMBOL    BOND      LENGTH    ANGLE     ANGLE     DIHED     ANGLE
                  TO      (ANGST)    WRT      (DEG)      WRT      (DEG)
--------------------------------------------------------------------------------
        C    
        O          1         R1   
        H          1         R2         2        A2   
        H          1         R3         2        A3         3        D3   
        H          1         R3         2        A3         3        D4   
        H          2         R5         1        A5         3        D5   
                  *Initial values for internal coordinates* 
                      Name             Value
                        R1              2.6965739977
                        R2              2.0816479171
                        A2            112.3015477730
                        R3              2.0745266572
                        A3            109.3669652716
                        D3           -121.3954018697
                        D4            119.9955496866
                        R5              1.8364715965
                        A5            106.9392437608
                        D5           -179.9645221187
--------------------------------------------------------------------------------
  1  C          6    12.00000
  2  O          8    15.99491
  3  H          1     1.00783
  4  H          1     1.00783
  5  H          1     1.00783
  6  H          1     1.00783
   Rotational constants (in cm-1): 
          0.7904965512             0.8213439820             4.2170457253
   Rotational constants (in MHz): 
      23698.4937324053         24623.2765734199        126423.8680615905
********************************************************************************
   The full molecular point group is C1  .
   The largest Abelian subgroup of the full molecular point group is C1  .
   The computational point group is C1  .
********************************************************************************
--------------------------------------------------------------------------------
   Analysis of internal coordinates specified by Z-matrix 
--------------------------------------------------------------------------------
   *The nuclear repulsion energy is   40.089975045366664 a.u.
  *ERROR* Parameters  8 and  5 are not equivalent [both called A3   ].
  *ERROR* Parameters  4 and  7 are not equivalent [both called R3   ].
   *There are  12 degrees of freedom within the tot. symm. molecular subspace.
   *Z-matrix requests optimization of  10 coordinates.
   *The optimization is constrained.
   *The following  12 parameters can have non-zero 
    derivatives within the totally symmetric subspace:
             D5   [12]  D4   [ 9]  D3   [ 6]  A2   [ 3]  A3   [ 8]  A3   [ 5]
             A5   [11]  R2   [ 2]  R3   [ 4]  R3   [ 7]  R5   [10]  R1   [ 1]
   *The following  10 parameters are to be optimized:
             R1   [ 1]  R2   [ 2]  A2   [ 3]  R3   [ 4]  A3   [ 5]  D3   [ 6]
             D4   [ 9]  R5   [10]  A5   [11]  D5   [12]
   *The following coordinates must be varied in an  unconstrained optimization.

--------------------------------------------------------------------------------
 ----------------------------------------------------------------
 Z-matrix   Atomic            Coordinates (in bohr)
  Symbol    Number           X              Y              Z
 ----------------------------------------------------------------
     C         6        -1.38134146    -0.02046975     0.00164781
     O         8         1.31093333     0.13173998     0.00164512
     H         1        -2.27872727     1.85760337     0.02989865
     H         1        -2.00926553    -1.10158535     1.65711187
     H         1        -2.01437603    -1.01125054    -1.70752787
     H         1         1.94430171    -1.59184672    -0.02521212
 ----------------------------------------------------------------
   Interatomic distance matrix (Angstroms) 
 
                 C             O             H             H             H    
                [ 1]        [ 2]        [ 3]        [ 4]        [ 5]
  C    [ 1]     0.00000
  O    [ 2]     1.42697     0.00000
  H    [ 3]     1.10156     2.10776     0.00000
  H    [ 4]     1.09779     2.06890     1.79275     0.00000
  H    [ 5]     1.09779     2.06890     1.78034     1.78113     0.00000
  H    [ 6]     1.94647     0.97182     2.88563     2.28842     2.29680
 
                 H    
                [ 6]
  H    [ 6]     0.00000
   Rotational constants (in cm-1): 
          4.2170457253             0.8213439820             0.7904965512
   Rotational constants (in MHz): 
     126423.8680615905         24623.2765734199         23698.4937324052
  There are   48 basis functions.
  @CHECKOUT-I, Total execution time (CPU/WALL):        0.08/       0.13 seconds.
--executable xjoda finished with status     0 in        0.14 seconds (walltime).
 --invoking executable--
/opt/vulcan/opt/vulcan/linux-x86_64/intel-13.0.0/cfour-2.0-yhj426etc3g7hslvbmpgvdymp2w76rob/bin/xvmol
 Serial version of molecule started
********************************************************************************
                    Input from MOL file
********************************************************************************
INTGRL        1    0    1    0    0    0    0    0    0                         
         *** CFOUR Program System (Release V0.1) ***                            
MIN4                                                                            
    6    0            0.10E-08              0    0                              
   9999.00      3.00                                                            
          6.00000000    1    3    1    1    1                                   
C #1  -1.381341458953568  -0.020469751876251   0.001647808324468                
    9    3                                                                      
   6665.00000000000       6.920000000000000E-004 -1.460000000000000E-004        
  0.000000000000000E+000                                                        
   1000.00000000000       5.329000000000000E-003 -1.154000000000000E-003        
  0.000000000000000E+000                                                        
   228.000000000000       2.707700000000000E-002 -5.725000000000000E-003        
  0.000000000000000E+000                                                        
   64.7100000000000       0.101718000000000      -2.331200000000000E-002        
  0.000000000000000E+000                                                        
   21.0600000000000       0.274740000000000      -6.395500000000000E-002        
  0.000000000000000E+000                                                        
   7.49500000000000       0.448564000000000      -0.149981000000000             
  0.000000000000000E+000                                                        
   2.79700000000000       0.285074000000000      -0.127262000000000             
  0.000000000000000E+000                                                        
  0.521500000000000       1.520400000000000E-002  0.544529000000000             
  0.000000000000000E+000                                                        
  0.159600000000000      -3.191000000000000E-003  0.580496000000000             
   1.00000000000000                                                             
    4    2                                                                      
   9.43900000000000       3.810900000000000E-002  0.000000000000000E+000        
   2.00200000000000       0.209480000000000       0.000000000000000E+000        
  0.545600000000000       0.508557000000000       0.000000000000000E+000        
  0.151700000000000       0.468842000000000        1.00000000000000             
    1    1                                                                      
  0.550000000000000        1.00000000000000                                     
          8.00000000    1    3    1    1    1                                   
O #2   1.310933326885173   0.131739979660092   0.001645122706600                
    9    3                                                                      
   11720.0000000000       7.100000000000000E-004 -1.600000000000000E-004        
  0.000000000000000E+000                                                        
   1759.00000000000       5.470000000000000E-003 -1.263000000000000E-003        
  0.000000000000000E+000                                                        
   400.800000000000       2.783700000000000E-002 -6.267000000000000E-003        
  0.000000000000000E+000                                                        
   113.700000000000       0.104800000000000      -2.571600000000000E-002        
  0.000000000000000E+000                                                        
   37.0300000000000       0.283062000000000      -7.092400000000000E-002        
  0.000000000000000E+000                                                        
   13.2700000000000       0.448719000000000      -0.165411000000000             
  0.000000000000000E+000                                                        
   5.02500000000000       0.270952000000000      -0.116955000000000             
  0.000000000000000E+000                                                        
   1.01300000000000       1.545800000000000E-002  0.557368000000000             
  0.000000000000000E+000                                                        
  0.302300000000000      -2.585000000000000E-003  0.572759000000000             
   1.00000000000000                                                             
    4    2                                                                      
   17.7000000000000       4.301800000000000E-002  0.000000000000000E+000        
   3.85400000000000       0.228913000000000       0.000000000000000E+000        
   1.04600000000000       0.508728000000000       0.000000000000000E+000        
  0.275300000000000       0.460531000000000        1.00000000000000             
    1    1                                                                      
   1.18500000000000        1.00000000000000                                     
          1.00000000    1    2    1    1                                        
H #3  -2.278727265794892   1.857603370880087   0.029898652181470                
    4    2                                                                      
   13.0100000000000       1.968500000000000E-002  0.000000000000000E+000        
   1.96200000000000       0.137977000000000       0.000000000000000E+000        
  0.444600000000000       0.478148000000000       0.000000000000000E+000        
  0.122000000000000       0.501240000000000        1.00000000000000             
    1    1                                                                      
  0.727000000000000        1.00000000000000                                     
          1.00000000    1    2    1    1                                        
H #4  -2.009265528337717  -1.101585353773138   1.657111873144476                
    4    2                                                                      
   13.0100000000000       1.968500000000000E-002  0.000000000000000E+000        
   1.96200000000000       0.137977000000000       0.000000000000000E+000        
  0.444600000000000       0.478148000000000       0.000000000000000E+000        
  0.122000000000000       0.501240000000000        1.00000000000000             
    1    1                                                                      
  0.727000000000000        1.00000000000000                                     
          1.00000000    1    2    1    1                                        
H #5  -2.014376029414687  -1.011250544578447  -1.707527871616221                
    4    2                                                                      
   13.0100000000000       1.968500000000000E-002  0.000000000000000E+000        
   1.96200000000000       0.137977000000000       0.000000000000000E+000        
  0.444600000000000       0.478148000000000       0.000000000000000E+000        
  0.122000000000000       0.501240000000000        1.00000000000000             
    1    1                                                                      
  0.727000000000000        1.00000000000000                                     
          1.00000000    1    2    1    1                                        
H #6   1.944301709539365  -1.591846718288748  -0.025212116206719                
    4    2                                                                      
   13.0100000000000       1.968500000000000E-002  0.000000000000000E+000        
   1.96200000000000       0.137977000000000       0.000000000000000E+000        
  0.444600000000000       0.478148000000000       0.000000000000000E+000        
  0.122000000000000       0.501240000000000        1.00000000000000             
    1    1                                                                      
  0.727000000000000        1.00000000000000                                     
FINISH                                                                          
 
********************************************************************************
 One- and two-electron integrals over symmetry-adapted AOs are calculated.

  Spherical harmonics are used.
  
  Integrals less than  0.10E-13 are neglected.

  Nuclear repulsion energy :   40.0899750454 a.u.
  required memory for a1 array                5013204  words 
  required memory for a2 array                2046060  words 
 @GETMEM-I,  Allocated      69 MB of main memory.
  @MOLECU-I, One electron integrals (CPU/WALL):        0.01/       0.01 seconds.
  @TWOEL-I,     682148 integrals of symmetry type  I I I I
  @TWOEL-I, Total number of 2-e integrals     682148.
  @MOLECU-I, Two electron integrals (CPU/WALL):        0.95/       0.35 seconds.
  @CHECKOUT-I, Total execution time (CPU/WALL):        0.96/       0.37 seconds.
--executable xvmol finished with status     0 in        0.43 seconds (walltime).
 --invoking executable--
/opt/vulcan/opt/vulcan/linux-x86_64/intel-13.0.0/cfour-2.0-yhj426etc3g7hslvbmpgvdymp2w76rob/bin/xvmol2ja
 @GETMEM-I,  Allocated    6675 MB of main memory.
  @CHECKOUT-I, Total execution time (CPU/WALL):        0.01/       0.00 seconds.
--executable xvmol2ja finished with status     0 in        0.22 seconds (walltime).
 --invoking executable--
/opt/vulcan/opt/vulcan/linux-x86_64/intel-13.0.0/cfour-2.0-yhj426etc3g7hslvbmpgvdymp2w76rob/bin/xvscf
  There are   48 functions in the AO basis.

  There are 1 irreducible representations.

       Irrep        # of functions
         1                 48


  Parameters for SCF calculation: 
        SCF reference function:  RHF  
  Maximum number of iterations:  150
     Full symmetry point group: C1  
     Computational point group: C1  
        Initial density matrix: MOREAD                 
     SCF convergence tolerance: 10**(- 9)
  DIIS convergence acceleration:  ON
          Latest start for DIIS:   8
                     DIIS order:   6

  Memory information:     143849 words required.
  Fock matrices are constructed from AO integral file.
 @GETMEM-I,  Allocated       1 MB of main memory.
  Initialization and symmetry analysis required      0.001 seconds.

  @INITGES-I, Occupancies from core Hamiltonian:

          Alpha population by irrep:   9
           Beta population by irrep:   9


 read in density matrix from initden.dat
 unsymmetric error:  0.000000000000000E+000
 total no. of electrons in initial guess :   15.6724673161326     
  --------------------------------------------------------------------
  Iteration         Total Energy            Largest Density Difference
  --------------------------------------------------------------------
       0          -112.200313811491441              0.0000000000D+00
       1          -114.541042582890753              0.1434530879D+01
       2          -114.950559050241168              0.1571881593D+01
       3          -115.024151192984533              0.6614456573D+00
       4          -115.040921414413816              0.3086450334D+00
       5          -115.046844641923570              0.9592616228D-01
       6          -115.046875196943830              0.7317889004D-02
       7          -115.046877312684870              0.1889505849D-02
       8          -115.046877401195331              0.3755184829D-03
       9          -115.046877405244913              0.5761134577D-04
      10          -115.046877405343508              0.6694764564D-05
      11          -115.046877405353257              0.2996978329D-05
      12          -115.046877405354422              0.8926971190D-06
      13          -115.046877405354280              0.4072274686D-06
      14          -115.046877405354564              0.1646842215D-06
      15          -115.046877405354081              0.3615385880D-07
      16          -115.046877405354337              0.6740027647D-08
      17          -115.046877405354650              0.1424254270D-08

  SCF has converged.

 Density matrix saved to file den.dat
 total electron number:   18.0000000000000     
     E(SCF)=      -115.046877405354422              0.3499475779D-09

  Eigenvector printing suppressed.

 @PUTMOS-I, Writing converged MOs to NEWMOS. 
 @PUTMOS-I, Symmetry   1 Full Blocks 12 Partial Blocksize   0
  @DMPJOB-I, Rotating orbitals to semicanonical basis.
             *** Eigenvalues correspond to new basis. ***



 
  ORBITAL EIGENVALUES (ALPHA)  (1H = 27.2113838 eV)

       MO #        E(hartree)               E(eV)           FULLSYM    COMPSYM
       ----   --------------------   --------------------   -------   ---------
    1     1         -20.5495585760        -559.1819257347       A         A (1)
    2     2         -11.2779339310        -306.8881888870       A         A (1)
    3     3          -1.3446833136         -36.5906937623       A         A (1)
    4     4          -0.9177128241         -24.9722358922       A         A (1)
    5     5          -0.6757560087         -18.3882561223       A         A (1)
    6     6          -0.6129264743         -16.6785775451       A         A (1)
    7     7          -0.5884523689         -16.0126032686       A         A (1)
    8     8          -0.4936808178         -13.4337382173       A         A (1)
    9     9          -0.4404427644         -11.9850571127       A         A (1)
  +++++++++++++++++++++++++++++++++++++++++++++++++++++++++++++++++++++++++++++
   10    10           0.1821262203           4.9559064855       A         A (1)
   11    11           0.2210769300           6.0158091953       A         A (1)
   12    12           0.2645878791           7.1998023335       A         A (1)
   13    13           0.2703846912           7.3575416123       A         A (1)
   14    14           0.3591519727           9.7730221789       A         A (1)
   15    15           0.6333190249          17.2334870678       A         A (1)
   16    16           0.6375191090          17.3477771664       A         A (1)
   17    17           0.7245469905          19.7159262533       A         A (1)
   18    18           0.7988689257          21.7383289599       A         A (1)
   19    19           0.8593334091          23.3836512231       A         A (1)
   20    20           0.8909604904          24.2442678735       A         A (1)
   21    21           0.8966784253          24.3998607940       A         A (1)
   22    22           1.1119820337          30.2585699194       A         A (1)
   23    23           1.1454554023          31.1694265996       A         A (1)
   24    24           1.1709379805          31.8628428171       A         A (1)
   25    25           1.2774517966          34.7612311471       A         A (1)
   26    26           1.3334493848          36.2850030137       A         A (1)
   27    27           1.4423083261          39.2472054483       A         A (1)
   28    28           1.5945705392          43.3904709687       A         A (1)
   29    29           1.6562322888          45.0683725036       A         A (1)
   30    30           1.6708769343          45.4668735752       A         A (1)
   31    31           1.8571374200          50.5352791413       A         A (1)
   32    32           1.8952158729          51.5714465395       A         A (1)
   33    33           1.9029619359          51.7822276329       A         A (1)
   34    34           1.9526114392          53.1332593234       A         A (1)
   35    35           2.0310212628          55.2668991272       A         A (1)
   36    36           2.1581916085          58.7273802140       A         A (1)
   37    37           2.3042625357          62.7021722801       A         A (1)
   38    38           2.3482210291          63.8983437169       A         A (1)
   39    39           2.3591414639          64.1955038576       A         A (1)
   40    40           2.4972643021          67.9540174246       A         A (1)
   41    41           2.7386885392          74.5235050036       A         A (1)
   42    42           2.7494221488          74.8155813717       A         A (1)
   43    43           2.7534907534          74.9262937340       A         A (1)
   44    44           3.3020820608          89.8542223597       A         A (1)
   45    45           3.3739025519          91.8085573109       A         A (1)
   46    46           3.4468316548          93.7930591202       A         A (1)
   47    47           3.5777955958          97.3567691854       A         A (1)
   48    48           4.0728562824         110.8280555422       A         A (1)


  VSCF finished.

  @CHECKOUT-I, Total execution time (CPU/WALL):        0.82/       0.21 seconds.
--executable xvscf finished with status     0 in        0.42 seconds (walltime).
 --invoking executable--
/opt/vulcan/opt/vulcan/linux-x86_64/intel-13.0.0/cfour-2.0-yhj426etc3g7hslvbmpgvdymp2w76rob/bin/xvtran
 @GETMEM-I,  Allocated    6675 MB of main memory.
  Full RHF integral transformation
  Transformation of IIII integrals :
  1 pass through the AO integral file was required.
      682148 AO integrals were read.
      692076 MO integrals were written to HF2.
  Summary of active molecular orbitals: 
------------------------------------------------------------------------
 
  Index      Eigenvalue    Symmetry    Index      Eigenvalue    Symmetry
------------------------------------------------------------------------
     1       -20.5495586        1        25         1.2774518        1
     2       -11.2779339        1        26         1.3334494        1
     3        -1.3446833        1        27         1.4423083        1
     4        -0.9177128        1        28         1.5945705        1
     5        -0.6757560        1        29         1.6562323        1
     6        -0.6129265        1        30         1.6708769        1
     7        -0.5884524        1        31         1.8571374        1
     8        -0.4936808        1        32         1.8952159        1
     9        -0.4404428        1        33         1.9029619        1
    10         0.1821262        1        34         1.9526114        1
    11         0.2210769        1        35         2.0310213        1
    12         0.2645879        1        36         2.1581916        1
    13         0.2703847        1        37         2.3042625        1
    14         0.3591520        1        38         2.3482210        1
    15         0.6333190        1        39         2.3591415        1
    16         0.6375191        1        40         2.4972643        1
    17         0.7245470        1        41         2.7386885        1
    18         0.7988689        1        42         2.7494221        1
    19         0.8593334        1        43         2.7534908        1
    20         0.8909605        1        44         3.3020821        1
    21         0.8966784        1        45         3.3739026        1
    22         1.1119820        1        46         3.4468317        1
    23         1.1454554        1        47         3.5777956        1
    24         1.1709380        1        48         4.0728563        1
------------------------------------------------------------------------
  @CHECKOUT-I, Total execution time (CPU/WALL):        1.19/       0.41 seconds.
--executable xvtran finished with status     0 in        0.62 seconds (walltime).
 --invoking executable--
/opt/vulcan/opt/vulcan/linux-x86_64/intel-13.0.0/cfour-2.0-yhj426etc3g7hslvbmpgvdymp2w76rob/bin/xintprc
 @GETMEM-I,  Allocated    6675 MB of main memory.
  @GMOIAA-I, Processing MO integrals for spin case AA.
  @GMOIAA-I, Generation of integral list completed.
                      TYPE                NUMBER
                      ----               --------
                      PPPP                304590
                      PPPH                273780
                      PPHH                 61776
                      PHPH                 35100
                      PHHH                 15795
                      HHHH                  1035

                     TOTAL                692076

  @FORMT2-I, Second-order MP correlation energies:
            ------------------------------------------------
            E(SCF)                  =   -115.046877405354 a.u.
            E2(AA)                  =     -0.040755495738 a.u.
            E2(AB)                  =     -0.262535102196 a.u.
            E2(TOT)                 =     -0.344046093673 a.u.
            Total MP2 energy        =   -115.390923499027 a.u.
            ------------------------------------------------
   Largest T2 amplitudes for spin case AB:
       _       _                 _       _                 _       _
   i   j   a   b             i   j   a   b             i   j   a   b
-----------------------------------------------------------------------------
[  7   7  17  17]-0.02223 [  9   9  23  23]-0.02038 [  7   7  14  14]-0.02014
[  6   6  19  19]-0.01910 [  9   9  26  26]-0.01850 [  6   6  12  12]-0.01816
[  5   5  18  18]-0.01701 [  5   5  14  14]-0.01634 [  8   8  22  22]-0.01550
[  6   6  19  12] 0.01463 [  6   6  12  19] 0.01463 [  6   6  23  23]-0.01418
[  7   7  25  25]-0.01387 [  7   7  17  14] 0.01309 [  7   7  14  17] 0.01309
-----------------------------------------------------------------------------
   Norm of T2AB vector (   123201 symmetry allowed elements):  0.2732926649.
-----------------------------------------------------------------------------
  @CHECKOUT-I, Total execution time (CPU/WALL):        0.18/       0.07 seconds.
--executable xintprc finished with status     0 in        0.24 seconds (walltime).
  calling xvcc 
 --invoking executable--
/opt/vulcan/opt/vulcan/linux-x86_64/intel-13.0.0/cfour-2.0-yhj426etc3g7hslvbmpgvdymp2w76rob/bin/xvcc
 @GETMEM-I,  Allocated    6675 MB of main memory.
   CCSD(T) energy will be calculated.
   The total correlation energy is -0.344046093673 a.u.
   The total correlation energy is -0.358569684762 a.u.
  Convergence information after     1 iterations: 
  Largest element of residual vector : -0.58878942E-02.
  Largest element of DIIS residual   : -0.58878942E-02.
   The total correlation energy is -0.366129928994 a.u.
  Convergence information after     2 iterations: 
  Largest element of residual vector : -0.16308556E-02.
  Largest element of DIIS residual   : -0.16902644E-02.
   The total correlation energy is -0.367856661932 a.u.
  Convergence information after     3 iterations: 
  Largest element of residual vector :  0.13219902E-02.
  Largest element of DIIS residual   :  0.99979874E-03.
   The total correlation energy is -0.368572037650 a.u.
  Convergence information after     4 iterations: 
  Largest element of residual vector :  0.19854015E-03.
  Largest element of DIIS residual   :  0.19032632E-03.
   The total correlation energy is -0.368636856866 a.u.
  Convergence information after     5 iterations: 
  Largest element of residual vector :  0.16028265E-03.
  Largest element of DIIS residual   :  0.91026514E-04.
   The total correlation energy is -0.368646388923 a.u.
  Convergence information after     6 iterations: 
  Largest element of residual vector :  0.53306068E-04.
  Largest element of DIIS residual   :  0.44043238E-04.
   The total correlation energy is -0.368646657688 a.u.
  Convergence information after     7 iterations: 
  Largest element of residual vector :  0.21607393E-04.
  Largest element of DIIS residual   :  0.11662271E-04.
   The total correlation energy is -0.368646047170 a.u.
  Convergence information after     8 iterations: 
  Largest element of residual vector :  0.87778892E-05.
  Largest element of DIIS residual   :  0.50788677E-05.
   The total correlation energy is -0.368646301575 a.u.
  Convergence information after     9 iterations: 
  Largest element of residual vector :  0.26959427E-05.
  Largest element of DIIS residual   :  0.16412651E-05.
   The total correlation energy is -0.368646450894 a.u.
  Convergence information after    10 iterations: 
  Largest element of residual vector :  0.10256513E-05.
  Largest element of DIIS residual   :  0.34875139E-06.
   The total correlation energy is -0.368646538463 a.u.
  Convergence information after    11 iterations: 
  Largest element of residual vector :  0.25572116E-06.
  Largest element of DIIS residual   :  0.19308276E-06.
  Amplitude equations converged in    11iterations.
   The total correlation energy is -0.368646554878 a.u.
   The CC iterations have converged.

   Largest T1 amplitudes for spin case AA:
   i       a                 i       a                 i       a    
-----------------------------------------------------------------------------
[  9      12    ] 0.00719 [  7      14    ]-0.00695 [  5      14    ]-0.00590
[  6      19    ] 0.00590 [  7      17    ] 0.00542 [  6      12    ]-0.00539
[  7      33    ]-0.00534 [  8      18    ]-0.00516 [  8      13    ]-0.00515
[  8      11    ]-0.00512 [  6      15    ] 0.00478 [  6      16    ]-0.00472
[  7      13    ]-0.00469 [  5      37    ]-0.00467 [  5      40    ] 0.00428
-----------------------------------------------------------------------------
   Norm of T1AA vector (      351 symmetry allowed elements):  0.0294958440.
-----------------------------------------------------------------------------
   Largest T2 amplitudes for spin case AB:
       _       _                 _       _                 _       _
   i   j   a   b             i   j   a   b             i   j   a   b
-----------------------------------------------------------------------------
[  7   7  17  17]-0.02410 [  7   7  14  14]-0.02379 [  6   6  19  19]-0.02264
[  9   9  23  23]-0.02148 [  6   6  12  12]-0.02125 [  9   9  26  26]-0.01989
[  5   5  18  18]-0.01951 [  5   5  14  14]-0.01876 [  6   6  19  12] 0.01815
[  6   6  12  19] 0.01815 [  7   7  20  20]-0.01630 [  7   7  17  14] 0.01628
[  7   7  14  17] 0.01628 [  8   8  22  22]-0.01625 [  6   6  23  23]-0.01590
-----------------------------------------------------------------------------
   Norm of T2AB vector (   123201 symmetry allowed elements):  0.3145960573.
-----------------------------------------------------------------------------
       Summary of iterative solution of CC equations 
      -----------------------------------------------------------
                       Correlation           Total
       Iteration         Energy              Energy
      -----------------------------------------------------------
            0        -0.344046093673    -115.390923499027  DIIS 
            1        -0.358569684762    -115.405447090116  DIIS 
            2        -0.366129928994    -115.413007334349  DIIS 
            3        -0.367856661932    -115.414734067287  DIIS 
            4        -0.368572037650    -115.415449443005  DIIS 
            5        -0.368636856866    -115.415514262221  DIIS 
            6        -0.368646388923    -115.415523794277  DIIS 
            7        -0.368646657688    -115.415524063043  DIIS 
            8        -0.368646047170    -115.415523452525  DIIS 
            9        -0.368646301575    -115.415523706929  DIIS 
           10        -0.368646450894    -115.415523856248  DIIS 
           11        -0.368646554878    -115.415523960233  DIIS 
      -----------------------------------------------------------
      A miracle has come to pass. The CC iterations have converged.
        E(CCSD)           =    -115.415523960233
        E(CCSD + T(CCSD)) =    -115.423686554794
        E(CCSD(T))        =    -115.423394142809
  @CHECKOUT-I, Total execution time (CPU/WALL):       13.56/       3.40 seconds.
--executable xvcc finished with status     0 in        3.42 seconds (walltime).
 --invoking executable--
/opt/vulcan/opt/vulcan/linux-x86_64/intel-13.0.0/cfour-2.0-yhj426etc3g7hslvbmpgvdymp2w76rob/bin/xlambda
 @GETMEM-I,  Allocated    6675 MB of main memory.
  The Lambda equations are solved for CCSD(T).
  Initial lambda amplitudes: 
  Convergence information after     1 iterations: 
  Largest element of residual vector :  0.38796600E-02.
  Largest element of DIIS residual   :  0.38796600E-02.
  Convergence information after     2 iterations: 
  Largest element of residual vector :  0.12859206E-02.
  Largest element of DIIS residual   :  0.86849465E-03.
  Convergence information after     3 iterations: 
  Largest element of residual vector : -0.21010770E-03.
  Largest element of DIIS residual   :  0.14919801E-03.
  Convergence information after     4 iterations: 
  Largest element of residual vector :  0.11251332E-03.
  Largest element of DIIS residual   :  0.94753624E-04.
  Convergence information after     5 iterations: 
  Largest element of residual vector :  0.38371172E-04.
  Largest element of DIIS residual   : -0.19044238E-04.
  Convergence information after     6 iterations: 
  Largest element of residual vector :  0.14498954E-04.
  Largest element of DIIS residual   :  0.86013179E-05.
  Convergence information after     7 iterations: 
  Largest element of residual vector : -0.45593456E-05.
  Largest element of DIIS residual   :  0.30325153E-05.
  Convergence information after     8 iterations: 
  Largest element of residual vector :  0.17805277E-05.
  Largest element of DIIS residual   :  0.87080865E-06.
  Convergence information after     9 iterations: 
  Largest element of residual vector :  0.67903285E-06.
  Largest element of DIIS residual   :  0.38619699E-06.
  Convergence information after    10 iterations: 
  Largest element of residual vector :  0.23978572E-06.
  Largest element of DIIS residual   :  0.12024563E-06.
  Convergence information after    11 iterations: 
  Largest element of residual vector :  0.86419472E-07.
  Largest element of DIIS residual   : -0.49181931E-07.
  Amplitude equations converged in    11 iterations.
      The lambda equations have converged.
  @CHECKOUT-I, Total execution time (CPU/WALL):        3.08/       0.78 seconds.
--executable xlambda finished with status     0 in        0.82 seconds (walltime).
 --invoking executable--
/opt/vulcan/opt/vulcan/linux-x86_64/intel-13.0.0/cfour-2.0-yhj426etc3g7hslvbmpgvdymp2w76rob/bin/xdens
 @GETMEM-I,  Allocated    6675 MB of main memory.
  CCSD(T) density and intermediates are calculated.
  The perturbed orbitals are chosen canonical.
  The iterative expansion of D(ai) converged after  20 iterations.
  ----------------------------------------------------------------------
                 Natural orbital occupation numbers
  ----------------------------------------------------------------------
  1.99992  1.99981  1.98360  1.97153  1.97080  1.96339  1.95668  1.95613
  1.95129  0.03746  0.02879  0.02652  0.02439  0.02062  0.01648  0.01273
  0.00878  0.00861  0.00777  0.00722  0.00688  0.00519  0.00483  0.00475
  0.00329  0.00318  0.00240  0.00223  0.00174  0.00164  0.00160  0.00123
  0.00122  0.00117  0.00086  0.00079  0.00076  0.00066  0.00064  0.00060
  0.00043  0.00040  0.00035  0.00025  0.00011  0.00011  0.00009  0.00007
  Trace of density matrix :  18.0000000000.
  ----------------------------------------------------------------------
  Density calculation successfully completed.
  @CHECKOUT-I, Total execution time (CPU/WALL):        0.79/       0.20 seconds.
--executable xdens finished with status     0 in        0.22 seconds (walltime).
 --invoking executable--
/opt/vulcan/opt/vulcan/linux-x86_64/intel-13.0.0/cfour-2.0-yhj426etc3g7hslvbmpgvdymp2w76rob/bin/xanti
 @GETMEM-I,  Allocated    6675 MB of main memory.
 CCSD(T) MO gammas will be sorted to Mulliken order.
  @CHECKOUT-I, Total execution time (CPU/WALL):        0.26/       0.07 seconds.
--executable xanti finished with status     0 in        0.23 seconds (walltime).
 --invoking executable--
/opt/vulcan/opt/vulcan/linux-x86_64/intel-13.0.0/cfour-2.0-yhj426etc3g7hslvbmpgvdymp2w76rob/bin/xbcktrn
 @GETMEM-I,  Allocated    6675 MB of main memory.
  @CHECKOUT-I, Total execution time (CPU/WALL):        0.23/       0.07 seconds.
--executable xbcktrn finished with status     0 in        0.23 seconds (walltime).
 --invoking executable--
/opt/vulcan/opt/vulcan/linux-x86_64/intel-13.0.0/cfour-2.0-yhj426etc3g7hslvbmpgvdymp2w76rob/bin/xvdint
 @GETMEM-I,  Allocated    6675 MB of main memory.
 One- and two-electron integral derivatives are calculated
 for RHF-CC/MBPT gradients and dipole moments.
 Spherical gaussians are used.

                     Kinetic energy integral gradient
                     --------------------------------

 C #1       0.1305955275           -0.0199857795           -0.0074804711
 O #2      -0.3391058690           -0.6822056457           -0.0098388917
 H #3       0.2037566260           -0.3895170592           -0.0043713893
 H #4       0.1299707975            0.2250067530           -0.3409834797
 H #5       0.1317957202            0.2047809567            0.3524546898
 H #6      -0.2570128021            0.6619207746            0.0102195420



                   Nuclear attraction integral gradient
                   ------------------------------------

 C #1     -10.7157931309           -0.0475601630            0.0880069200
 O #2      14.9360744487            7.6951430882            0.1055170405
 H #3      -3.1082795658            4.8020287072            0.0543796034
 H #4      -2.2276288297           -2.7917467987            4.2091463413
 H #5      -2.2491993691           -2.5397194280           -4.3467704879
 H #6       3.3648264468           -7.1181454057           -0.1102794173



                      Reorthonormalization gradient
                      -----------------------------

 C #1       0.0813943609            0.0129759922           -0.0038987603
 O #2      -0.2008617964           -0.3607115649           -0.0050483440
 H #3       0.1032196650           -0.1971355469           -0.0019489771
 H #4       0.0638353548            0.1109573285           -0.1657197138
 H #5       0.0648904978            0.1007920334            0.1714859805
 H #6      -0.1124780821            0.3331217578            0.0051298147



                Electronic contributions to dipole moment
                -----------------------------------------

                               au             Debye

                    x      1.82572944      4.64054216
                    y      0.35800387      0.90995522
                    z      0.01369646      0.03481294

  Conversion factor used: 1 a.u. =   2.54174691 Debye 


  Evaluation of 1e integral derivatives required    0.08 seconds.
  Evaluation of 2el integral derivatives

                      Two-electron integral gradient
                      ------------------------------

 C #1       4.9445503835            0.0277722034           -0.0545739083
 O #2      -7.2819103722           -3.9619855550           -0.0526548583
 H #3       1.7024133068           -2.5781987599           -0.0227222034
 H #4       1.1340500250            1.4932142628           -2.2231513863
 H #5       1.1483780400            1.3518602183            2.2967164239
 H #6      -1.6474813831            3.6673376304            0.0563859324


  Evaluation of 2e integral derivatives required    1.45 seconds.

                            Molecular gradient
                            ------------------

 C #1      -0.0120485529            0.0131908908            0.0015041072
 O #2      -0.0023693813           -0.0082159208           -0.0003207161
 H #3      -0.0076201599           -0.0032574850           -0.0011467785
 H #4       0.0085052945            0.0014978574           -0.0057458298
 H #5       0.0080473507            0.0024326350            0.0057587779
 H #6       0.0054854489           -0.0056479774           -0.0000495607


  Molecular gradient norm 0.272E-01

                           Total dipole moment
                           -------------------

                               au             Debye

                    x     -0.33291981     -0.84619791
                    y     -0.55797405     -1.41822882
                    z     -0.00898517     -0.02283803

  Conversion factor used: 1 a.u. =   2.54174691 Debye 


  @CHECKOUT-I, Total execution time (CPU/WALL):        1.53/       0.97 seconds.
--executable xvdint finished with status     0 in        1.03 seconds (walltime).
 --invoking executable--
/opt/vulcan/opt/vulcan/linux-x86_64/intel-13.0.0/cfour-2.0-yhj426etc3g7hslvbmpgvdymp2w76rob/bin/xjoda
 @GETREC: requested length of vector OCCUPYA0 is longer than actual
 Actual --                      1  Requested --                      8
   JODA beginning optimization cycle #  1.
  igrd and ihes are                      0                     0
  fetching hessian                    324
  @CONVQ-W, Nominally equivalent internal coordinate gradients vary by at least .21093E-03.
   Problem with gradients equivalent to parameter [  4].
  @CONVQ-W, Nominally equivalent internal coordinate gradients vary by at least .59851E-03.
   Problem with gradients equivalent to parameter [  5].
   Internal coordinate forces and energy gradients (atomic units): 
           R       dV/dR             R       dV/dR             R       dV/dR
 [R1   ]  2.69657  0.0023285 [R2   ]  2.08165  0.0003305 [A2   ]  1.96003  0.0172491
 [R3   ]  2.07453 -0.0081511 [A3   ]  1.90881 -0.0124703 [D3   ] -2.11875 -0.0043174
 [R3   ]  2.07453 -0.0081511 [A3   ]  1.90881 -0.0124703 [D4   ]  2.09432  0.0021160
 [R5   ]  1.83647  0.0071934 [A5   ]  1.86644  0.0058784 [D5   ] -3.14097 -0.0000727
                     0                     0                     0 ****
   Optimization cycle  1.  Updating structure with Newton-Raphson step.
  @EFOL-I, Current internal coordinate Hessian written to FCMINT.
   There are  10 independent internal coordinates which will be optimized.
   Hessian matrix in totally symmetric symmetry coordinates: 
              R1        R2        A2        R3        A3   
  R1         1.000000  0.000000  0.000000  0.000000  0.000000
  R2         0.000000  1.000000  0.000000  0.000000  0.000000
  A2         0.000000  0.000000  0.250000  0.000000  0.000000
  R3         0.000000  0.000000  0.000000  1.000000  0.000000
  A3         0.000000  0.000000  0.000000  0.000000  0.250000
  D3         0.000000  0.000000  0.000000  0.000000  0.000000
  D4         0.000000  0.000000  0.000000  0.000000  0.000000
  R5         0.000000  0.000000  0.000000  0.000000  0.000000
  A5         0.000000  0.000000  0.000000  0.000000  0.000000
  D5         0.000000  0.000000  0.000000  0.000000  0.000000
 
              D3        D4        R5        A5        D5   
  R1         0.000000  0.000000  0.000000  0.000000  0.000000
  R2         0.000000  0.000000  0.000000  0.000000  0.000000
  A2         0.000000  0.000000  0.000000  0.000000  0.000000
  R3         0.000000  0.000000  0.000000  0.000000  0.000000
  A3         0.000000  0.000000  0.000000  0.000000  0.000000
  D3         0.100000  0.000000  0.000000  0.000000  0.000000
  D4         0.000000  0.100000  0.000000  0.000000  0.000000
  R5         0.000000  0.000000  1.000000  0.000000  0.000000
  A5         0.000000  0.000000  0.000000  0.250000  0.000000
  D5         0.000000  0.000000  0.000000  0.000000  0.100000
   The eigenvectors of the Hessian matrix: 
                   1         2         3         4         5
  R1         0.000000  0.000000  0.000000  0.000000  0.000000
  R2         0.000000  0.000000  0.000000  0.000000  0.000000
  A2         0.000000  0.000000  0.000000  0.000000  0.000000
  R3         0.000000  0.000000  0.000000  0.000000  0.000000
  A3         0.000000  0.000000  0.000000  1.000000  0.000000
  D3         1.000000  0.000000  0.000000  0.000000  0.000000
  D4         0.000000  1.000000  0.000000  0.000000  0.000000
  R5         0.000000  0.000000  0.000000  0.000000  0.000000
  A5         0.000000  0.000000  0.000000  0.000000  1.000000
  D5         0.000000  0.000000  1.000000  0.000000  0.000000
 
                   6         7         8         9        10
  R1         0.000000  0.000000  0.000000  0.000000  1.000000
  R2         0.000000  1.000000  0.000000  0.000000  0.000000
  A2         1.000000  0.000000  0.000000  0.000000  0.000000
  R3         0.000000  0.000000  0.000000  1.000000  0.000000
  A3         0.000000  0.000000  0.000000  0.000000  0.000000
  D3         0.000000  0.000000  0.000000  0.000000  0.000000
  D4         0.000000  0.000000  0.000000  0.000000  0.000000
  R5         0.000000  0.000000  1.000000  0.000000  0.000000
  A5         0.000000  0.000000  0.000000  0.000000  0.000000
  D5         0.000000  0.000000  0.000000  0.000000  0.000000
   The eigenvalues of the Hessian matrix: 
     0.10000    0.10000    0.10000    0.25000    0.25000    0.25000
     1.00000    1.00000    1.00000    1.00000
   Gradients along Hessian eigenvectors: 
    -0.00432    0.00212   -0.00007   -0.01764    0.00588    0.01725
     0.00033    0.00719   -0.01153    0.00233
   There are  0 negative eigenvalues.
   Summary of Optimization Cycle: 
   The maximum unscaled step is:    0.10118.
   Scale factor set to:  1.00000.
   Forces are in hartree/bohr and hartree/radian.
   Parameter values are in Angstroms and degrees.
--------------------------------------------------------------------------
  Parameter     dV/dR           Step          Rold            Rnew
--------------------------------------------------------------------------
    R1      0.0023285440   -0.0012322122    1.4269652080    1.4257329958
    R2      0.0003305222   -0.0001749048    1.1015604080    1.1013855032
    A2      0.0172490988   -3.9532022429  112.3015477730  108.3483455302
    R3     -0.0081510819    0.0043133659    1.0977920003    1.1021053662
    A3     -0.0124703227    2.8579874366  109.3669652716  112.2249527082
    D3     -0.0043174117    2.4736946996 -121.3954018697 -118.9217071701
    D4      0.0021160236   -1.2123922303  119.9955496866  118.7831574563
    R5      0.0071933700   -0.0038065667    0.9718187137    0.9680121470
    A5      0.0058784220   -1.3472350764  106.9392437608  105.5920086843
    D5     -0.0000727110    0.0416603340 -179.9645221187 -179.9228617847
--------------------------------------------------------------------------
  Minimum force:  0.000072711 / RMS force:  0.007965144
 Updating structure...
   Rotational constants (in cm-1): 
          0.7907178969             0.8208972841             4.2115449033
   Rotational constants (in MHz): 
      23705.1295119576         24609.8849054902        126258.9575407839
 ----------------------------------------------------------------
 Z-matrix   Atomic            Coordinates (in bohr)
  Symbol    Number           X              Y              Z
 ----------------------------------------------------------------
     C         6        -1.37643698    -0.02293748     0.00015247
     O         8         1.31383394     0.12335303     0.00016905
     H         1        -2.13792026     1.91407696     0.00073889
     H         1        -2.11239224    -0.99722182     1.68736510
     H         1        -2.11264801    -0.99213545    -1.68987569
     H         1         1.90046182    -1.60930913    -0.00272670
 ----------------------------------------------------------------
   Interatomic distance matrix (Angstroms) 
 
                 C             O             H             H             H    
                [ 1]        [ 2]        [ 3]        [ 4]        [ 5]
  C    [ 1]     0.00000
  O    [ 2]     1.42573     0.00000
  H    [ 3]     1.10139     2.05776     0.00000
  H    [ 4]     1.10211     2.10619     1.78051     0.00000
  H    [ 5]     1.10211     2.10619     1.77924     1.78716     0.00000
  H    [ 6]     1.92657     0.96801     2.83605     2.32682     2.32672
 
                 H    
                [ 6]
  H    [ 6]     0.00000
   Rotational constants (in cm-1): 
          4.2115449033             0.8208972841             0.7907178969
   Rotational constants (in MHz): 
     126258.9575407839         24609.8849054902         23705.1295119577
 @GETREC: requested length of vector OCCUPYA0 is longer than actual
 Actual --                      1  Requested --                      8
  There are   48 basis functions.
  @CHECKOUT-I, Total execution time (CPU/WALL):        0.02/       0.04 seconds.
--executable xjoda finished with status     0 in        0.05 seconds (walltime).
 --invoking executable--
/opt/vulcan/opt/vulcan/linux-x86_64/intel-13.0.0/cfour-2.0-yhj426etc3g7hslvbmpgvdymp2w76rob/bin/xvmol
 Serial version of molecule started
********************************************************************************
                    Input from MOL file
********************************************************************************
INTGRL        1    0    1    0    0    0    0    0    0                         
         *** CFOUR Program System (Release V0.1) ***                            
MIN4                                                                            
    6    0            0.10E-08              0    0                              
   9999.00      3.00                                                            
          6.00000000    1    3    1    1    1                                   
C #1  -1.376436984156829  -0.022937482880639   0.000152470893825                
    9    3                                                                      
   6665.00000000000       6.920000000000000E-004 -1.460000000000000E-004        
  0.000000000000000E+000                                                        
   1000.00000000000       5.329000000000000E-003 -1.154000000000000E-003        
  0.000000000000000E+000                                                        
   228.000000000000       2.707700000000000E-002 -5.725000000000000E-003        
  0.000000000000000E+000                                                        
   64.7100000000000       0.101718000000000      -2.331200000000000E-002        
  0.000000000000000E+000                                                        
   21.0600000000000       0.274740000000000      -6.395500000000000E-002        
  0.000000000000000E+000                                                        
   7.49500000000000       0.448564000000000      -0.149981000000000             
  0.000000000000000E+000                                                        
   2.79700000000000       0.285074000000000      -0.127262000000000             
  0.000000000000000E+000                                                        
  0.521500000000000       1.520400000000000E-002  0.544529000000000             
  0.000000000000000E+000                                                        
  0.159600000000000      -3.191000000000000E-003  0.580496000000000             
   1.00000000000000                                                             
    4    2                                                                      
   9.43900000000000       3.810900000000000E-002  0.000000000000000E+000        
   2.00200000000000       0.209480000000000       0.000000000000000E+000        
  0.545600000000000       0.508557000000000       0.000000000000000E+000        
  0.151700000000000       0.468842000000000        1.00000000000000             
    1    1                                                                      
  0.550000000000000        1.00000000000000                                     
          8.00000000    1    3    1    1    1                                   
O #2   1.313833940802377   0.123353031084159   0.000169050768971                
    9    3                                                                      
   11720.0000000000       7.100000000000000E-004 -1.600000000000000E-004        
  0.000000000000000E+000                                                        
   1759.00000000000       5.470000000000000E-003 -1.263000000000000E-003        
  0.000000000000000E+000                                                        
   400.800000000000       2.783700000000000E-002 -6.267000000000000E-003        
  0.000000000000000E+000                                                        
   113.700000000000       0.104800000000000      -2.571600000000000E-002        
  0.000000000000000E+000                                                        
   37.0300000000000       0.283062000000000      -7.092400000000000E-002        
  0.000000000000000E+000                                                        
   13.2700000000000       0.448719000000000      -0.165411000000000             
  0.000000000000000E+000                                                        
   5.02500000000000       0.270952000000000      -0.116955000000000             
  0.000000000000000E+000                                                        
   1.01300000000000       1.545800000000000E-002  0.557368000000000             
  0.000000000000000E+000                                                        
  0.302300000000000      -2.585000000000000E-003  0.572759000000000             
   1.00000000000000                                                             
    4    2                                                                      
   17.7000000000000       4.301800000000000E-002  0.000000000000000E+000        
   3.85400000000000       0.228913000000000       0.000000000000000E+000        
   1.04600000000000       0.508728000000000       0.000000000000000E+000        
  0.275300000000000       0.460531000000000        1.00000000000000             
    1    1                                                                      
   1.18500000000000        1.00000000000000                                     
          1.00000000    1    2    1    1                                        
H #3  -2.137920264406413   1.914076964219634   0.000738890402825                
    4    2                                                                      
   13.0100000000000       1.968500000000000E-002  0.000000000000000E+000        
   1.96200000000000       0.137977000000000       0.000000000000000E+000        
  0.444600000000000       0.478148000000000       0.000000000000000E+000        
  0.122000000000000       0.501240000000000        1.00000000000000             
    1    1                                                                      
  0.727000000000000        1.00000000000000                                     
          1.00000000    1    2    1    1                                        
H #4  -2.112392243814279  -0.997221816541925   1.687365100577877                
    4    2                                                                      
   13.0100000000000       1.968500000000000E-002  0.000000000000000E+000        
   1.96200000000000       0.137977000000000       0.000000000000000E+000        
  0.444600000000000       0.478148000000000       0.000000000000000E+000        
  0.122000000000000       0.501240000000000        1.00000000000000             
    1    1                                                                      
  0.727000000000000        1.00000000000000                                     
          1.00000000    1    2    1    1                                        
H #5  -2.112648014683630  -0.992135450080148  -1.689875689731807                
    4    2                                                                      
   13.0100000000000       1.968500000000000E-002  0.000000000000000E+000        
   1.96200000000000       0.137977000000000       0.000000000000000E+000        
  0.444600000000000       0.478148000000000       0.000000000000000E+000        
  0.122000000000000       0.501240000000000        1.00000000000000             
    1    1                                                                      
  0.727000000000000        1.00000000000000                                     
          1.00000000    1    2    1    1                                        
H #6   1.900461820191961  -1.609309133277919  -0.002726704430281                
    4    2                                                                      
   13.0100000000000       1.968500000000000E-002  0.000000000000000E+000        
   1.96200000000000       0.137977000000000       0.000000000000000E+000        
  0.444600000000000       0.478148000000000       0.000000000000000E+000        
  0.122000000000000       0.501240000000000        1.00000000000000             
    1    1                                                                      
  0.727000000000000        1.00000000000000                                     
FINISH                                                                          
 
********************************************************************************
 One- and two-electron integrals over symmetry-adapted AOs are calculated.

  Spherical harmonics are used.
  
  Integrals less than  0.10E-13 are neglected.

  Nuclear repulsion energy :   40.0911409721 a.u.
  required memory for a1 array                5013204  words 
  required memory for a2 array                2046060  words 
 @GETMEM-I,  Allocated      69 MB of main memory.
  @MOLECU-I, One electron integrals (CPU/WALL):        0.01/       0.01 seconds.
  @TWOEL-I,     682149 integrals of symmetry type  I I I I
  @TWOEL-I, Total number of 2-e integrals     682149.
  @MOLECU-I, Two electron integrals (CPU/WALL):        0.95/       0.35 seconds.
  @CHECKOUT-I, Total execution time (CPU/WALL):        0.97/       0.38 seconds.
--executable xvmol finished with status     0 in        0.43 seconds (walltime).
 --invoking executable--
/opt/vulcan/opt/vulcan/linux-x86_64/intel-13.0.0/cfour-2.0-yhj426etc3g7hslvbmpgvdymp2w76rob/bin/xvmol2ja
 @GETMEM-I,  Allocated    6675 MB of main memory.
  @CHECKOUT-I, Total execution time (CPU/WALL):        0.01/       0.00 seconds.
--executable xvmol2ja finished with status     0 in        0.22 seconds (walltime).
 --invoking executable--
/opt/vulcan/opt/vulcan/linux-x86_64/intel-13.0.0/cfour-2.0-yhj426etc3g7hslvbmpgvdymp2w76rob/bin/xvscf
  There are   48 functions in the AO basis.

  There are 1 irreducible representations.

       Irrep        # of functions
         1                 48


  Parameters for SCF calculation: 
        SCF reference function:  RHF  
  Maximum number of iterations:  150
     Full symmetry point group: C1  
     Computational point group: C1  
        Initial density matrix: MOREAD                 
     SCF convergence tolerance: 10**(- 9)
  DIIS convergence acceleration:  ON
          Latest start for DIIS:   8
                     DIIS order:   6

     Alpha population by irrep:   9
      Beta population by irrep:   9


  Memory information:     143849 words required.
  Fock matrices are constructed from AO integral file.
 @GETMEM-I,  Allocated       1 MB of main memory.
  Initialization and symmetry analysis required      0.001 seconds.

 read in density matrix from initden.dat
 unsymmetric error:  0.000000000000000E+000
 total no. of electrons in initial guess :   15.6539043162454     
  --------------------------------------------------------------------
  Iteration         Total Energy            Largest Density Difference
  --------------------------------------------------------------------
       0          -112.170678415072629              0.0000000000D+00
       1          -114.531317487616221              0.1457560988D+01
       2          -114.948310381602326              0.1592687362D+01
       3          -115.024045123771018              0.6712555925D+00
       4          -115.041692233571794              0.3165417037D+00
       5          -115.048150333414142              0.9853591098D-01
       6          -115.048180261039462              0.7259645198D-02
       7          -115.048182314821716              0.1889918861D-02
       8          -115.048182400160769              0.3841404278D-03
       9          -115.048182403866903              0.6041440719D-04
[...]
  Minimum force:  0.000000574 / RMS force:  0.000003921
--------------------------------------------------------------------------------
   RMS gradient is below .10000E-04.
   Convergence criterion satisfied.  Optimization completed.
--------------------------------------------------------------------------------
   Interatomic distance matrix (Angstroms) 
 
                 C             O             H             H             H    
                [ 1]        [ 2]        [ 3]        [ 4]        [ 5]
  C    [ 1]     0.00000
  O    [ 2]     1.41952     0.00000
  H    [ 3]     1.10311     2.03718     0.00000
  H    [ 4]     1.11030     2.11422     1.78924     0.00000
  H    [ 5]     1.11030     2.11422     1.78922     1.79881     0.00000
  H    [ 6]     1.92837     0.96602     2.82573     2.34566     2.34539
 
                 H    
                [ 6]
  H    [ 6]     0.00000
 @EFOL-I, Writing out completion flag to disk
 
********************************************************************************
*                          Final ZMATnew file                                  *
********************************************************************************
MIN4                                                                            
C                                                                               
O 1 R1*                                                                         
H 1 R2* 2 A2*                                                                   
H 1 R3* 2 A3* 3 D3*                                                             
H 1 R3* 2 A3* 3 D4*                                                             
H 2 R5* 1 A5* 3 D5*                                                             
                                                                                
R1   =        2.682490403875129                                                 
R2   =        2.084572254910686                                                 
A2   =      107.049589779782039                                                 
R3   =        2.098158588044278                                                 
A3   =      112.811318093828362                                                 
D3   =     -118.504553514300724                                                 
D4   =      118.502680802215778                                                 
R5   =        1.825505308732492                                                 
A5   =      106.315848779492711                                                 
D5   =     -179.980717779928312                                                 
                                                                                
*CFOUR(REF=RHF                                                                  
       CALC=CCSD(T)                                                             
       BASIS=cc-pVDZ                                                            
       ORB=SEMICANONICAL                                                        
       UNITS=BOHR                                                               
       MEMORY=7                                                                 
       MEM_UNIT=GB                                                              
       SCF_CONV=9                                                               
       CC_CONV=6                                                                
       CHARGE=0                                                                 
       MULT=1)                                                                  
                                                                                
********************************************************************************
--executable xjoda finished with status     0 in        0.03 seconds (walltime).
 --invoking executable--
/opt/vulcan/opt/vulcan/linux-x86_64/intel-13.0.0/cfour-2.0-yhj426etc3g7hslvbmpgvdymp2w76rob/bin/xvprop
 @GETMEM-I,  Allocated    6675 MB of main memory.
   Property integrals will be calculated.
    --------------------------------------------------------------
                                   Property evaluated at 
    Property type                X             Y             Z
    --------------------------------------------------------------
    Dipole moment               ----          ----          ----  
    Quadrupole moment           ----          ----          ----  
    Octopole moment             ----          ----          ----  
    Relativisitic corr.         ----          ----          ----  
    Second moment            0.0000000     0.0000000     0.0000000
    Electron density        -1.3705810    -0.0230800     0.0000035
    Electron density         1.3080494     0.1208770     0.0000035
    Electron density        -2.0878536     1.9342046    -0.0007559
    Electron density        -2.1333785    -0.9877383     1.6999719
    Electron density        -2.1333122    -0.9889713    -1.6992944
    Electron density         1.9141245    -1.6010910    -0.0000188
    Field gradient          -1.3705810    -0.0230800     0.0000035
    Field gradient           1.3080494     0.1208770     0.0000035
    Field gradient          -2.0878536     1.9342046    -0.0007559
    Field gradient          -2.1333785    -0.9877383     1.6999719
    Field gradient          -2.1333122    -0.9889713    -1.6992944
    Field gradient           1.9141245    -1.6010910    -0.0000188
    Potential               -1.3705810    -0.0230800     0.0000035
    Potential                1.3080494     0.1208770     0.0000035
    Potential               -2.0878536     1.9342046    -0.0007559
    Potential               -2.1333785    -0.9877383     1.6999719
    Potential               -2.1333122    -0.9889713    -1.6992944
    Potential                1.9141245    -1.6010910    -0.0000188
    --------------------------------------------------------------
  @CHECKOUT-I, Total execution time (CPU/WALL):        0.17/       0.17 seconds.
--executable xvprop finished with status     0 in        0.20 seconds (walltime).
 --invoking executable--
/opt/vulcan/opt/vulcan/linux-x86_64/intel-13.0.0/cfour-2.0-yhj426etc3g7hslvbmpgvdymp2w76rob/bin/xprops
  @DRVPRP-I, Properties computed from the SCF density matrix follow.
   Components of electric dipole moment 
        X =   -0.3889136204   Y =   -0.5972039343   Z =   -0.0000296255
   Components of second moment 
       XX =   51.6355130022  YY =   17.0584984922  ZZ =   15.8618538002
       XY =    0.0847290869  XZ =   -0.0000326335  YZ =    0.0000322834
   Components of electric quadrupole moment 
       XX =  -35.1753729344  YY =   16.6902029485  ZZ =   18.4851699859
       XY =   -0.1270483632  XZ =    0.0000489502  YZ =   -0.0000484251
   Components of electric octopole moment 
      XXX =   -0.5118687037 YYY =    3.9750255676 ZZZ =    0.0020156034
      XXY =   -4.5241681576 XXZ =   -0.0001905627 XYY =    3.0402327844
      YYZ =   -0.0018250407 XZZ =   -2.5283640807 YZZ =    0.5491425900
      XYZ =    0.0001466049
  Relativistic correction to the energy 
      Darwin =    0.2595446869 p**4   =   -0.3256701567 Total  =   -0.0661254698
   Charge densities at atomic centers 
          Z-matrix                               Charge
           center                               Density
              1                            120.5669750107
              2                            297.2430774661
              3                              0.3819908857
              4                              0.3831557821
              5                              0.3831558367
              6                              0.3630939455
   Electric field gradient at atomic centers 
                             Z-matrix center   1:
       XX =    0.2929767897  YY =   -0.1652875891  ZZ =   -0.1276892006
       XY =    0.0146574820  XZ =    0.0000122160  YZ =    0.0000171021
                             Z-matrix center   2:
       XX =    1.4203048790  YY =    0.6356826666  ZZ =   -2.0559875455
       XY =   -0.7283439208  XZ =   -0.0000309861  YZ =    0.0000101291
                             Z-matrix center   3:
       XX =   -0.0854469650  YY =    0.2440545686  ZZ =   -0.1586076037
       XY =   -0.1442376186  XZ =    0.0000563021  YZ =   -0.0001545244
                             Z-matrix center   4:
       XX =   -0.0789391624  YY =   -0.0577835611  ZZ =    0.1367227235
       XY =    0.0692691095  XZ =   -0.1233064815  YZ =   -0.1671833867
                             Z-matrix center   5:
       XX =   -0.0789472568  YY =   -0.0575417526  ZZ =    0.1364890094
       XY =    0.0693498149  XZ =    0.1232457714  YZ =    0.1673294901
                             Z-matrix center   6:
       XX =   -0.1220014919  YY =    0.3911838291  ZZ =   -0.2691823372
       XY =   -0.2176061329  XZ =   -0.0000026005  YZ =    0.0000087664
   Electrostatic potential at atomic centers 
          Z-matrix                             Potential
           center                               [<1/r>]
              1                            -14.6767005219
              2                            -22.3413989413
              3                             -1.1129169928
              4                             -1.1138044659
              5                             -1.1137974466
              6                             -1.0040345386
  @DRVPRP-I, Properties computed from the correlated density matrix follow.
   Components of electric dipole moment 
        X =   -0.3120606906   Y =   -0.5523509101   Z =   -0.0000334854
   Components of second moment 
       XX =   51.7283715942  YY =   17.2286043088  ZZ =   15.9753678292
       XY =    0.0137059342  XZ =   -0.0000503763  YZ =    0.0000324647
   Components of electric quadrupole moment 
       XX =  -35.1264216036  YY =   16.6232834424  ZZ =   18.5031381612
       XY =   -0.0205136342  XZ =    0.0000755645  YZ =   -0.0000486971
   Components of electric octopole moment 
      XXX =   -0.4204121737 YYY =    3.5501029109 ZZZ =    0.0017908421
      XXY =   -4.1468180885 XXZ =   -0.0002658008 XYY =    2.7288717734
      YYZ =   -0.0015250413 XZZ =   -2.3084595997 YZZ =    0.5967151776
      XYZ =    0.0001456298
  Relativistic correction to the energy 
      Darwin =    0.2595105945 p**4   =   -0.3257028626 Total  =   -0.0661922681
   Charge densities at atomic centers 
          Z-matrix                               Charge
           center                               Density
              1                            120.5419499134
              2                            297.2103267977
              3                              0.3811383527
              4                              0.3825324663
              5                              0.3825319427
              6                              0.3697748108
   Electric field gradient at atomic centers 
                             Z-matrix center   1:
       XX =    0.2733028413  YY =   -0.1527910525  ZZ =   -0.1205117888
       XY =    0.0155110527  XZ =    0.0000112558  YZ =    0.0000135955
                             Z-matrix center   2:
       XX =    1.3474373295  YY =    0.5908280535  ZZ =   -1.9382653829
       XY =   -0.6538004494  XZ =   -0.0000280636  YZ =    0.0000061836
                             Z-matrix center   3:
       XX =   -0.0871911399  YY =    0.2464586234  ZZ =   -0.1592674835
       XY =   -0.1447526886  XZ =    0.0000565324  YZ =   -0.0001556943
                             Z-matrix center   4:
       XX =   -0.0802688152  YY =   -0.0576314218  ZZ =    0.1379002370
       XY =    0.0698677282  XZ =   -0.1244999260  YZ =   -0.1676000484
                             Z-matrix center   5:
       XX =   -0.0802768671  YY =   -0.0573888857  ZZ =    0.1376657528
       XY =    0.0699494677  XZ =    0.1244388824  YZ =    0.1677466574
                             Z-matrix center   6:
       XX =   -0.1249453525  YY =    0.4001866797  ZZ =   -0.2752413272
       XY =   -0.2240338075  XZ =   -0.0000025921  YZ =    0.0000093712
   Electrostatic potential at atomic centers 
          Z-matrix                             Potential
           center                               [<1/r>]
              1                            -14.6971920931
              2                            -22.3306348760
              3                             -1.1073485546
              4                             -1.1100881151
              5                             -1.1100801982
              6                             -1.0016018370
 
  Mulliken population analysis of SCF density.
   Total density is analyzed.
 
  Population analysis by orbitals.
 -------------------------------------------------------
     Z-matrix
      Center          Function          Population
 -------------------------------------------------------
         1                S              2.00279206
         1                S              1.45669038
         1                S             -0.41748094
         1                P              0.85993784
         1                P             -0.16552064
         1                P              1.20740126
         1                P             -0.17388294
         1                P              1.18909228
         1                P             -0.20523145
         1                D              0.02457259
         1                D              0.02274162
         1                D              0.02851643
         1                D              0.01101596
         1                D              0.01015881
         1                D              0.01041257
         2                S              2.00128566
         2                S              1.80492782
         2                S             -0.07246857
         2                P              1.34773738
         2                P             -0.03613202
         2                P              1.48735023
         2                P             -0.08953652
         2                P              1.83370269
         2                P              0.09240478
         2                D              0.00425341
         2                D              0.00285967
         2                D              0.00147353
         2                D              0.00419547
         2                D              0.00066151
         2                D              0.00167086
         3                S              1.26421647
         3                S             -0.33715429
         3                P              0.00406204
         3                P              0.01959669
         3                P              0.00551998
         4                S              1.27519497
         4                S             -0.32345883
         4                P              0.00496333
         4                P              0.00846386
         4                P              0.01588156
         5                S              1.27519563
         5                S             -0.32345489
         5                P              0.00496344
         5                P              0.00847233
         5                P              0.01587332
         6                S              1.07044426
         6                S             -0.31575247
         6                P              0.01795214
         6                P              0.04210041
         6                P              0.02131830
 -------------------------------------------------------
  Population analysis by atoms (atomic charges).
 -------------------------------------------------------
     Z-matrix
      Center          Function          Population
 -------------------------------------------------------
         1                               5.86121582
         2                               8.38438592
         3                               0.95624090
         4                               0.98104489
         5                               0.98104983
         6                               0.83606264
 -------------------------------------------------------
 
  Mulliken population analysis of CCSD(T) density.
   Total density is analyzed.
 
  Population analysis by orbitals.
 -------------------------------------------------------
     Z-matrix
      Center          Function          Population
 -------------------------------------------------------
         1                S              2.00343379
         1                S              1.46681040
         1                S             -0.42854775
         1                P              0.88411889
         1                P             -0.15780403
         1                P              1.20861342
         1                P             -0.17412934
         1                P              1.19404478
         1                P             -0.20367616
         1                D              0.02404486
         1                D              0.02632475
         1                D              0.03291330
         1                D              0.01260569
         1                D              0.01332063
         1                D              0.01191166
         2                S              2.00153161
         2                S              1.81325266
         2                S             -0.09694861
         2                P              1.33735817
         2                P             -0.05661583
         2                P              1.47510107
         2                P             -0.10174859
         2                P              1.80048910
         2                P              0.10063423
         2                D              0.00640195
         2                D              0.00666197
         2                D              0.00566951
         2                D              0.00647279
         2                D              0.00475973
         2                D              0.00430529
         3                S              1.24900417
         3                S             -0.32340122
         3                P              0.00579620
         3                P              0.01840049
         3                P              0.00752625
         4                S              1.25922962
         4                S             -0.30831285
         4                P              0.00675177
         4                P              0.00983360
         4                P              0.01565073
         5                S              1.25922961
         5                S             -0.30831016
         5                P              0.00675195
         5                P              0.00984030
         5                P              0.01564431
         6                S              1.08301536
         6                S             -0.31141553
         6                P              0.01933346
         6                P              0.03947331
         6                P              0.02464865
 -------------------------------------------------------
  Population analysis by atoms (atomic charges).
 -------------------------------------------------------
     Z-matrix
      Center          Function          Population
 -------------------------------------------------------
         1                               5.91398491
         2                               8.30732506
         3                               0.95732590
         4                               0.98315286
         5                               0.98315602
         6                               0.85505526
 -------------------------------------------------------
  @CHECKOUT-I, Total execution time (CPU/WALL):        0.03/       0.01 seconds.
--executable xprops finished with status     0 in        0.23 seconds (walltime).
  The final electronic energy is      -115.425366523267783 a.u. 
  This computation required                           77.48 seconds (walltime).
