
 Primary working directories    : /tmp/333988.22.gen4.q
 Secondary working directories  : /tmp/333988.22.gen4.q
 Wavefunction directory         : /home/vulcan/mel64643/wfu/
 Main file repository           : /tmp/333988.22.gen4.q/

 ARCHNAME  : Linux/x86_64
 FC        : /opt/intel/compilers_and_libraries_2016.1.150/linux/bin/intel64/ifort
 FCVERSION : 16.0.1
 BLASLIB   : -mkl
 id        : ccgc

 Nodes     nprocs
 n059         3
 Number of processes for MPI-2 version of Molpro:   nprocs(total)=    4   nprocs(compute)=    3   nprocs(helper)=    1
 ga_uses_ma=false, calling ma_init with nominal heap.
 GA-space will be limited to   8.0 MW (determined by -G option)

 Using customized tuning parameters: mindgm=10; mindgv=16; mindgc=4; mindgr=1; noblas=0; mincuda=1000; minvec=7
 default implementation of scratch files=sf  

 ***,Optimization of min3
 memory,1000,m
 gthresh,energy=1.0d-10,orbital=1.0d-10,oneint=1.0d-16,twoint=1.0d-16,optgrad=1.0d-6,compress=1.0d-13
 geomtyp=xyz
 
  bohr
  geometry = {
  12
  arbitrary comment
  C         -3.0978977014          1.5857990662          0.0207987141
  C         -0.8658380588         -0.0699228360         -0.6562000874
  C         -1.1210929927         -2.7814552525          0.2450733759
  O          1.3122408100          1.1060709881          0.5894049288
  O          3.4489378117          0.1201204575         -0.2518016978
  H         -4.7945032342          0.8377470238         -0.8817163001
  H         -2.8089694389          3.5219715808         -0.6220867092
  H         -3.3974912139          1.5968166831          2.0620081607
  H         -0.4640535800          0.0023981061         -2.6775757924
  H         -2.6965657207         -3.7090336333         -0.7106906646
  H         -1.4664832156         -2.8192759663          2.2797141925
  H          0.6088914229         -3.8221392501         -0.1600925701
 }
 
 basis=cc-pvtz
 {rhf;maxit,200}
 {uccsd(t);maxit,200}

 Variables initialized (661), CPU time= 0.00 sec
 Commands  initialized (458), CPU time= 0.00 sec, 486 directives.
 Default parameters read. Elapsed time= 0.04 sec

 Checking input...
 Passed
1


                                         ***  PROGRAM SYSTEM MOLPRO  ***
                         Copyright, University College Cardiff Consultants Limited, 2008

                                    Version 2010.1 linked May 16 2016 07:17:05


 **********************************************************************************************************************************
 LABEL *   Optimization of min3                                                          
 Linux-4.4.3/n059(x86_64) 64 bit mpp version                                             DATE: 15-Jul-20          TIME: 09:01:23  
 **********************************************************************************************************************************

 SHA1:             9e8077add272b0f3cad6f7df79ec5211205f459d
 **********************************************************************************************************************************

 THRESHOLDS:

 ZERO    =  1.00D-12  ONEINT  =  1.00D-16  TWOINT  =  1.00D-16  PREFAC  =  1.00D-14  LOCALI  =  1.00D-09  EORDER  =  1.00D-04
 ENERGY  =  1.00D-10  ETEST   =  0.00D+00  EDENS   =  0.00D+00  THRDEDEF=  1.00D-06  GRADIENT=  1.00D-02  STEP    =  1.00D-03
 ORBITAL =  1.00D-10  CIVEC   =  1.00D-05  COEFF   =  1.00D-04  PRINTCI =  5.00D-02  PUNCHCI =  9.90D+01  OPTGRAD =  1.00D-06
 OPTENERG=  1.00D-06  OPTSTEP =  3.00D-04  THRGRAD =  1.00D-10  COMPRESS=  1.00D-13  VARMIN  =  1.00D-07  VARMAX  =  1.00D-03
 THRDOUB =  0.00D+00  THRDIV  =  1.00D-05  THRRED  =  1.00D-07  THRPSP  =  1.00D+00  THRDC   =  1.00D-10  THRCS   =  1.00D-10
 THRNRM  =  1.00D-08  THREQ   =  0.00D+00  THRDE   =  1.00D+00  THRREF  =  1.00D-05  SPARFAC =  1.00D+00  THRDLP  =  1.00D-07
 THRDIA  =  1.00D-10  THRDLS  =  1.00D-07  THRGPS  =  0.00D+00  THRKEX  =  0.00D+00  THRDIS  =  2.00D-01  THRVAR  =  1.00D-10
 THRLOC  =  1.00D-06  THRGAP  =  1.00D-06  THRLOCT = -1.00D+00  THRGAPT = -1.00D+00  THRORB  =  1.00D-06  THRMLTP =  0.00D+00
 THRCPQCI=  1.00D-10  KEXTA   =  0.00D+00  THRCOARS=  0.00D+00  SYMTOL  =  1.00D-06  GRADTOL =  1.00D-06  THROVL  =  1.00D-08
 THRORTH =  1.00D-08  GRID    =  1.00D-06  GRIDMAX =  1.00D-03  DTMAX   =  0.00D+00

 SETTING GEOMTYP        =    XYZ
 ZUNIT=BOHR
 

 Variable memory set to 1000000000 words,  buffer space   230000 words

 SETTING BASIS          =    CC-PVTZ


 Recomputing integrals since basis changed


 Using spherical harmonics

 Library entry C      S cc-pVTZ              selected for orbital group  1
 Library entry C      P cc-pVTZ              selected for orbital group  1
 Library entry C      D cc-pVTZ              selected for orbital group  1
 Library entry C      F cc-pVTZ              selected for orbital group  1
 Library entry O      S cc-pVTZ              selected for orbital group  2
 Library entry O      P cc-pVTZ              selected for orbital group  2
 Library entry O      D cc-pVTZ              selected for orbital group  2
 Library entry O      F cc-pVTZ              selected for orbital group  2
 Library entry H      S cc-pVTZ              selected for orbital group  3
 Library entry H      P cc-pVTZ              selected for orbital group  3
 Library entry H      D cc-pVTZ              selected for orbital group  3

1PROGRAM * SEWARD (Integral evaluation for generally contracted gaussian basis sets)     Author: Roland Lindh, 1990

 Geometry written to block  1 of record 700


 Point group  C1  



 ATOMIC COORDINATES

 NR  ATOM    CHARGE       X              Y              Z

   1  C       6.00   -3.097897701    1.585799066    0.020798714
   2  C       6.00   -0.865838059   -0.069922836   -0.656200087
   3  C       6.00   -1.121092993   -2.781455252    0.245073376
   4  O       8.00    1.312240810    1.106070988    0.589404929
   5  O       8.00    3.448937812    0.120120457   -0.251801698
   6  H       1.00   -4.794503234    0.837747024   -0.881716300
   7  H       1.00   -2.808969439    3.521971581   -0.622086709
   8  H       1.00   -3.397491214    1.596816683    2.062008161
   9  H       1.00   -0.464053580    0.002398106   -2.677575792
  10  H       1.00   -2.696565721   -3.709033633   -0.710690665
  11  H       1.00   -1.466483216   -2.819275966    2.279714193
  12  H       1.00    0.608891423   -3.822139250   -0.160092570

 Bond lengths in Bohr (Angstrom)

 1-2  2.860390296  1-6  2.062179804  1-7  2.060472085  1-8  2.063107769  2-3  2.868772731
     ( 1.513653353)     ( 1.091258553)     ( 1.090354867)     ( 1.091749611)     ( 1.518089147)

  2- 4  2.771014415   2- 9  2.062188359   3-10  2.063007724   3-11  2.064094975   3-12  2.059132998
       ( 1.466357674)       ( 1.091263080)       ( 1.091696670)       ( 1.092272018)       ( 1.089646253)

 4-5  2.499040039
     ( 1.322435033)

 Bond angles

  1-2-3  113.78643544   1-2-4  105.14795160   1-2-9  111.32956639   2-1-6  109.17419923

  2- 1- 7  111.14056782   2- 1- 8  110.52252084   2- 3-10  110.32716947   2- 3-11  109.99215100

  2- 3-12  109.94550918   2- 4- 5  110.68975979   3- 2- 4  109.25941882   3- 2- 9  111.00397908

  4-2-9  105.81837007   6-1-7  108.64358217   6-1-8  108.38926138   7-1-8  108.90751747

 10- 3-11  108.70218293  10- 3-12  108.85696141  11- 3-12  108.98264533

 NUCLEAR CHARGE:                   41
 NUMBER OF PRIMITIVE AOS:         354
 NUMBER OF SYMMETRY AOS:          322
 NUMBER OF CONTRACTIONS:          248   ( 248A   )
 NUMBER OF CORE ORBITALS:           5   (   5A   )
 NUMBER OF VALENCE ORBITALS:       27   (  27A   )


 NUCLEAR REPULSION ENERGY  186.63216027


 Eigenvalues of metric

         1 0.807E-03 0.957E-03 0.110E-02 0.124E-02 0.136E-02 0.150E-02 0.160E-02 0.164E-02


 Contracted 2-electron integrals neglected if value below      1.0D-16
 AO integral compression algorithm  1   Integral accuracy      1.0D-16

     3372.220 MB (compressed) written to integral file ( 82.1%)

     Node minimum: 1102.053 MB, node maximum: 1161.036 MB


 NUMBER OF SORTED TWO-ELECTRON INTEGRALS:  158903334.     BUFFER LENGTH:  32768
 NUMBER OF SEGMENTS:  10  SEGMENT LENGTH:   15997437      RECORD LENGTH: 524288

 Memory used in sort:      16.55 MW

 SORT1 READ   513547057. AND WROTE   152629977. INTEGRALS IN    442 RECORDS. CPU TIME:    20.68 SEC, REAL TIME:    21.77 SEC
 SORT2 READ   459385959. AND WROTE   476679126. INTEGRALS IN  12693 RECORDS. CPU TIME:     1.70 SEC, REAL TIME:    12.90 SEC

 Node minimum:   158882750.  Node maximum:   158903334. integrals

 OPERATOR DM      FOR CENTER  0  COORDINATES:    0.000000    0.000000    0.000000


 **********************************************************************************************************************************
 DATASETS  * FILE   NREC   LENGTH (MB)   RECORD NAMES
              1      18        5.04       500      610      700      900      950      970     1000      129      960     1100   
                                          VAR    BASINP    GEOM    SYMINP    ZMAT    AOBASIS   BASIS     P2S    ABASIS      S 
                                         1400     1410     1200     1210     1080     1600     1650     1700   
                                           T        V       H0       H01     AOSYM     SMH    MOLCAS    OPER   

 PROGRAMS   *        TOTAL       INT
 CPU TIMES  *        29.14     29.10
 REAL TIME  *        42.17 SEC
 DISK USED  *         8.83 GB      
 GA USED    *         0.01 MB       (max)       0.00 MB       (current)
 **********************************************************************************************************************************

1PROGRAM * RHF-SCF (OPEN SHELL)       Authors: W. Meyer, H.-J. Werner


 NUMBER OF ELECTRONS:      21+   20-    SPACE SYMMETRY=1    SPIN SYMMETRY: Doublet 
 CONVERGENCE THRESHOLDS:    1.00E-10 (Density)    1.00E-11 (Energy)
 MAX. NUMBER OF ITERATIONS:      200
 INTERPOLATION TYPE:            DIIS
 INTERPOLATION STEPS:              2 (START)      1 (STEP)
 LEVEL SHIFTS:                 -0.30 (CLOSED)  0.00 (OPEN) 



 Orbital guess generated from atomic densities. Full valence occupancy:   32

 Molecular orbital dump at record        2100.2

 ITERATION    DDIFF          GRAD             ENERGY        2-EL.EN.            DIPOLE MOMENTS         DIIS
    1      0.000D+00      0.000D+00      -267.26102492    559.814666   -1.77299   -0.06880   -0.09697    0
    2      0.000D+00      0.326D-02      -267.33460524    562.658041   -1.01656   -0.43189   -0.35940    1
    3      0.471D-02      0.230D-02      -267.36112879    561.612247   -1.18942   -0.24348   -0.21705    2
    4      0.211D-02      0.547D-03      -267.36936690    561.799070   -0.97833   -0.31681   -0.29810    3
    5      0.926D-03      0.484D-03      -267.37358517    561.841270   -0.92296   -0.31898   -0.30230    4
    6      0.583D-03      0.271D-03      -267.37550023    561.808466   -0.88188   -0.31244   -0.30020    5
    7      0.484D-03      0.132D-03      -267.37583404    561.794367   -0.89176   -0.30093   -0.29213    6
    8      0.257D-03      0.355D-04      -267.37585569    561.791639   -0.89134   -0.29769   -0.29065    7
    9      0.843D-04      0.188D-04      -267.37586651    561.791865   -0.89387   -0.29821   -0.29070    8
   10      0.447D-04      0.819D-05      -267.37586831    561.791756   -0.89502   -0.29758   -0.29041    9
   11      0.198D-04      0.319D-05      -267.37586856    561.791702   -0.89565   -0.29742   -0.29024    9
   12      0.780D-05      0.147D-05      -267.37586862    561.791926   -0.89579   -0.29752   -0.29029    9
   13      0.368D-05      0.523D-06      -267.37586863    561.791977   -0.89580   -0.29758   -0.29031    9
   14      0.147D-05      0.296D-06      -267.37586863    561.791976   -0.89579   -0.29759   -0.29032    9
   15      0.807D-06      0.144D-06      -267.37586863    561.791982   -0.89579   -0.29760   -0.29032    9
   16      0.415D-06      0.725D-07      -267.37586863    561.791984   -0.89578   -0.29760   -0.29032    9
   17      0.171D-06      0.334D-07      -267.37586863    561.791979   -0.89578   -0.29760   -0.29032    9
   18      0.109D-06      0.193D-07      -267.37586863    561.791976   -0.89578   -0.29760   -0.29032    9
   19      0.667D-07      0.115D-07      -267.37586863    561.791977   -0.89578   -0.29760   -0.29032    9
   20      0.495D-07      0.804D-08      -267.37586863    561.791976   -0.89578   -0.29760   -0.29032    9
   21      0.507D-07      0.684D-08      -267.37586863    561.791976   -0.89578   -0.29760   -0.29032    9
   22      0.641D-07      0.556D-08      -267.37586863    561.791976   -0.89578   -0.29760   -0.29032    9
   23      0.825D-07      0.377D-08      -267.37586863    561.791975   -0.89578   -0.29760   -0.29032    9
   24      0.780D-07      0.225D-08      -267.37586863    561.791974   -0.89578   -0.29760   -0.29032    9
   25      0.426D-07      0.902D-09      -267.37586863    561.791975   -0.89578   -0.29760   -0.29032    9
   26      0.879D-08      0.428D-09      -267.37586863    561.791975   -0.89578   -0.29760   -0.29032    9
   27      0.486D-08      0.192D-09      -267.37586863    561.791975   -0.89578   -0.29760   -0.29032    9
   28      0.741D-09      0.871D-10      -267.37586863    561.791975   -0.89578   -0.29760   -0.29032    9
   29      0.281D-09      0.439D-10      -267.37586863    561.791975   -0.89578   -0.29760   -0.29032    9
   30      0.160D-09      0.218D-10      -267.37586863    561.791975   -0.89578   -0.29760   -0.29032    9
   31      0.530D-10      0.173D-10      -267.37586863    561.791975   -0.89578   -0.29760   -0.29032    0

 Final alpha occupancy:  21
 Final beta  occupancy:  20

 !RHF STATE 1.1 Energy               -267.375868631890
 Nuclear energy                       186.63216027
 One-electron energy                 -734.90401623
 Two-electron energy                  280.89598733
 Virial quotient                       -1.00116184
 !RHF STATE 1.1 Dipole moment          -0.89578144    -0.29760006    -0.29032196
 Dipole moment /Debye                  -2.27670019    -0.75637436    -0.73787648

 Orbital energies:

         1.1          2.1          3.1          4.1          5.1          6.1          7.1          8.1          9.1         10.1
    -20.648553   -20.640417   -11.297465   -11.228823   -11.225658    -1.523492    -1.170687    -1.034694    -0.952982    -0.819364

        11.1         12.1         13.1         14.1         15.1         16.1         17.1         18.1         19.1         20.1
     -0.695212    -0.667940    -0.652544    -0.595360    -0.562846    -0.557820    -0.544575    -0.501520    -0.489678    -0.465023

        21.1         22.1         23.1
     -0.562735     0.137651     0.174674


 **********************************************************************************************************************************
 DATASETS  * FILE   NREC   LENGTH (MB)   RECORD NAMES
              1      18        5.04       500      610      700      900      950      970     1000      129      960     1100   
                                          VAR    BASINP    GEOM    SYMINP    ZMAT    AOBASIS   BASIS     P2S    ABASIS      S 
                                         1400     1410     1200     1210     1080     1600     1650     1700   
                                           T        V       H0       H01     AOSYM     SMH    MOLCAS    OPER   

              2       3        2.21       700     1000     2100   
                                         GEOM     BASIS     RHF  

 PROGRAMS   *        TOTAL       RHF       INT
 CPU TIMES  *        79.20     50.05     29.10
 REAL TIME  *        96.03 SEC
 DISK USED  *         8.87 GB      
 SF USED    *         0.25 MB      
 GA USED    *         0.01 MB       (max)       0.00 MB       (current)
 **********************************************************************************************************************************


1PROGRAM * CCSD (Unrestricted open-shell coupled cluster)     Authors: C. Hampel, H.-J. Werner, 1991, M. Deegan, P.J. Knowles, 1992


 Convergence thresholds:  THRVAR = 1.00D-08  THRDEN = 1.00D-10

 CCSD(T)     terms to be evaluated (factor= 1.000)


 Number of core orbitals:           5 (   5 )
 Number of closed-shell orbitals:  15 (  15 )
 Number of active  orbitals:        1 (   1 )
 Number of external orbitals:     227 ( 227 )

 Memory could be reduced to 332.02 Mwords without degradation in triples

 Number of N-1 electron functions:              31
 Number of N-2 electron functions:             465
 Number of singly external CSFs:              7068
 Number of doubly external CSFs:          18353430
 Total number of CSFs:                    18360498

 Molecular orbitals read from record     2100.2  Type=RHF/CANONICAL (state 1.1)

 Integral transformation finished. Total CPU:  27.66 sec, npass=  1  Memory used: 145.25 MW

 Starting RMP2 calculation

 ITER.      SQ.NORM     CORR.ENERGY   TOTAL ENERGY   ENERGY CHANGE        DEN1      VAR(S)    VAR(P)  DIIS     TIME
   1      1.26538890    -0.96766500  -268.34353364    -0.96766500    -0.00323724  0.26D-04  0.11D-02  1  1    31.60
   2      1.26817466    -0.97115553  -268.34702416    -0.00349052    -0.00000666  0.10D-05  0.23D-05  2  2    34.78
   3      1.26825462    -0.97120845  -268.34707708    -0.00005292    -0.00000008  0.53D-07  0.11D-07  3  3    39.20
   4      1.26825632    -0.97120826  -268.34707689     0.00000019    -0.00000000  0.16D-08  0.12D-09  4  4    43.78
   5      1.26825658    -0.97120834  -268.34707697    -0.00000009    -0.00000000  0.19D-10  0.45D-11  5  5    48.45
   6      1.26825664    -0.97120838  -268.34707701    -0.00000003    -0.00000000  0.50D-13  0.56D-13  6  6    53.13
   7      1.26825664    -0.97120838  -268.34707701     0.00000000    -0.00000000  0.15D-14  0.85D-15  6  1    57.90
   8      1.26825664    -0.97120838  -268.34707701     0.00000000    -0.00000000  0.16D-16  0.79D-17  6  2    62.51
   9      1.26825664    -0.97120838  -268.34707701    -0.00000000    -0.00000000  0.31D-18  0.10D-18  6  3    67.58

 Norm of t1 vector:      0.04589591      S-energy:    -0.00446822      T1 diagnostic:  0.00074383
 Norm of t2 vector:      0.51589747      P-energy:    -0.96674015
                                         Alpha-Beta:  -0.73711837
                                         Alpha-Alpha: -0.11900080
                                         Beta-Beta:   -0.11062099

 Spin contamination <S**2-Sz**2-Sz>     0.00145386
  Reference energy                   -267.375868631891
  RHF-RMP2 correlation energy          -0.971208375197
 !RHF-RMP2 energy                    -268.347077007088

 Starting UCCSD calculation

 ITER.      SQ.NORM     CORR.ENERGY   TOTAL ENERGY   ENERGY CHANGE        DEN1      VAR(S)    VAR(P)  DIIS     TIME
   1      1.27984593    -0.97930402  -268.35517265    -0.97930402    -0.02933542  0.65D-02  0.54D-02  1  1   177.90
   2      1.30625227    -1.00593145  -268.38180009    -0.02662743    -0.00363464  0.62D-03  0.97D-03  2  2   289.69
   3      1.32289841    -1.01275541  -268.38862404    -0.00682395    -0.00091131  0.75D-03  0.76D-04  3  3   405.98
   4      1.33413246    -1.01541468  -268.39128331    -0.00265927    -0.00038447  0.31D-03  0.33D-04  4  4   525.31
   5      1.34917549    -1.01740892  -268.39327755    -0.00199424    -0.00011761  0.10D-03  0.90D-05  5  5   645.31
   6      1.36067310    -1.01842955  -268.39429818    -0.00102063    -0.00001805  0.92D-05  0.32D-05  6  6   764.78
   7      1.36434549    -1.01866917  -268.39453780    -0.00023962    -0.00000315  0.16D-05  0.61D-06  6  1   884.22
   8      1.36494702    -1.01871115  -268.39457978    -0.00004198    -0.00000067  0.27D-06  0.15D-06  6  2  1002.82
   9      1.36526610    -1.01872953  -268.39459816    -0.00001838    -0.00000015  0.65D-07  0.32D-07  6  4  1120.96
  10      1.36525259    -1.01872826  -268.39459690     0.00000126    -0.00000002  0.10D-07  0.42D-08  6  3  1239.53
  11      1.36531464    -1.01873332  -268.39460196    -0.00000506    -0.00000000  0.23D-08  0.94D-09  6  5  1357.83
  12      1.36530718    -1.01873084  -268.39459948     0.00000248    -0.00000000  0.94D-09  0.21D-09  6  6  1476.29
  13      1.36530282    -1.01872970  -268.39459833     0.00000114    -0.00000000  0.53D-09  0.52D-10  6  1  1594.39
  14      1.36529025    -1.01872824  -268.39459687     0.00000146    -0.00000000  0.34D-09  0.18D-10  6  2  1712.82
  15      1.36528464    -1.01872756  -268.39459619     0.00000067    -0.00000000  0.27D-09  0.14D-10  6  3  1794.93
  16      1.36528187    -1.01872741  -268.39459604     0.00000016    -0.00000000  0.21D-09  0.11D-10  6  4  1877.02
  17      1.36528105    -1.01872739  -268.39459602     0.00000002    -0.00000000  0.11D-09  0.11D-10  6  5  1958.98
  18      1.36528314    -1.01872753  -268.39459616    -0.00000014    -0.00000000  0.27D-10  0.49D-11  6  6  2040.56
  19      1.36528609    -1.01872783  -268.39459646    -0.00000030    -0.00000000  0.26D-11  0.16D-11  6  2  2122.97
  20      1.36528555    -1.01872770  -268.39459633     0.00000013    -0.00000000  0.63D-12  0.17D-12  6  1  2204.37
  21      1.36528588    -1.01872774  -268.39459637    -0.00000005    -0.00000000  0.22D-12  0.58D-13  6  4  2286.64
  22      1.36528577    -1.01872773  -268.39459636     0.00000002    -0.00000000  0.73D-13  0.19D-13  6  2  2368.99
  23      1.36528584    -1.01872774  -268.39459637    -0.00000001    -0.00000000  0.21D-13  0.39D-14  6  3  2451.22
  24      1.36528576    -1.01872773  -268.39459636     0.00000001    -0.00000000  0.22D-14  0.74D-15  6  5  2533.67
  25      1.36528575    -1.01872773  -268.39459636     0.00000000    -0.00000000  0.65D-15  0.20D-15  6  6  2615.36
  26      1.36528574    -1.01872773  -268.39459636     0.00000000    -0.00000000  0.34D-15  0.71D-16  6  1  2697.09
  27      1.36528575    -1.01872773  -268.39459636    -0.00000000    -0.00000000  0.21D-15  0.18D-16  6  4  2778.63
  28      1.36528575    -1.01872773  -268.39459636    -0.00000000    -0.00000000  0.16D-15  0.89D-17  6  2  2860.31
  29      1.36528575    -1.01872773  -268.39459636    -0.00000000    -0.00000000  0.12D-15  0.65D-17  6  3  2978.82
  30      1.36528575    -1.01872773  -268.39459636     0.00000000    -0.00000000  0.66D-16  0.60D-17  6  5  3097.13
  31      1.36528575    -1.01872773  -268.39459636     0.00000000    -0.00000000  0.24D-16  0.32D-17  6  6  3215.54
  32      1.36528575    -1.01872773  -268.39459636     0.00000000    -0.00000000  0.10D-16  0.19D-17  6  1  3333.80
  33      1.36528575    -1.01872773  -268.39459636    -0.00000000    -0.00000000  0.51D-17  0.67D-18  6  4  3448.40

 Norm of t1 vector:      0.23102975      S-energy:    -0.00501474      T1 diagnostic:  0.02846765
                                                                       D1 diagnostic:  0.14584391
 Norm of t2 vector:      0.55848993      P-energy:    -1.01371299
                                         Alpha-Beta:  -0.80139858
                                         Alpha-Alpha: -0.10869127
                                         Beta-Beta:   -0.10362314

 Singles amplitudes (print threshold =  0.500E-01):

         I         SYM. A    A   T(IA) [Beta-Beta]

         8         1         1     -0.09571818
         9         1         1      0.09958124
        11         1         1     -0.05564897
        12         1         1     -0.07464924
        14         1         1     -0.11086848

 Spin contamination <S**2-Sz**2-Sz>     0.00175943

 Memory could be reduced to 360.52 Mwords without degradation in triples
 

 RESULTS
 =======

  Reference energy                   -267.375868631891
  UCCSD singles energy                 -0.005014736832
  UCCSD pair energy                    -1.013712989125
  UCCSD correlation energy             -1.018727725957
  Triples (T) contribution             -0.040840608257
  Total correlation energy             -1.059568334214
 
  RHF-UCCSD energy                   -268.394596357847
  RHF-UCCSD[T] energy                -268.438756163098
  RHF-UCCSD-T energy                 -268.434938489399
 !RHF-UCCSD(T) energy                -268.435436966104

 Program statistics:

 Available memory in ccsd:               999997692
 Min. memory needed in ccsd:              51505734
 Max. memory used in ccsd:                74803578
 Max. memory used in cckext:              59475747 (33 integral passes)
 Max. memory used in cckint:             145249478 ( 1 integral passes)



 **********************************************************************************************************************************
 DATASETS  * FILE   NREC   LENGTH (MB)   RECORD NAMES
              1      18        5.04       500      610      700      900      950      970     1000      129      960     1100   
                                          VAR    BASINP    GEOM    SYMINP    ZMAT    AOBASIS   BASIS     P2S    ABASIS      S 
                                         1400     1410     1200     1210     1080     1600     1650     1700   
                                           T        V       H0       H01     AOSYM     SMH    MOLCAS    OPER   

              2       3        2.21       700     1000     2100   
                                         GEOM     BASIS     RHF  

 PROGRAMS   *        TOTAL  UCCSD(T)       RHF       INT
 CPU TIMES  *      5593.62   5514.43     50.05     29.10
 REAL TIME  *      5731.77 SEC
 DISK USED  *        15.84 GB      
 SF USED    *         6.57 GB      
 GA USED    *         0.01 MB       (max)       0.00 MB       (current)
 **********************************************************************************************************************************

        UCCSD(T)        RHF-SCF 
   -268.43543697   -267.37586863
 **********************************************************************************************************************************
 Variable memory released
