
 Working directory              : /scratch/mel64643/tmp/40073141/
 Global scratch directory       : /scratch/mel64643/tmp/40073141/
 Wavefunction directory         : /home/mel64643/wfu/
 Main file repository           : /scratch/mel64643/tmp/40073141/

 id        : ccgc

 Nodes     nprocs
 a1-8         3
 Distribution of processes:   nprocs(total)=    4   nprocs(compute)=    3   nprocs(helper)=    1
 GA implementation: MPI file
 GA implementation (serial work in mppx): MPI file

 Using customized tuning parameters: mindgm=1; mindgv=20; mindgc=4; mindgr=1; noblas=0; minvec=7
 default implementation of scratch files=sf  


 Variables initialized (1015), CPU time= 0.00 sec
 ***,Optimization of min3
 memory,1000,m
 gthresh,energy=1.0d-12,orbital=1.0d-10,oneint=1.0d-16,twoint=1.0d-16,optgrad=1.0d-6,compress=1.0d-13
 geomtyp=xyz
 
  bohr
  geometry = {
  6
  arbitrary comment
  C   -1.3792779391   -0.0278494663   -0.0054064423
  O    1.3065225228    0.1218091206    0.0018621085
  H   -2.0764514861    1.9103226637    0.0017140112
  H   -2.1075431601   -0.9776528106    1.6836506776
  H   -2.1080648858   -0.9791495798   -1.6814431557
  H    1.9410907883   -1.5776120477   -0.0003856093
 }
 
 basis=cc-pvdz
 {rhf;maxit,200}
 {ccsd(t);maxit,200}
 Commands initialized (818), CPU time= 0.01 sec, 672 directives.
 Default parameters read. Elapsed time= 0.09 sec

 Checking input...
 Passed
1


                                         ***  PROGRAM SYSTEM MOLPRO  ***
                                       Copyright, TTI GmbH Stuttgart, 2015
                                    Version 2022.1 linked Mar  4 2022 00:40:14


 **********************************************************************************************************************************
 LABEL *   Optimization of min3                                                          
  64 bit mpp version                                                                     DATE: 07-Aug-25          TIME: 21:23:55  
 **********************************************************************************************************************************

 SHA1:             31073afc4d8441e10870424e0d77336a33bc4286
 **********************************************************************************************************************************

 Memory per process:      1000 MW
 Total memory per node:   3000 MW

 GA preallocation disabled
 GA check disabled

 Variable memory set to 1000.0 MW


 THRESHOLDS:

 ZERO    =  1.00D-12  ONEINT  =  1.00D-16  TWOINT  =  1.00D-16  PREFAC  =  1.00D-14  XXXXXX  =  1.00D-09  EORDER  =  1.00D-04
 ENERGY  =  1.00D-12  ETEST   =  0.00D+00  EDENS   =  0.00D+00  THRDEDEF=  1.00D-06  GRADIENT=  1.00D-05  STEP    =  1.00D-03
 ORBITAL =  1.00D-10  CIVEC   =  1.00D-05  COEFF   =  1.00D-04  PRINTCI =  5.00D-02  PUNCHCI =  9.90D+01  OPTGRAD =  1.00D-06
 OPTENERG=  1.00D-06  OPTSTEP =  3.00D-04  THRGRAD =  1.00D-10  COMPRESS=  1.00D-13  VARMIN  =  1.00D-07  VARMAX  =  1.00D-03
 THRDOUB =  0.00D+00  THRDIV  =  1.00D-05  THRRED  =  1.00D-07  THRPSP  =  1.00D+00  THRDC   =  1.00D-10  THRCS   =  1.00D-10
 THRNRM  =  1.00D-08  THREQ   =  0.00D+00  THRDE   =  1.00D+00  THRREF  =  1.00D-05  SPARFAC =  1.00D+00  THRDLP  =  1.00D-07
 THRDIA  =  1.00D-10  THRDLS  =  1.00D-07  THRGPS  =  0.00D+00  THRKEX  =  0.00D+00  THRDIS  =  2.00D-01  THRVAR  =  1.00D-10
 THRLOC  =  1.00D-06  THRGAP  =  1.00D-06  THRLOCT = -1.00D+00  THRGAPT = -1.00D+00  THRORB  =  1.00D-06  THRMLTP =  0.00D+00
 THRCPQCI=  1.00D-10  KEXTA   =  0.00D+00  THRCOARS=  0.00D+00  SYMTOL  =  1.00D-06  GRADTOL =  1.00D-06  THROVL  =  1.00D-08
 THRORTH =  1.00D-08  THRDLOVL= -1.00D+00  GRID    =  1.00D-06  GRIDMAX =  1.00D-03  DTMAX   =  0.00D+00  THROCCDE=  1.00D-01
 THROCCDE=  1.00D-01  THRPRINT=  2.50D-01

 SETTING GEOMTYP        =    XYZ
 ZUNIT=BOHR

 SETTING BASIS          =    CC-PVDZ


 Recomputing integrals since basis changed


 Using spherical harmonics

 Library entry C      S cc-pVDZ              selected for orbital group  1
 Library entry C      P cc-pVDZ              selected for orbital group  1
 Library entry C      D cc-pVDZ              selected for orbital group  1
 Library entry O      S cc-pVDZ              selected for orbital group  2
 Library entry O      P cc-pVDZ              selected for orbital group  2
 Library entry O      D cc-pVDZ              selected for orbital group  2
 Library entry H      S cc-pVDZ              selected for orbital group  3
 Library entry H      P cc-pVDZ              selected for orbital group  3


 PROGRAM * SEWARD (Integral evaluation for generally contracted gaussian basis sets)     Author: Roland Lindh, 1990

 Geometry written to block  1 of record 700


 Point group  C1  



 ATOMIC COORDINATES

 NR  ATOM    CHARGE       X              Y              Z

   1  C       6.00   -1.379277939   -0.027849466   -0.005406442
   2  O       8.00    1.306522523    0.121809121    0.001862109
   3  H       1.00   -2.076451486    1.910322664    0.001714011
   4  H       1.00   -2.107543160   -0.977652811    1.683650678
   5  H       1.00   -2.108064886   -0.979149580   -1.681443156
   6  H       1.00    1.941090788   -1.577612048   -0.000385609

 Bond lengths in Bohr (Angstrom)

 1-2  2.689976700  1-3  2.059760389  1-4  2.070123325  1-5  2.060388649  2-6  1.814032592
     ( 1.423474367)     ( 1.089978258)     ( 1.095462087)     ( 1.090310719)     ( 0.959944707)

 Bond angles

  1-2-6  107.28613640   2-1-3  106.59393049   2-1-4  111.99796033   2-1-5  112.39871886

  3-1-4  108.04935546   3-1-5  108.51445197   4-1-5  109.11357046

 NUCLEAR CHARGE:                   18
 NUMBER OF PRIMITIVE AOS:          82
 NUMBER OF SYMMETRY AOS:           80
 NUMBER OF CONTRACTIONS:           48   (   48A   )
 NUMBER OF INNER CORE ORBITALS:     0   (    0A   )
 NUMBER OF OUTER CORE ORBITALS:     2   (    2A   )
 NUMBER OF VALENCE ORBITALS:       12   (   12A   )


 NUCLEAR REPULSION ENERGY   40.27900578

 Eigenvalues of metric

         1 0.965E-02 0.177E-01 0.368E-01 0.373E-01 0.383E-01 0.470E-01 0.477E-01 0.519E-01


 Contracted 2-electron integrals neglected if value below      1.0D-16
 AO integral compression algorithm  1   Integral accuracy      1.0D-16

     7.078 MB (compressed) written to integral file (100.0%)

     Node minimum: 2.359 MB, node maximum: 2.359 MB


 NUMBER OF SORTED TWO-ELECTRON INTEGRALS:     231084.     BUFFER LENGTH:  32768
 NUMBER OF SEGMENTS:   1  SEGMENT LENGTH:     231084      RECORD LENGTH: 524288

 Memory used in sort:       0.79 MW

 SORT1 READ      832256. AND WROTE      227683. INTEGRALS IN      1 RECORDS. CPU TIME:     0.00 SEC, REAL TIME:     0.02 SEC
 SORT2 READ      682150. AND WROTE      692076. INTEGRALS IN     27 RECORDS. CPU TIME:     0.02 SEC, REAL TIME:     0.01 SEC

 Node minimum:      230300.  Node maximum:      231084. integrals

 OPERATOR DM      FOR CENTER  0  COORDINATES:    0.000000    0.000000    0.000000


 **********************************************************************************************************************************
 DATASETS  * FILE   NREC   LENGTH (MB)   RECORD NAMES
              1      18       28.73       500      610      700      900      950      970     1000      129      960     1100   
                                          VAR    BASINP    GEOM    SYMINP    ZMAT    AOBASIS   BASIS     P2S    ABASIS      S 
                                         1400     1410     1200     1210     1080     1600     1650     1700   
                                           T        V       H0       H01     AOSYM     SMH    MOLCAS    OPER   

 PROGRAMS   *        TOTAL       INT
 CPU TIMES  *         0.40      0.27
 REAL TIME  *         1.02 SEC
 DISK USED  *        29.07 MB (local),      104.69 MB (total)
 GA USED    *         0.00 MB       (max)       0.00 MB       (current)
 **********************************************************************************************************************************


 Program * Restricted Hartree-Fock

 Orbital guess generated from atomic densities. Full valence occupancy:   14

 Initial occupancy:   9

 NELEC=   18   SYM=1   MS2= 0   THRE=1.0D-12   THRD=1.0D-10   THRG=1.0D-10  HFMA2=F  DIIS_START=2   DIIS_MAX=10   DIIS_INCORE=F

 Level shifts:    0.00 (CLOSED)    0.00 (OPEN)    0.30 (GAP_MIN)

 ITER           ETOT              DE          GRAD        DDIFF     DIIS  NEXP   TIME(IT)  TIME(TOT)  DIAG
   1     -115.01406551    -115.01406551     0.00D+00     0.16D+00     0     0       0.00      0.01    start
   2     -115.04243776      -0.02837225     0.10D-01     0.21D-01     1     0       0.00      0.01    diag
   3     -115.04850354      -0.00606579     0.49D-02     0.64D-02     2     0       0.00      0.01    diag
   4     -115.04896779      -0.00046425     0.10D-02     0.20D-02     3     0       0.01      0.02    diag
   5     -115.04898891      -0.00002111     0.19D-03     0.43D-03     4     0       0.00      0.02    diag
   6     -115.04898971      -0.00000080     0.33D-04     0.93D-04     5     0       0.01      0.03    diag
   7     -115.04898974      -0.00000003     0.68D-05     0.15D-04     6     0       0.00      0.03    diag
   8     -115.04898975      -0.00000000     0.22D-05     0.51D-05     7     0       0.00      0.03    fixocc
   9     -115.04898975      -0.00000000     0.45D-06     0.14D-05     8     0       0.01      0.04    diag
  10     -115.04898975      -0.00000000     0.73D-07     0.24D-06     9     0       0.00      0.04    diag/orth
  11     -115.04898975      -0.00000000     0.17D-07     0.48D-07     9     0       0.00      0.04    diag
  12     -115.04898975       0.00000000     0.45D-08     0.14D-07     9     0       0.00      0.04    diag
  13     -115.04898975      -0.00000000     0.69D-09     0.20D-08     9     0       0.00      0.04    diag
  14     -115.04898975      -0.00000000     0.15D-09     0.40D-09     9     0       0.00      0.04    diag
  15     -115.04898975       0.00000000     0.65D-10     0.12D-09     9     0       0.01      0.05    diag
  16     -115.04898975       0.00000000     0.17D-10     0.39D-10     9     0       0.00      0.05    diag
  17     -115.04898975      -0.00000000     0.41D-11     0.69D-11     0     0       0.00      0.05    diag

 Final occupancy:   9

 !RHF STATE 1.1 Energy               -115.048989747828
  RHF One-electron energy            -236.825389011741
  RHF Two-electron energy              81.497393484646
  RHF Kinetic energy                  114.941200041130
  RHF Nuclear energy                   40.279005779267
  RHF Virial quotient                  -1.000937781289

 !RHF STATE 1.1 Dipole moment          -0.39779430    -0.59681508    -0.00389291
 Dipole moment /Debye                  -1.01109227    -1.51695262    -0.00989478

 Orbital energies:

           1.1          2.1          3.1          4.1          5.1          6.1          7.1          8.1          9.1         10.1
    -20.549787   -11.274588    -1.348787    -0.921459    -0.682097    -0.614145    -0.583628    -0.497224    -0.443584     0.184594

          11.1
      0.224550


 HOMO      9.1    -0.443584 =     -12.0705eV
 LUMO     10.1     0.184594 =       5.0231eV
 LUMO-HOMO         0.628178 =      17.0936eV

 Orbitals saved in record  2100.2


 **********************************************************************************************************************************
 DATASETS  * FILE   NREC   LENGTH (MB)   RECORD NAMES
              1      18       28.73       500      610      700      900      950      970     1000      129      960     1100   
                                          VAR    BASINP    GEOM    SYMINP    ZMAT    AOBASIS   BASIS     P2S    ABASIS      S 
                                         1400     1410     1200     1210     1080     1600     1650     1700   
                                           T        V       H0       H01     AOSYM     SMH    MOLCAS    OPER   

              2       4        0.47       700     1000      520     2100   
                                         GEOM     BASIS   MCVARS     RHF  

 PROGRAMS   *        TOTAL   RHF-SCF       INT
 CPU TIMES  *         0.46      0.05      0.27
 REAL TIME  *         1.32 SEC
 DISK USED  *        29.40 MB (local),      105.68 MB (total)
 GA USED    *         0.00 MB       (max)       0.00 MB       (current)
 **********************************************************************************************************************************


 PROGRAM * CCSD (Closed-shell coupled cluster)     Authors: C. Hampel, H.-J. Werner, 1991, M. Deegan, P.J. Knowles, 1992


 Convergence thresholds:  THRVAR = 1.00D-08  THRDEN = 1.00D-12

 CCSD(T)     terms to be evaluated (factor= 1.000)


 Number of core orbitals:           2 (   2 )
 Number of closed-shell orbitals:   7 (   7 )
 Number of external orbitals:      39 (  39 )

 Molecular orbitals read from record     2100.2  Type=RHF/CANONICAL  

 Number of N-1 electron functions:               7
 Number of N-2 electron functions:              28
 Number of singly external CSFs:               273
 Number of doubly external CSFs:             37401
 Total number of CSFs:                       37675

 Length of J-op  integral file:               0.00 MB
 Length of K-op  integral file:               0.16 MB
 Length of 3-ext integral record:             0.00 MB

 Memory could be reduced to 0.73 Mwords without degradation in triples

 Integral transformation finished. Total CPU:   0.02 sec, npass=  1  Memory used:   0.66 MW

 Reference energy:                   -115.04898975

 MP2 singlet pair energy:              -0.21869493
 MP2 triplet pair energy:              -0.11984591
 MP2 correlation energy:               -0.33854084
 MP2 total energy:                   -115.38753058

 SCS-MP2 correlation energy:           -0.33700470   (PS=  1.200000  PT=  0.333333)
 SCS-MP2 total energy:               -115.38599445

 ITER.      SQ.NORM     CORR.ENERGY   TOTAL ENERGY   ENERGY CHANGE        DEN1      VAR(S)    VAR(P)  DIIS     TIME  TIME/IT
   1      1.10737758    -0.36133073  -115.41032048    -0.02278989    -0.01409901  0.91D-03  0.17D-02  1  1     0.04     0.04
   2      1.11591290    -0.36327749  -115.41226724    -0.00194676    -0.00925797  0.20D-04  0.16D-03  2  2     0.06     0.03
   3      1.11780162    -0.36340526  -115.41239501    -0.00012777    -0.00120845  0.95D-05  0.86D-05  3  3     0.08     0.03
   4      1.11831909    -0.36340392  -115.41239367     0.00000134    -0.00025571  0.34D-06  0.68D-06  4  4     0.10     0.03
   5      1.11841786    -0.36340433  -115.41239408    -0.00000041    -0.00003626  0.10D-06  0.49D-07  5  5     0.11     0.03
   6      1.11843706    -0.36340296  -115.41239271     0.00000137    -0.00000437  0.16D-07  0.41D-08  6  6     0.13     0.03
   7      1.11844187    -0.36340254  -115.41239228     0.00000042    -0.00000035  0.20D-08  0.73D-09  6  1     0.15     0.03
   8      1.11844316    -0.36340264  -115.41239239    -0.00000010     0.00000076  0.26D-09  0.73D-10  6  3     0.17     0.03
   9      1.11844423    -0.36340251  -115.41239226     0.00000013    -0.00000039  0.13D-10  0.11D-10  6  2     0.19     0.03
  10      1.11844416    -0.36340252  -115.41239227    -0.00000000     0.00000007  0.11D-11  0.89D-12  6  5     0.21     0.03
  11      1.11844419    -0.36340251  -115.41239226     0.00000000    -0.00000000  0.19D-12  0.51D-13  6  4     0.23     0.03
  12      1.11844417    -0.36340252  -115.41239227    -0.00000000     0.00000001  0.19D-13  0.10D-13  6  1     0.25     0.03
  13      1.11844417    -0.36340252  -115.41239227    -0.00000000    -0.00000000  0.24D-14  0.95D-15  6  6     0.27     0.03
  14      1.11844417    -0.36340252  -115.41239226     0.00000000    -0.00000000  0.22D-15  0.12D-15  6  3     0.28     0.03
  15      1.11844417    -0.36340252  -115.41239226    -0.00000000    -0.00000000  0.26D-16  0.17D-16  6  2     0.30     0.03
  16      1.11844417    -0.36340252  -115.41239226    -0.00000000    -0.00000000  0.59D-17  0.17D-17  6  5     0.32     0.03
  17      1.11844417    -0.36340252  -115.41239226    -0.00000000    -0.00000000  0.59D-18  0.26D-18  6  4     0.34     0.03
  18      1.11844417    -0.36340252  -115.41239226     0.00000000    -0.00000000  0.97D-19  0.45D-19  6  1     0.36     0.03
  19      1.11844417    -0.36340252  -115.41239226    -0.00000000    -0.00000000  0.13D-19  0.47D-20  6  6     0.38     0.03
  20      1.11844417    -0.36340252  -115.41239226     0.00000000     0.00000000  0.22D-20  0.69D-21  6  3     0.40     0.03

 Norm of t1 vector:      0.04174423      S-energy:    -0.00000000      T1 diagnostic:  0.00788892
                                                                       D1 diagnostic:  0.01767985
                                                                       D2 diagnostic:  0.13458267 (internal)


 Total CPU time for triples:      0.09 sec


 RESULTS
 =======

  Reference energy                   -115.048989747828
  CCSD singlet pair energy             -0.254662579568
  CCSD triplet pair energy             -0.108739937601
  CCSD correlation energy              -0.363402517169

  Triples (T) contribution             -0.007746087728
  Total correlation energy             -0.371148604897

  CCSD total energy                  -115.412392264997
  CCSD[T] energy                     -115.420429071467
  CCSD-T energy                      -115.419987982538
 !CCSD(T) total energy               -115.420138352725

 Timing summary (sec):

 STEP                 CPU(USER)    SYS     CPU(TOT)    WALL
 Transformation          0.02      0.01      0.03      0.04
 CCSD iterations         0.38      0.09      0.47      0.66
 Triples                 0.09      0.00      0.09      0.09

 Program statistics:

 Available memory in ccsd:               999999795
 Min. memory needed in ccsd:                136177
 Max. memory used in ccsd:                  162910
 Max. memory used in cckext:                178997 (20 integral passes)



 **********************************************************************************************************************************
 DATASETS  * FILE   NREC   LENGTH (MB)   RECORD NAMES
              1      19       31.13       500      610      700      900      950      970     1000      129      960     1100   
                                          VAR    BASINP    GEOM    SYMINP    ZMAT    AOBASIS   BASIS     P2S    ABASIS      S 
                                         1400     1410     1200     1210     1080     1600     1650     1700     1380   
                                           T        V       H0       H01     AOSYM     SMH    MOLCAS    OPER     JKOP   

              2       4        0.47       700     1000      520     2100   
                                         GEOM     BASIS   MCVARS     RHF  

 PROGRAMS   *        TOTAL   CCSD(T)   RHF-SCF       INT
 CPU TIMES  *         0.99      0.53      0.05      0.27
 REAL TIME  *         2.19 SEC
 DISK USED  *        35.56 MB (local),      116.33 MB (total)
 SF USED    *         5.97 MB
 GA USED    *         0.00 MB       (max)       0.00 MB       (current)
 **********************************************************************************************************************************

 CCSD(T)/cc-pVDZ energy=   -115.420138352725

         CCSD(T)         RHF-SCF
   -115.42013835   -115.04898975
 **********************************************************************************************************************************
 Molpro calculation terminated
