
    -----------------------------------------------------------------------
          Psi4: An Open-Source Ab Initio Electronic Structure Package
                               Psi4 1.4a2.dev629 

                         Git: Rev {master} 2938fc2 dirty


    D. G. A. Smith, L. A. Burns, A. C. Simmonett, R. M. Parrish,
    M. C. Schieber, R. Galvelis, P. Kraus, H. Kruse, R. Di Remigio,
    A. Alenaizan, A. M. James, S. Lehtola, J. P. Misiewicz, M. Scheurer,
    R. A. Shaw, J. B. Schriber, Y. Xie, Z. L. Glick, D. A. Sirianni,
    J. S. O'Brien, J. M. Waldrop, A. Kumar, E. G. Hohenstein,
    B. P. Pritchard, B. R. Brooks, H. F. Schaefer III, A. Yu. Sokolov,
    K. Patkowski, A. E. DePrince III, U. Bozkaya, R. A. King,
    F. A. Evangelista, J. M. Turney, T. D. Crawford, C. D. Sherrill,
    J. Chem. Phys. 152(18) 184108 (2020). https://doi.org/10.1063/5.0006002

                            Additional Code Authors
    E. T. Seidl, C. L. Janssen, E. F. Valeev, M. L. Leininger,
    J. F. Gonthier, R. M. Richard, H. R. McAlexander, M. Saitow, X. Wang,
    P. Verma, and M. H. Lechner

             Previous Authors, Complete List of Code Contributors,
                       and Citations for Specific Modules
    https://github.com/psi4/psi4/blob/master/codemeta.json
    https://github.com/psi4/psi4/graphs/contributors
    http://psicode.org/psi4manual/master/introduction.html#citing-psifour

    -----------------------------------------------------------------------


    Psi4 started on: Wednesday, 21 September 2022 04:27PM

    Process ID: 12166
    Host:       n054
    PSIDATADIR: /opt/psi/4/master/share/psi4
    Memory:     500.0 MiB
    Threads:    1
    
  ==> Input File <==

--------------------------------------------------------------------------
# o-Benzyne preliminary computations

memory 14 gb

molecule {
  0 1
  units bohr
 C   -1.3750712117   -0.0242783422   -0.0029025007
 O    1.3060065526    0.1207007223    0.0023540776
 H   -2.0778699226    1.9096094252    0.0006330313
 H   -2.1048495861   -0.9790633576    1.6809078197
 H   -2.1131107810   -0.9796098575   -1.6829690168
 H    1.9411707887   -1.5774907102    0.0019681789
}

set {
  basis cc-pvtz
  reference rhf
  e_convergence 10 
  d_convergence 10
  r_convergence 8
  maxiter 300
  freeze_core True
}

e, wfn = energy('ccsd(t)', return_wfn = True)
psi4.print_out('Giraffe The Energy is %.12f \n'%(e))
--------------------------------------------------------------------------

  Memory set to  13.039 GiB by Python driver.

Scratch directory: /tmp/

*** tstart() called on n054
*** at Wed Sep 21 16:27:22 2022

   => Loading Basis Set <=

    Name: CC-PVTZ
    Role: ORBITAL
    Keyword: BASIS
    atoms 1   entry C          line   186 file /opt/psi/4/master/share/psi4/basis/cc-pvtz.gbs 
    atoms 2   entry O          line   262 file /opt/psi/4/master/share/psi4/basis/cc-pvtz.gbs 
    atoms 3-6 entry H          line    23 file /opt/psi/4/master/share/psi4/basis/cc-pvtz.gbs 


         ---------------------------------------------------------
                                   SCF
               by Justin Turney, Rob Parrish, Andy Simmonett
                          and Daniel G. A. Smith
                              RHF Reference
                        1 Threads,  13351 MiB Core
         ---------------------------------------------------------

  ==> Geometry <==

    Molecular point group: c1
    Full point group: C1

    Geometry (in Bohr), charge = 0, multiplicity = 1:

       Center              X                  Y                   Z               Mass       
    ------------   -----------------  -----------------  -----------------  -----------------
         C           -1.375067274584    -0.024277570951    -0.003007648953    12.000000000000
         O            1.306010489716     0.120701493549     0.002248929347    15.994914619570
         H           -2.077865985484     1.909610196449     0.000527883047     1.007825032230
         H           -2.104845648984    -0.979062586351     1.680802671447     1.007825032230
         H           -2.113106843884    -0.979609086251    -1.683074165053     1.007825032230
         H            1.941174725816    -1.577489938951     0.001863030647     1.007825032230

  Running in c1 symmetry.

  Rotational constants: A =      4.28209  B =      0.82705  C =      0.79795 [cm^-1]
  Rotational constants: A = 128373.88536  B =  24794.45124  C =  23922.08698 [MHz]
  Nuclear repulsion =   40.307810337798443

  Charge       = 0
  Multiplicity = 1
  Electrons    = 18
  Nalpha       = 9
  Nbeta        = 9

  ==> Algorithm <==

  SCF Algorithm Type is PK.
  DIIS enabled.
  MOM disabled.
  Fractional occupation disabled.
  Guess Type is SAD.
  Energy threshold   = 1.00e-10
  Density threshold  = 1.00e-10
  Integral threshold = 0.00e+00

  ==> Primary Basis <==

  Basis Set: CC-PVTZ
    Blend: CC-PVTZ
    Number of shells: 44
    Number of basis function: 116
    Number of Cartesian functions: 130
    Spherical Harmonics?: true
    Max angular momentum: 3

  ==> Integral Setup <==

  Using in-core PK algorithm.
   Calculation information:
      Number of atoms:                   6
      Number of AO shells:              44
      Number of primitives:             84
      Number of atomic orbitals:       130
      Number of basis functions:       116

      Integral cutoff                 1.00e-12
      Number of threads:                 1

  Performing in-core PK
  Using 46056582 doubles for integral storage.
  We computed 490478 shell quartets total.
  Whereas there are 490545 unique shell quartets.

  ==> DiskJK: Disk-Based J/K Matrices <==

    J tasked:                  Yes
    K tasked:                  Yes
    wK tasked:                  No
    Memory [MiB]:            10013
    Schwarz Cutoff:          1E-12

    OpenMP threads:              1

  Minimum eigenvalue in the overlap matrix is 1.8504420039E-03.
  Reciprocal condition number of the overlap matrix is 2.7981551046E-04.
    Using symmetric orthogonalization.

  ==> Pre-Iterations <==

  SCF Guess: Superposition of Atomic Densities via on-the-fly atomic UHF (no occupation information).

   -------------------------
    Irrep   Nso     Nmo    
   -------------------------
     A        116     116 
   -------------------------
    Total     116     116
   -------------------------

  ==> Iterations <==

                        Total Energy        Delta E     RMS |[F,P]|

   @RHF iter SAD:  -114.41440196637424   -1.14414e+02   0.00000e+00 
   @RHF iter   1:  -115.01448201524721   -6.00080e-01   3.41257e-03 DIIS
   @RHF iter   2:  -115.07130808931960   -5.68261e-02   1.95512e-03 DIIS
   @RHF iter   3:  -115.08814846570449   -1.68404e-02   3.00935e-04 DIIS
   @RHF iter   4:  -115.08903276878020   -8.84303e-04   8.77551e-05 DIIS
   @RHF iter   5:  -115.08910626198545   -7.34932e-05   2.14380e-05 DIIS
   @RHF iter   6:  -115.08911112387763   -4.86189e-06   4.73791e-06 DIIS
   @RHF iter   7:  -115.08911149146478   -3.67587e-07   1.09827e-06 DIIS
   @RHF iter   8:  -115.08911151299402   -2.15292e-08   2.26686e-07 DIIS
   @RHF iter   9:  -115.08911151390213   -9.08102e-10   4.21409e-08 DIIS
   @RHF iter  10:  -115.08911151393237   -3.02407e-11   1.08695e-08 DIIS
   @RHF iter  11:  -115.08911151393433   -1.96110e-12   2.22991e-09 DIIS
   @RHF iter  12:  -115.08911151393443   -9.94760e-14   3.99377e-10 DIIS
   @RHF iter  13:  -115.08911151393421    2.13163e-13   7.38882e-11 DIIS
  Energy and wave function converged.


  ==> Post-Iterations <==

    Orbital Energies [Eh]
    ---------------------

    Doubly Occupied:                                                      

       1A    -20.552620     2A    -11.269754     3A     -1.354104  
       4A     -0.923075     5A     -0.687874     6A     -0.617661  
       7A     -0.590046     8A     -0.502056     9A     -0.449144  

    Virtual:                                                              

      10A      0.138409    11A      0.178611    12A      0.220165  
      13A      0.223733    14A      0.290535    15A      0.386800  
      16A      0.404492    17A      0.544501    18A      0.583148  
      19A      0.623031    20A      0.625002    21A      0.637996  
      22A      0.689882    23A      0.703289    24A      0.720971  
      25A      0.833278    26A      0.864638    27A      0.872114  
      28A      0.927872    29A      1.067828    30A      1.100397  
      31A      1.177510    32A      1.189288    33A      1.261269  
      34A      1.272478    35A      1.281951    36A      1.365207  
      37A      1.446618    38A      1.491723    39A      1.521764  
      40A      1.544732    41A      1.582044    42A      1.619410  
      43A      1.772875    44A      2.092319    45A      2.179895  
      46A      2.196965    47A      2.299757    48A      2.322913  
      49A      2.489962    50A      2.511187    51A      2.578317  
      52A      2.805044    53A      2.949570    54A      3.054982  
      55A      3.108484    56A      3.115367    57A      3.145088  
      58A      3.222176    59A      3.242275    60A      3.312571  
      61A      3.313743    62A      3.342113    63A      3.384113  
      64A      3.499489    65A      3.612508    66A      3.633439  
      67A      3.698484    68A      3.705902    69A      3.743816  
      70A      3.759988    71A      3.813671    72A      3.835694  
      73A      3.904104    74A      4.010066    75A      4.028115  
      76A      4.117252    77A      4.159355    78A      4.168618  
      79A      4.245959    80A      4.254617    81A      4.285323  
      82A      4.396846    83A      4.435181    84A      4.463774  
      85A      4.555104    86A      4.579111    87A      4.709651  
      88A      4.780183    89A      4.991180    90A      5.030298  
      91A      5.050168    92A      5.199023    93A      5.264649  
      94A      5.309298    95A      5.366001    96A      5.435018  
      97A      5.538676    98A      5.541621    99A      5.557630  
     100A      5.784745   101A      5.943482   102A      6.187759  
     103A      6.205933   104A      6.243029   105A      6.423848  
     106A      6.635562   107A      6.994318   108A      7.125664  
     109A      7.175984   110A      7.235882   111A      7.352364  
     112A      7.428167   113A      7.594454   114A      7.907706  
     115A     12.127760   116A     13.687619  

    Final Occupation by Irrep:
              A 
    DOCC [     9 ]

  @RHF Final Energy:  -115.08911151393421

   => Energetics <=

    Nuclear Repulsion Energy =             40.3078103377984434
    One-Electron Energy =                -236.9011767577600551
    Two-Electron Energy =                  81.5042549060274126
    Total Energy =                       -115.0891115139342133

Computation Completed


Properties will be evaluated at   0.000000,   0.000000,   0.000000 [a0]

Properties computed using the SCF density matrix

  Nuclear Dipole Moment: [e a0]
     X:    -2.1570      Y:    -0.8066      Z:     0.0001

  Electronic Dipole Moment: [e a0]
     X:     1.7698      Y:     0.2184      Z:    -0.0013

  Dipole Moment: [e a0]
     X:    -0.3872      Y:    -0.5882      Z:    -0.0012     Total:     0.7042

  Dipole Moment: [D]
     X:    -0.9842      Y:    -1.4950      Z:    -0.0031     Total:     1.7899


*** tstop() called on n054 at Wed Sep 21 16:27:25 2022
Module time:
	user time   =       3.28 seconds =       0.05 minutes
	system time =       0.03 seconds =       0.00 minutes
	total time  =          3 seconds =       0.05 minutes
Total time:
	user time   =       3.28 seconds =       0.05 minutes
	system time =       0.03 seconds =       0.00 minutes
	total time  =          3 seconds =       0.05 minutes
 MINTS: Wrapper to libmints.
   by Justin Turney

   Calculation information:
      Number of threads:                 1
      Number of atoms:                   6
      Number of AO shells:              44
      Number of SO shells:              44
      Number of primitives:             84
      Number of atomic orbitals:       130
      Number of basis functions:       116

      Number of irreps:                  1
      Integral cutoff                 0.00e+00
      Number of functions per irrep: [ 116 ]

 OEINTS: Overlap, kinetic, potential, dipole, and quadrupole integrals
         stored in file 35.

      Computing two-electron integrals...done
      Computed 22871317 non-zero two-electron integrals.
        Stored in file 33.


*** tstart() called on n054
*** at Wed Sep 21 16:27:27 2022


	Wfn Parameters:
	--------------------
	Wavefunction         = CCSD_T
	Number of irreps     = 1
	Number of MOs        = 116
	Number of active MOs = 114
	AO-Basis             = NONE
	Semicanonical        = false
	Reference            = RHF
	Print Level          = 1

	IRREP	# MOs	# FZDC	# DOCC	# SOCC	# VIRT	# FZVR
	-----	-----	------	------	------	------	------
	 A	   116	    2	    7	    0	    107	    0
	Transforming integrals...
	IWL integrals will be deleted.
	(OO|OO)...
	Presorting SO-basis two-electron integrals.
	Sorting File: SO Ints (nn|nn) nbuckets = 1
	Transforming the one-electron integrals and constructing Fock matrices
	Starting first half-transformation.
	Sorting half-transformed integrals.
	First half integral transformation complete.
	Starting second half-transformation.
	Two-electron integral transformation complete.
	(OO|OV)...
	Starting second half-transformation.
	Two-electron integral transformation complete.
	(OO|VV)...
	Starting second half-transformation.
	Two-electron integral transformation complete.
	(OV|OO)...
	Starting first half-transformation.
	Sorting half-transformed integrals.
	First half integral transformation complete.
	Starting second half-transformation.
	Two-electron integral transformation complete.
	(OV|OV)...
	Starting second half-transformation.
	Two-electron integral transformation complete.
	(OV|VV)...
	Starting second half-transformation.
	Two-electron integral transformation complete.
	(VV|OO)...
	Starting first half-transformation.
	Sorting half-transformed integrals.
	First half integral transformation complete.
	Starting second half-transformation.
	Two-electron integral transformation complete.
	(VV|OV)...
	Starting second half-transformation.
	Two-electron integral transformation complete.
	(VV|VV)...
	Starting second half-transformation.
	Two-electron integral transformation complete.
	Frozen core energy     =   -106.48986591596736

	Size of irrep 0 of <ab|cd> integrals:    131.080 (MW) /   1048.637 (MB)
	Total:                                   131.080 (MW) /   1048.637 (MB)

	Size of irrep 0 of <ia|bc> integrals:      8.575 (MW) /     68.602 (MB)
	Total:                                     8.575 (MW) /     68.602 (MB)

	Size of irrep 0 of tijab amplitudes:       0.561 (MW) /      4.488 (MB)
	Total:                                     0.561 (MW) /      4.488 (MB)

	Nuclear Rep. energy          =     40.30781033779844
	SCF energy                   =   -115.08911151393421
	One-electron energy          =    -87.56619240322526
	Two-electron energy          =     38.65913646745927
	Reference energy             =   -115.08911151393491

*** tstop() called on n054 at Wed Sep 21 16:27:37 2022
Module time:
	user time   =       7.57 seconds =       0.13 minutes
	system time =       2.59 seconds =       0.04 minutes
	total time  =         10 seconds =       0.17 minutes
Total time:
	user time   =      12.40 seconds =       0.21 minutes
	system time =       2.79 seconds =       0.05 minutes
	total time  =         15 seconds =       0.25 minutes
            **************************
            *                        *
            *        CCENERGY        *
            *                        *
            **************************

    Nuclear Rep. energy (wfn)     =   40.307810337798443
    SCF energy          (wfn)     = -115.089111513934213
    Reference energy    (file100) = -115.089111513934910

    Input parameters:
    -----------------
    Wave function   =     CCSD_T
    Reference wfn   =     RHF
    Brueckner       =     No
    Memory (Mbytes) =     14000.0
    Maxiter         =    300
    R_Convergence   =     1.0e-08
    E_Convergence   =     1.0e-10
    Restart         =     Yes
    DIIS            =     Yes
    AO Basis        =     NONE
    ABCD            =     NEW
    Cache Level     =     2
    Cache Type      =     LOW
    Print Level     =     1
    Num. of threads =     1
    # Amps to Print =     10
    Print MP2 Amps? =     No
    Analyze T2 Amps =     No
    Print Pair Ener =     No
    Local CC        =     No
    SCS-MP2         =     False
    SCSN-MP2        =     False
    SCS-CCSD        =     False

MP2 correlation energy -0.4283344753853763
                Solving CC Amplitude Equations
                ------------------------------
  Iter             Energy              RMS        T1Diag      D1Diag    New D1Diag    D2Diag
  ----     ---------------------    ---------   ----------  ----------  ----------   --------
     0        -0.428334475385376    0.000e+00    0.000000    0.000000    0.000000    0.128386
     1        -0.435619789191870    4.785e-02    0.007307    0.014797    0.014797    0.129725
     2        -0.445454559721626    1.576e-02    0.007423    0.014738    0.014738    0.135515
     3        -0.446925760771192    5.532e-03    0.008330    0.016887    0.016887    0.136963
     4        -0.446833963190326    1.221e-03    0.008390    0.017001    0.017001    0.137199
     5        -0.446876855532155    4.460e-04    0.008429    0.017145    0.017145    0.137301
     6        -0.446884363474331    1.283e-04    0.008440    0.017201    0.017201    0.137309
     7        -0.446881870981538    4.759e-05    0.008443    0.017217    0.017217    0.137306
     8        -0.446881898880298    1.752e-05    0.008444    0.017227    0.017227    0.137306
     9        -0.446881982205566    4.965e-06    0.008445    0.017229    0.017229    0.137306
    10        -0.446881731837250    1.573e-06    0.008445    0.017229    0.017229    0.137306
    11        -0.446881797283268    4.898e-07    0.008445    0.017229    0.017229    0.137306
    12        -0.446881782471509    1.201e-07    0.008445    0.017229    0.017229    0.137306
    13        -0.446881785962496    4.355e-08    0.008445    0.017229    0.017229    0.137306
    14        -0.446881787178561    1.236e-08    0.008445    0.017229    0.017229    0.137306
    15        -0.446881787218768    5.165e-09    0.008445    0.017229    0.017229    0.137306
    16        -0.446881787241567    1.607e-09    0.008445    0.017229    0.017229    0.137306

    Iterations converged.


    Largest TIA Amplitudes:
              3   6        -0.0081317193
              3  14         0.0075945945
              6  14        -0.0067214424
              3   9         0.0067171651
              4   7         0.0058765489
              5   8         0.0058196632
              4   3        -0.0057782623
              6   6         0.0054844469
              3   2         0.0054824157
              4   5        -0.0051518150

    Largest TIjAb Amplitudes:
      3   3   9   9        -0.0230980225
      4   4   7   7        -0.0215785427
      6   6  14  14        -0.0210694315
      5   5  12  12        -0.0203778133
      2   2   7   7        -0.0190542134
      4   4   8   8        -0.0160886501
      3   3  14  14        -0.0151629018
      3   3   2   9        -0.0150982796
      3   3   9   2        -0.0150982796
      3   6   9   9        -0.0150021879

    SCF energy       (wfn)                    = -115.089111513934213
    Reference energy (file100)                = -115.089111513934910

    Opposite-spin MP2 correlation energy      =   -0.330131751816830
    Same-spin MP2 correlation energy          =   -0.098202723568546
    Singles MP2 correlation energy            =   -0.000000000000000
    MP2 correlation energy                    =   -0.428334475385376
      * MP2 total energy                      = -115.517445989320279

    Opposite-spin CCSD correlation energy     =   -0.357718974990588
    Same-spin CCSD correlation energy         =   -0.089162812250979
    Singles CCSD correlation energy           =    0.000000000000000
    CCSD correlation energy                   =   -0.446881787241567
      * CCSD total energy                     = -115.535993301176475

            **************************
            *                        *
            *        CCTRIPLES       *
            *                        *
            **************************


    Wave function   =    CCSD_T
    Reference wfn   =      RHF

    Nuclear Rep. energy (wfn)                =   40.307810337798443
    SCF energy          (wfn)                = -115.089111513934213
    Reference energy    (file100)            = -115.089111513934910
    CCSD energy         (file100)            =   -0.446881787241567
    Total CCSD energy   (file100)            = -115.535993301176475

    Number of ijk index combinations:               84
    Memory available in words        :      1750000000
    ~Words needed per explicit thread:         4900172
    Number of threads for explicit ijk threading:    1

    MKL num_threads set to 1 for explicit threading.

    (T) energy                                =   -0.014790183787660
      * CCSD(T) total energy                  = -115.550783484964143

Giraffe The Energy is -115.550783484964 

    Psi4 stopped on: Wednesday, 21 September 2022 04:28PM
    Psi4 wall time for execution: 0:00:43.53

*** Psi4 exiting successfully. Buy a developer a beer!
