
 Primary working directories    : /tmp/601555.40.gen4.q
 Secondary working directories  : /tmp/601555.40.gen4.q
 Wavefunction directory         : /home/vulcan/mel64643/wfu/
 Main file repository           : /tmp/601555.40.gen4.q/

 ARCHNAME  : Linux/x86_64
 FC        : /opt/intel/compilers_and_libraries_2016.1.150/linux/bin/intel64/ifort
 FCVERSION : 16.0.1
 BLASLIB   : -mkl
 id        : ccgc

 Nodes     nprocs
 n049         1
 ga_uses_ma=false, calling ma_init with nominal heap.
 GA-space will be limited to   8.0 MW (determined by -G option)

 Using customized tuning parameters: mindgm=10; mindgv=16; mindgc=4; mindgr=1; noblas=0; mincuda=1000; minvec=7
 default implementation of scratch files=df  

 ***,Optimization of min3
 memory,1000,m
 gthresh,energy=1.0d-12,orbital=1.0d-10,oneint=1.0d-16,twoint=1.0d-16,optgrad=1.0d-6,compress=1.0d-13
 geomtyp=xyz
 
  bohr
  geometry = {
  6
  arbitrary comment
  C   -1.3786177004   -0.0251378934   -0.0000063947
  O    1.3048921035    0.1204791120    0.0000025382
  H   -2.0773294212    1.9050904179   -0.0000774178
  H   -2.1073938554   -0.9762125862    1.6772785810
  H   -2.1073873057   -0.9763451974   -1.6772039308
  H    1.9421120192   -1.5780059729   -0.0000017859
 }
 
 basis=cc-pvdz
 {rhf;maxit,200}
 {ccsd(t);maxit,200}

 Variables initialized (661), CPU time= 0.00 sec
 Commands  initialized (458), CPU time= 0.01 sec, 486 directives.
 Default parameters read. Elapsed time= 0.05 sec

 Checking input...
 Passed
1


                                         ***  PROGRAM SYSTEM MOLPRO  ***
                         Copyright, University College Cardiff Consultants Limited, 2008

                                    Version 2010.1 linked May 16 2016 07:17:05


 **********************************************************************************************************************************
 LABEL *   Optimization of min3                                                          
 Linux-4.4.3/n049(x86_64) 64 bit mpp version                                             DATE: 06-Nov-21          TIME: 15:39:01  
 **********************************************************************************************************************************

 SHA1:             9e8077add272b0f3cad6f7df79ec5211205f459d
 **********************************************************************************************************************************

 THRESHOLDS:

 ZERO    =  1.00D-12  ONEINT  =  1.00D-16  TWOINT  =  1.00D-16  PREFAC  =  1.00D-14  LOCALI  =  1.00D-09  EORDER  =  1.00D-04
 ENERGY  =  1.00D-12  ETEST   =  0.00D+00  EDENS   =  0.00D+00  THRDEDEF=  1.00D-06  GRADIENT=  1.00D-02  STEP    =  1.00D-03
 ORBITAL =  1.00D-10  CIVEC   =  1.00D-05  COEFF   =  1.00D-04  PRINTCI =  5.00D-02  PUNCHCI =  9.90D+01  OPTGRAD =  1.00D-06
 OPTENERG=  1.00D-06  OPTSTEP =  3.00D-04  THRGRAD =  1.00D-10  COMPRESS=  1.00D-13  VARMIN  =  1.00D-07  VARMAX  =  1.00D-03
 THRDOUB =  0.00D+00  THRDIV  =  1.00D-05  THRRED  =  1.00D-07  THRPSP  =  1.00D+00  THRDC   =  1.00D-10  THRCS   =  1.00D-10
 THRNRM  =  1.00D-08  THREQ   =  0.00D+00  THRDE   =  1.00D+00  THRREF  =  1.00D-05  SPARFAC =  1.00D+00  THRDLP  =  1.00D-07
 THRDIA  =  1.00D-10  THRDLS  =  1.00D-07  THRGPS  =  0.00D+00  THRKEX  =  0.00D+00  THRDIS  =  2.00D-01  THRVAR  =  1.00D-10
 THRLOC  =  1.00D-06  THRGAP  =  1.00D-06  THRLOCT = -1.00D+00  THRGAPT = -1.00D+00  THRORB  =  1.00D-06  THRMLTP =  0.00D+00
 THRCPQCI=  1.00D-10  KEXTA   =  0.00D+00  THRCOARS=  0.00D+00  SYMTOL  =  1.00D-06  GRADTOL =  1.00D-06  THROVL  =  1.00D-08
 THRORTH =  1.00D-08  GRID    =  1.00D-06  GRIDMAX =  1.00D-03  DTMAX   =  0.00D+00

 SETTING GEOMTYP        =    XYZ
 ZUNIT=BOHR
 

 Variable memory set to 1000000000 words,  buffer space   230000 words

 SETTING BASIS          =    CC-PVDZ


 Recomputing integrals since basis changed


 Using spherical harmonics

 Library entry C      S cc-pVDZ              selected for orbital group  1
 Library entry C      P cc-pVDZ              selected for orbital group  1
 Library entry C      D cc-pVDZ              selected for orbital group  1
 Library entry O      S cc-pVDZ              selected for orbital group  2
 Library entry O      P cc-pVDZ              selected for orbital group  2
 Library entry O      D cc-pVDZ              selected for orbital group  2
 Library entry H      S cc-pVDZ              selected for orbital group  3
 Library entry H      P cc-pVDZ              selected for orbital group  3

1PROGRAM * SEWARD (Integral evaluation for generally contracted gaussian basis sets)     Author: Roland Lindh, 1990

 Geometry written to block  1 of record 700


 Point group  C1  



 ATOMIC COORDINATES

 NR  ATOM    CHARGE       X              Y              Z

   1  C       6.00   -1.378617700   -0.025137893   -0.000006395
   2  O       8.00    1.304892104    0.120479112    0.000002538
   3  H       1.00   -2.077329421    1.905090418   -0.000077418
   4  H       1.00   -2.107393855   -0.976212586    1.677278581
   5  H       1.00   -2.107387306   -0.976345197   -1.677203931
   6  H       1.00    1.942112019   -1.578005973   -0.000001786

 Bond lengths in Bohr (Angstrom)

 1-2  2.687457754  1-3  2.052797946  1-4  2.061296351  1-5  2.061284077  2-6  1.814084013
     ( 1.422141394)     ( 1.086293888)     ( 1.090791050)     ( 1.090784555)     ( 0.959971915)

 Bond angles

  1-2-6  107.45853124   2-1-3  106.79341308   2-1-4  112.21174221   2-1-5  112.21223566

  3-1-4  108.27248373   3-1-5  108.27291437   4-1-5  108.91512034

 NUCLEAR CHARGE:                   18
 NUMBER OF PRIMITIVE AOS:          82
 NUMBER OF SYMMETRY AOS:           80
 NUMBER OF CONTRACTIONS:           48   (  48A   )
 NUMBER OF CORE ORBITALS:           2   (   2A   )
 NUMBER OF VALENCE ORBITALS:       12   (  12A   )


 NUCLEAR REPULSION ENERGY   40.32506964


 Eigenvalues of metric

         1 0.964E-02 0.176E-01 0.365E-01 0.370E-01 0.381E-01 0.471E-01 0.471E-01 0.515E-01


 Contracted 2-electron integrals neglected if value below      1.0D-16
 AO integral compression algorithm  1   Integral accuracy      1.0D-16

     6.554 MB (compressed) written to integral file ( 95.5%)

     Node minimum: 6.554 MB, node maximum: 6.554 MB


 NUMBER OF SORTED TWO-ELECTRON INTEGRALS:     692076.     BUFFER LENGTH:  32768
 NUMBER OF SEGMENTS:   1  SEGMENT LENGTH:     692076      RECORD LENGTH: 524288

 Memory used in sort:       1.25 MW

 SORT1 READ      832256. AND WROTE      682150. INTEGRALS IN      2 RECORDS. CPU TIME:     0.01 SEC, REAL TIME:     0.01 SEC
 SORT2 READ      682150. AND WROTE      692076. INTEGRALS IN     25 RECORDS. CPU TIME:     0.01 SEC, REAL TIME:     0.02 SEC

 FILE SIZES:   FILE 1:     8.0 MBYTE,  FILE 4:     8.4 MBYTE,   TOTAL:     16.4 MBYTE

 OPERATOR DM      FOR CENTER  0  COORDINATES:    0.000000    0.000000    0.000000


 **********************************************************************************************************************************
 DATASETS  * FILE   NREC   LENGTH (MB)   RECORD NAMES
              1      19        8.05       500      610      700      900      950      970     1000      129      960     1100   
                                          VAR    BASINP    GEOM    SYMINP    ZMAT    AOBASIS   BASIS     P2S    ABASIS      S 
                                         1400     1410     1200     1210     1080     1600     1650     1300     1700   
                                           T        V       H0       H01     AOSYM     SMH    MOLCAS    ERIS     OPER   

 PROGRAMS   *        TOTAL       INT
 CPU TIMES  *         0.23      0.17
 REAL TIME  *         0.41 SEC
 DISK USED  *        23.62 MB      
 GA USED    *         0.00 MB       (max)       0.00 MB       (current)
 **********************************************************************************************************************************

1PROGRAM * RHF-SCF (CLOSED SHELL)       Authors: W. Meyer, H.-J. Werner


 NUMBER OF ELECTRONS:       9+    9-    SPACE SYMMETRY=1    SPIN SYMMETRY: Singlet 
 CONVERGENCE THRESHOLDS:    1.00E-10 (Density)    1.00E-13 (Energy)
 MAX. NUMBER OF ITERATIONS:      200
 INTERPOLATION TYPE:            DIIS
 INTERPOLATION STEPS:              2 (START)      1 (STEP)
 LEVEL SHIFTS:                  0.00 (CLOSED)  0.00 (OPEN) 



 Orbital guess generated from atomic densities. Full valence occupancy:   14

 Molecular orbital dump at record        2100.2

 ITERATION    DDIFF          GRAD             ENERGY        2-EL.EN.            DIPOLE MOMENTS         DIIS
    1      0.000D+00      0.000D+00      -115.01418066    164.429636   -0.49645   -0.90098   -0.00001    0
    2      0.000D+00      0.110D-01      -115.04253948    162.204068   -0.31967   -0.53643   -0.00001    1
    3      0.205D-01      0.529D-02      -115.04855946    163.231190   -0.40336   -0.61164   -0.00001    2
    4      0.639D-02      0.112D-02      -115.04902353    163.075021   -0.39344   -0.60054   -0.00001    3
    5      0.204D-02      0.202D-03      -115.04904459    163.081163   -0.39637   -0.59627   -0.00001    4
    6      0.432D-03      0.356D-04      -115.04904539    163.081475   -0.39670   -0.59606   -0.00001    5
    7      0.935D-04      0.754D-05      -115.04904542    163.080227   -0.39685   -0.59590   -0.00001    6
    8      0.152D-04      0.244D-05      -115.04904542    163.080610   -0.39689   -0.59587   -0.00001    7
    9      0.522D-05      0.494D-06      -115.04904542    163.080572   -0.39690   -0.59587   -0.00001    6
   10      0.142D-05      0.895D-07      -115.04904542    163.080570   -0.39690   -0.59587   -0.00001    6
   11      0.240D-06      0.333D-07      -115.04904542    163.080576   -0.39691   -0.59587   -0.00001    6
   12      0.600D-07      0.141D-07      -115.04904542    163.080574   -0.39691   -0.59587   -0.00001    7
   13      0.263D-07      0.309D-08      -115.04904542    163.080574   -0.39691   -0.59587   -0.00001    7
   14      0.772D-08      0.653D-09      -115.04904542    163.080574   -0.39691   -0.59587   -0.00001    7
   15      0.167D-08      0.151D-09      -115.04904542    163.080574   -0.39691   -0.59587   -0.00001    7
   16      0.338D-09      0.460D-10      -115.04904542    163.080574   -0.39691   -0.59587   -0.00001    7
   17      0.882D-10      0.151D-10      -115.04904542    163.080574   -0.39691   -0.59587   -0.00001    0

 Final occupancy:   9

 !RHF STATE 1.1 Energy               -115.049045423491
 Nuclear energy                        40.32506964
 One-electron energy                 -236.91440216
 Two-electron energy                   81.54028709
 Virial quotient                       -1.00082267
 !RHF STATE 1.1 Dipole moment          -0.39690594    -0.59586801    -0.00000755
 Dipole moment /Debye                  -1.00876820    -1.51444623    -0.00001920

 Orbital energies:

         1.1          2.1          3.1          4.1          5.1          6.1          7.1          8.1          9.1         10.1
    -20.549581   -11.273580    -1.349020    -0.922370    -0.682515    -0.614408    -0.584626    -0.497395    -0.443417     0.184763

        11.1
      0.224623


 **********************************************************************************************************************************
 DATASETS  * FILE   NREC   LENGTH (MB)   RECORD NAMES
              1      19        8.05       500      610      700      900      950      970     1000      129      960     1100   
                                          VAR    BASINP    GEOM    SYMINP    ZMAT    AOBASIS   BASIS     P2S    ABASIS      S 
                                         1400     1410     1200     1210     1080     1600     1650     1300     1700   
                                           T        V       H0       H01     AOSYM     SMH    MOLCAS    ERIS     OPER   

              2       3        0.39       700     1000     2100   
                                         GEOM     BASIS     RHF  

 PROGRAMS   *        TOTAL       RHF       INT
 CPU TIMES  *         0.31      0.08      0.17
 REAL TIME  *         0.52 SEC
 DISK USED  *        23.62 MB      
 GA USED    *         0.00 MB       (max)       0.00 MB       (current)
 **********************************************************************************************************************************


1PROGRAM * CCSD (Closed-shell coupled cluster)     Authors: C. Hampel, H.-J. Werner, 1991, M. Deegan, P.J. Knowles, 1992


 Convergence thresholds:  THRVAR = 1.00D-08  THRDEN = 1.00D-12

 CCSD(T)     terms to be evaluated (factor= 1.000)


 Number of core orbitals:           2 (   2 )
 Number of closed-shell orbitals:   7 (   7 )
 Number of external orbitals:      39 (  39 )

 Molecular orbitals read from record     2100.2  Type=RHF/CANONICAL (state 1.1)

 Number of N-1 electron functions:               7
 Number of N-2 electron functions:              28
 Number of singly external CSFs:               273
 Number of doubly external CSFs:             37401
 Total number of CSFs:                       37675

 Length of J-op  integral file:               0.00 MB
 Length of K-op  integral file:               0.19 MB
 Length of 3-ext integral record:             0.00 MB

 Memory could be reduced to 0.96 Mwords without degradation in triples

 Integral transformation finished. Total CPU:   0.02 sec, npass=  1  Memory used:   0.66 MW

 Reference energy:                   -115.04904542

 MP2 singlet pair energy:              -0.21854411
 MP2 triplet pair energy:              -0.11981662
 MP2 correlation energy:               -0.33836074
 MP2 total energy:                   -115.38740616

 SCS-MP2 correlation energy:           -0.33680550   (PS=  1.200000  PT=  0.333333)
 SCS-MP2 total energy:               -115.38585092

 ITER.      SQ.NORM     CORR.ENERGY   TOTAL ENERGY   ENERGY CHANGE        DEN1      VAR(S)    VAR(P)  DIIS     TIME
   1      1.10717187    -0.36113805  -115.41018347    -0.02277731    -0.01411225  0.91D-03  0.17D-02  1  1     0.06
   2      1.11566630    -0.36307724  -115.41212267    -0.00193920    -0.00923428  0.20D-04  0.16D-03  2  2     0.10
   3      1.11753734    -0.36320356  -115.41224898    -0.00012631    -0.00119968  0.94D-05  0.85D-05  3  3     0.14
   4      1.11804967    -0.36320218  -115.41224761     0.00000137    -0.00025366  0.34D-06  0.67D-06  4  4     0.18
   5      1.11814736    -0.36320257  -115.41224799    -0.00000038    -0.00003593  0.10D-06  0.49D-07  5  5     0.21
   6      1.11816635    -0.36320120  -115.41224663     0.00000136    -0.00000432  0.16D-07  0.41D-08  6  6     0.25
   7      1.11817115    -0.36320079  -115.41224621     0.00000042    -0.00000035  0.20D-08  0.72D-09  6  1     0.29
   8      1.11817243    -0.36320089  -115.41224631    -0.00000010     0.00000075  0.25D-09  0.73D-10  6  3     0.33
   9      1.11817349    -0.36320077  -115.41224619     0.00000012    -0.00000038  0.13D-10  0.10D-10  6  2     0.37
  10      1.11817355    -0.36320076  -115.41224619     0.00000000     0.00000000  0.14D-11  0.12D-11  6  4     0.40
  11      1.11817351    -0.36320076  -115.41224619     0.00000000     0.00000003  0.33D-12  0.84D-13  6  5     0.44
  12      1.11817346    -0.36320077  -115.41224619    -0.00000000     0.00000003  0.33D-13  0.13D-13  6  6     0.48
  13      1.11817344    -0.36320077  -115.41224619    -0.00000000     0.00000001  0.37D-14  0.16D-14  6  3     0.52
  14      1.11817344    -0.36320077  -115.41224619    -0.00000000     0.00000000  0.28D-15  0.14D-15  6  1     0.56
  15      1.11817344    -0.36320077  -115.41224619     0.00000000    -0.00000000  0.35D-16  0.31D-16  6  2     0.60
  16      1.11817344    -0.36320077  -115.41224619     0.00000000    -0.00000000  0.31D-17  0.16D-17  6  5     0.64
  17      1.11817344    -0.36320077  -115.41224619    -0.00000000     0.00000000  0.13D-18  0.12D-18  6  4     0.68
  18      1.11817344    -0.36320077  -115.41224619     0.00000000    -0.00000000  0.26D-19  0.12D-19  6  3     0.72
  19      1.11817344    -0.36320077  -115.41224619     0.00000000    -0.00000000  0.25D-20  0.10D-20  6  6     0.75

 Norm of t1 vector:      0.04163712      S-energy:    -0.00000000      T1 diagnostic:  0.00786868
                                                                       D1 diagnostic:  0.01762463


 Total CPU time for triples:      0.21 sec


 RESULTS
 =======

  Reference energy                   -115.049045423491
  CCSD singlet pair energy             -0.254449581728
  CCSD triplet pair energy             -0.108751185771
  CCSD correlation energy              -0.363200767500

  Triples (T) contribution             -0.007724087816
  Total correlation energy             -0.370924855315

  CCSD total energy                  -115.412246190991
  CCSD[T] energy                     -115.420258974872
  CCSD-T energy                      -115.419820971540
 !CCSD(T) total energy               -115.419970278807

 Timing summary (sec):

 STEP                 CPU(USER)    SYS     CPU(TOT)    WALL
 Transformation          0.02      0.00      0.02      0.03
 CCSD iterations         0.73      0.05      0.78      0.81
 Triples                 0.21      0.00      0.21      0.21

 Program statistics:

 Available memory in ccsd:               999999704
 Min. memory needed in ccsd:                136801
 Max. memory used in ccsd:                  163198
 Max. memory used in cckext:                182024 (19 integral passes)



 **********************************************************************************************************************************
 DATASETS  * FILE   NREC   LENGTH (MB)   RECORD NAMES
              1      20       10.59       500      610      700      900      950      970     1000      129      960     1100   
                                          VAR    BASINP    GEOM    SYMINP    ZMAT    AOBASIS   BASIS     P2S    ABASIS      S 
                                         1400     1410     1200     1210     1080     1600     1650     1300     1700     1380   
                                           T        V       H0       H01     AOSYM     SMH    MOLCAS    ERIS     OPER     JKOP   

              2       3        0.39       700     1000     2100   
                                         GEOM     BASIS     RHF  

 PROGRAMS   *        TOTAL   CCSD(T)       RHF       INT
 CPU TIMES  *         1.28      0.97      0.08      0.17
 REAL TIME  *         1.59 SEC
 DISK USED  *        25.05 MB      
 GA USED    *         0.00 MB       (max)       0.00 MB       (current)
 **********************************************************************************************************************************

        CCSD(T)         RHF-SCF 
   -115.41997028   -115.04904542
 **********************************************************************************************************************************
 Variable memory released
