
 Primary working directories    : /tmp/333988.33.gen6.q
 Secondary working directories  : /tmp/333988.33.gen6.q
 Wavefunction directory         : /home/vulcan/mel64643/wfu/
 Main file repository           : /tmp/333988.33.gen6.q/

 ARCHNAME  : Linux/x86_64
 FC        : /opt/intel/compilers_and_libraries_2016.1.150/linux/bin/intel64/ifort
 FCVERSION : 16.0.1
 BLASLIB   : -mkl
 id        : ccgc

 Nodes     nprocs
 n082         3
 Number of processes for MPI-2 version of Molpro:   nprocs(total)=    4   nprocs(compute)=    3   nprocs(helper)=    1
 ga_uses_ma=false, calling ma_init with nominal heap.
 GA-space will be limited to   8.0 MW (determined by -G option)

 Using customized tuning parameters: mindgm=10; mindgv=16; mindgc=4; mindgr=1; noblas=0; mincuda=1000; minvec=7
 default implementation of scratch files=sf  

 ***,Optimization of min3
 memory,1000,m
 gthresh,energy=1.0d-10,orbital=1.0d-10,oneint=1.0d-16,twoint=1.0d-16,optgrad=1.0d-6,compress=1.0d-13
 geomtyp=xyz
 
  bohr
  geometry = {
  12
  arbitrary comment
  C         -3.1010817308          1.5868446966          0.0215588287
  C         -0.8688152126         -0.0711768285         -0.6566069910
  C         -1.1167007330         -2.7800496436          0.2472663552
  O          1.3108681943          1.1046718810          0.5876119812
  O          3.4500743061          0.1199344266         -0.2518218122
  H         -4.7995001483          0.8419800657         -0.8798693567
  H         -2.8027007576          3.5204884830         -0.6240236844
  H         -3.3929042721          1.5939841636          2.0638178806
  H         -0.4283843242          0.0079097208         -2.6692674025
  H         -2.6988239620         -3.6879583917         -0.7173296937
  H         -1.4767059794         -2.8253801476          2.2790192077
  H          0.6046541489         -3.8316374719         -0.1643290744
 }
 
 basis=cc-pvtz
 {rhf;maxit,200}
 {uccsd(t);maxit,200}

 Variables initialized (661), CPU time= 0.01 sec
 Commands  initialized (458), CPU time= 0.00 sec, 486 directives.
 Default parameters read. Elapsed time= 0.04 sec

 Checking input...
 Passed
1


                                         ***  PROGRAM SYSTEM MOLPRO  ***
                         Copyright, University College Cardiff Consultants Limited, 2008

                                    Version 2010.1 linked May 16 2016 07:17:05


 **********************************************************************************************************************************
 LABEL *   Optimization of min3                                                          
 Linux-4.4.3/n082(x86_64) 64 bit mpp version                                             DATE: 15-Jul-20          TIME: 13:02:52  
 **********************************************************************************************************************************

 SHA1:             9e8077add272b0f3cad6f7df79ec5211205f459d
 **********************************************************************************************************************************

 THRESHOLDS:

 ZERO    =  1.00D-12  ONEINT  =  1.00D-16  TWOINT  =  1.00D-16  PREFAC  =  1.00D-14  LOCALI  =  1.00D-09  EORDER  =  1.00D-04
 ENERGY  =  1.00D-10  ETEST   =  0.00D+00  EDENS   =  0.00D+00  THRDEDEF=  1.00D-06  GRADIENT=  1.00D-02  STEP    =  1.00D-03
 ORBITAL =  1.00D-10  CIVEC   =  1.00D-05  COEFF   =  1.00D-04  PRINTCI =  5.00D-02  PUNCHCI =  9.90D+01  OPTGRAD =  1.00D-06
 OPTENERG=  1.00D-06  OPTSTEP =  3.00D-04  THRGRAD =  1.00D-10  COMPRESS=  1.00D-13  VARMIN  =  1.00D-07  VARMAX  =  1.00D-03
 THRDOUB =  0.00D+00  THRDIV  =  1.00D-05  THRRED  =  1.00D-07  THRPSP  =  1.00D+00  THRDC   =  1.00D-10  THRCS   =  1.00D-10
 THRNRM  =  1.00D-08  THREQ   =  0.00D+00  THRDE   =  1.00D+00  THRREF  =  1.00D-05  SPARFAC =  1.00D+00  THRDLP  =  1.00D-07
 THRDIA  =  1.00D-10  THRDLS  =  1.00D-07  THRGPS  =  0.00D+00  THRKEX  =  0.00D+00  THRDIS  =  2.00D-01  THRVAR  =  1.00D-10
 THRLOC  =  1.00D-06  THRGAP  =  1.00D-06  THRLOCT = -1.00D+00  THRGAPT = -1.00D+00  THRORB  =  1.00D-06  THRMLTP =  0.00D+00
 THRCPQCI=  1.00D-10  KEXTA   =  0.00D+00  THRCOARS=  0.00D+00  SYMTOL  =  1.00D-06  GRADTOL =  1.00D-06  THROVL  =  1.00D-08
 THRORTH =  1.00D-08  GRID    =  1.00D-06  GRIDMAX =  1.00D-03  DTMAX   =  0.00D+00

 SETTING GEOMTYP        =    XYZ
 ZUNIT=BOHR
 

 Variable memory set to 1000000000 words,  buffer space   230000 words

 SETTING BASIS          =    CC-PVTZ


 Recomputing integrals since basis changed


 Using spherical harmonics

 Library entry C      S cc-pVTZ              selected for orbital group  1
 Library entry C      P cc-pVTZ              selected for orbital group  1
 Library entry C      D cc-pVTZ              selected for orbital group  1
 Library entry C      F cc-pVTZ              selected for orbital group  1
 Library entry O      S cc-pVTZ              selected for orbital group  2
 Library entry O      P cc-pVTZ              selected for orbital group  2
 Library entry O      D cc-pVTZ              selected for orbital group  2
 Library entry O      F cc-pVTZ              selected for orbital group  2
 Library entry H      S cc-pVTZ              selected for orbital group  3
 Library entry H      P cc-pVTZ              selected for orbital group  3
 Library entry H      D cc-pVTZ              selected for orbital group  3

1PROGRAM * SEWARD (Integral evaluation for generally contracted gaussian basis sets)     Author: Roland Lindh, 1990

 Geometry written to block  1 of record 700


 Point group  C1  



 ATOMIC COORDINATES

 NR  ATOM    CHARGE       X              Y              Z

   1  C       6.00   -3.101081731    1.586844697    0.021558829
   2  C       6.00   -0.868815213   -0.071176828   -0.656606991
   3  C       6.00   -1.116700733   -2.780049644    0.247266355
   4  O       8.00    1.310868194    1.104671881    0.587611981
   5  O       8.00    3.450074306    0.119934427   -0.251821812
   6  H       1.00   -4.799500148    0.841980066   -0.879869357
   7  H       1.00   -2.802700758    3.520488483   -0.624023684
   8  H       1.00   -3.392904272    1.593984164    2.063817881
   9  H       1.00   -0.428384324    0.007909721   -2.669267403
  10  H       1.00   -2.698823962   -3.687958392   -0.717329694
  11  H       1.00   -1.476705979   -2.825380148    2.279019208
  12  H       1.00    0.604654149   -3.831637472   -0.164329074

 Bond lengths in Bohr (Angstrom)

 1-2  2.862159685  1-6  2.062042971  1-7  2.060287912  1-8  2.063015609  2-3  2.866430914
     ( 1.514589674)     ( 1.091186144)     ( 1.090257407)     ( 1.091700842)     ( 1.516849911)

  2- 4  2.771591744   2- 9  2.061804060   3-10  2.063457716   3-11  2.063898807   3-12  2.058715713
       ( 1.466663183)       ( 1.091059718)       ( 1.091934795)       ( 1.092168210)       ( 1.089425435)

 4-5  2.500111945
     ( 1.323002261)

 Bond angles

  1-2-3  113.90909925   1-2-4  105.14302747   1-2-9  112.06615786   2-1-6  109.24180680

  2- 1- 7  110.88446741   2- 1- 8  110.29699266   2- 3-10  109.55483352   2- 3-11  110.25872637

  2- 3-12  110.32654116   2- 4- 5  110.79833146   3- 2- 4  109.11001852   3- 2- 9  111.25609867

  4-2-9  104.71142414   6-1-7  108.74328062   6-1-8  108.51148322   7-1-8  109.11293749

 10- 3-11  108.46829928  10- 3-12  108.83730845  11- 3-12  109.35628298

 NUCLEAR CHARGE:                   41
 NUMBER OF PRIMITIVE AOS:         354
 NUMBER OF SYMMETRY AOS:          322
 NUMBER OF CONTRACTIONS:          248   ( 248A   )
 NUMBER OF CORE ORBITALS:           5   (   5A   )
 NUMBER OF VALENCE ORBITALS:       27   (  27A   )


 NUCLEAR REPULSION ENERGY  186.63708070


 Eigenvalues of metric

         1 0.806E-03 0.950E-03 0.110E-02 0.124E-02 0.136E-02 0.150E-02 0.160E-02 0.164E-02


 Contracted 2-electron integrals neglected if value below      1.0D-16
 AO integral compression algorithm  1   Integral accuracy      1.0D-16

     3372.745 MB (compressed) written to integral file ( 82.1%)

     Node minimum: 1118.831 MB, node maximum: 1131.676 MB


 NUMBER OF SORTED TWO-ELECTRON INTEGRALS:  158903334.     BUFFER LENGTH:  32768
 NUMBER OF SEGMENTS:  10  SEGMENT LENGTH:   15997437      RECORD LENGTH: 524288

 Memory used in sort:      16.55 MW

 SORT1 READ   513534692. AND WROTE   152643249. INTEGRALS IN    442 RECORDS. CPU TIME:     6.27 SEC, REAL TIME:     7.39 SEC
 SORT2 READ   459424384. AND WROTE   476679126. INTEGRALS IN  12804 RECORDS. CPU TIME:     1.26 SEC, REAL TIME:     2.78 SEC

 Node minimum:   158882750.  Node maximum:   158903334. integrals

 OPERATOR DM      FOR CENTER  0  COORDINATES:    0.000000    0.000000    0.000000


 **********************************************************************************************************************************
 DATASETS  * FILE   NREC   LENGTH (MB)   RECORD NAMES
              1      18        5.04       500      610      700      900      950      970     1000      129      960     1100   
                                          VAR    BASINP    GEOM    SYMINP    ZMAT    AOBASIS   BASIS     P2S    ABASIS      S 
                                         1400     1410     1200     1210     1080     1600     1650     1700   
                                           T        V       H0       H01     AOSYM     SMH    MOLCAS    OPER   

 PROGRAMS   *        TOTAL       INT
 CPU TIMES  *        13.50     13.46
 REAL TIME  *        16.79 SEC
 DISK USED  *         8.83 GB      
 GA USED    *         0.01 MB       (max)       0.00 MB       (current)
 **********************************************************************************************************************************

1PROGRAM * RHF-SCF (OPEN SHELL)       Authors: W. Meyer, H.-J. Werner


 NUMBER OF ELECTRONS:      21+   20-    SPACE SYMMETRY=1    SPIN SYMMETRY: Doublet 
 CONVERGENCE THRESHOLDS:    1.00E-10 (Density)    1.00E-11 (Energy)
 MAX. NUMBER OF ITERATIONS:      200
 INTERPOLATION TYPE:            DIIS
 INTERPOLATION STEPS:              2 (START)      1 (STEP)
 LEVEL SHIFTS:                 -0.30 (CLOSED)  0.00 (OPEN) 



 Orbital guess generated from atomic densities. Full valence occupancy:   32

 Molecular orbital dump at record        2100.2

 ITERATION    DDIFF          GRAD             ENERGY        2-EL.EN.            DIPOLE MOMENTS         DIIS
    1      0.000D+00      0.000D+00      -267.26111269    559.840697   -1.78369   -0.07014   -0.09722    0
    2      0.000D+00      0.326D-02      -267.33444190    562.677295   -1.02136   -0.43091   -0.35677    1
    3      0.471D-02      0.229D-02      -267.36090955    561.630817   -1.19583   -0.24260   -0.21530    2
    4      0.211D-02      0.547D-03      -267.36913612    561.819357   -0.98448   -0.31588   -0.29648    3
    5      0.927D-03      0.484D-03      -267.37336565    561.862481   -0.92858   -0.31828   -0.30090    4
    6      0.583D-03      0.273D-03      -267.37531979    561.830480   -0.88653   -0.31205   -0.29907    5
    7      0.488D-03      0.135D-03      -267.37566857    561.816371   -0.89607   -0.30043   -0.29094    6
    8      0.262D-03      0.357D-04      -267.37569060    561.813346   -0.89596   -0.29706   -0.28934    7
    9      0.844D-04      0.189D-04      -267.37570144    561.813644   -0.89839   -0.29763   -0.28943    8
   10      0.447D-04      0.826D-05      -267.37570329    561.813574   -0.89951   -0.29701   -0.28915    9
   11      0.200D-04      0.324D-05      -267.37570354    561.813483   -0.90019   -0.29683   -0.28897    9
   12      0.792D-05      0.150D-05      -267.37570361    561.813701   -0.90032   -0.29693   -0.28901    9
   13      0.374D-05      0.544D-06      -267.37570362    561.813760   -0.90033   -0.29699   -0.28904    9
   14      0.159D-05      0.316D-06      -267.37570362    561.813753   -0.90032   -0.29701   -0.28905    9
   15      0.947D-06      0.164D-06      -267.37570362    561.813756   -0.90032   -0.29701   -0.28905    9
   16      0.615D-06      0.105D-06      -267.37570362    561.813757   -0.90031   -0.29702   -0.28905    9
   17      0.344D-06      0.720D-07      -267.37570362    561.813748   -0.90031   -0.29701   -0.28905    9
   18      0.396D-06      0.587D-07      -267.37570362    561.813743   -0.90032   -0.29701   -0.28905    9
   19      0.387D-06      0.488D-07      -267.37570362    561.813744   -0.90031   -0.29701   -0.28905    9
   20      0.767D-06      0.328D-07      -267.37570362    561.813735   -0.90032   -0.29701   -0.28905    9
   21      0.739D-06      0.167D-07      -267.37570362    561.813733   -0.90032   -0.29701   -0.28905    9
   22      0.323D-06      0.937D-08      -267.37570362    561.813734   -0.90032   -0.29701   -0.28905    9
   23      0.116D-06      0.440D-08      -267.37570362    561.813734   -0.90032   -0.29701   -0.28905    9
   24      0.389D-07      0.245D-08      -267.37570362    561.813733   -0.90032   -0.29701   -0.28905    9
   25      0.127D-07      0.916D-09      -267.37570362    561.813734   -0.90032   -0.29701   -0.28905    9
   26      0.273D-08      0.419D-09      -267.37570362    561.813734   -0.90032   -0.29701   -0.28905    9
   27      0.275D-08      0.191D-09      -267.37570362    561.813734   -0.90032   -0.29701   -0.28905    9
   28      0.474D-09      0.797D-10      -267.37570362    561.813734   -0.90032   -0.29701   -0.28905    9
   29      0.238D-09      0.394D-10      -267.37570362    561.813734   -0.90032   -0.29701   -0.28905    9
   30      0.160D-09      0.219D-10      -267.37570362    561.813734   -0.90032   -0.29701   -0.28905    9
   31      0.809D-10      0.256D-10      -267.37570362    561.813734   -0.90032   -0.29701   -0.28905    0

 Final alpha occupancy:  21
 Final beta  occupancy:  20

 !RHF STATE 1.1 Energy               -267.375703624944
 Nuclear energy                       186.63708070
 One-electron energy                 -734.91965118
 Two-electron energy                  280.90686686
 Virial quotient                       -1.00115638
 !RHF STATE 1.1 Dipole moment          -0.90031972    -0.29701085    -0.28905221
 Dipole moment /Debye                  -2.28823460    -0.75487683    -0.73464932

 Orbital energies:

         1.1          2.1          3.1          4.1          5.1          6.1          7.1          8.1          9.1         10.1
    -20.648336   -20.639378   -11.297331   -11.229331   -11.225627    -1.522566    -1.170588    -1.034513    -0.953210    -0.819562

        11.1         12.1         13.1         14.1         15.1         16.1         17.1         18.1         19.1         20.1
     -0.694245    -0.667440    -0.652315    -0.595419    -0.562832    -0.558259    -0.544248    -0.502224    -0.490008    -0.464334

        21.1         22.1         23.1
     -0.562382     0.137658     0.174656


 **********************************************************************************************************************************
 DATASETS  * FILE   NREC   LENGTH (MB)   RECORD NAMES
              1      18        5.04       500      610      700      900      950      970     1000      129      960     1100   
                                          VAR    BASINP    GEOM    SYMINP    ZMAT    AOBASIS   BASIS     P2S    ABASIS      S 
                                         1400     1410     1200     1210     1080     1600     1650     1700   
                                           T        V       H0       H01     AOSYM     SMH    MOLCAS    OPER   

              2       3        2.21       700     1000     2100   
                                         GEOM     BASIS     RHF  

 PROGRAMS   *        TOTAL       RHF       INT
 CPU TIMES  *        57.59     44.09     13.46
 REAL TIME  *        64.11 SEC
 DISK USED  *         8.87 GB      
 SF USED    *         0.25 MB      
 GA USED    *         0.01 MB       (max)       0.00 MB       (current)
 **********************************************************************************************************************************


1PROGRAM * CCSD (Unrestricted open-shell coupled cluster)     Authors: C. Hampel, H.-J. Werner, 1991, M. Deegan, P.J. Knowles, 1992


 Convergence thresholds:  THRVAR = 1.00D-08  THRDEN = 1.00D-10

 CCSD(T)     terms to be evaluated (factor= 1.000)


 Number of core orbitals:           5 (   5 )
 Number of closed-shell orbitals:  15 (  15 )
 Number of active  orbitals:        1 (   1 )
 Number of external orbitals:     227 ( 227 )

 Memory could be reduced to 332.02 Mwords without degradation in triples

 Number of N-1 electron functions:              31
 Number of N-2 electron functions:             465
 Number of singly external CSFs:              7068
 Number of doubly external CSFs:          18353430
 Total number of CSFs:                    18360498

 Molecular orbitals read from record     2100.2  Type=RHF/CANONICAL (state 1.1)

 Integral transformation finished. Total CPU:  22.04 sec, npass=  1  Memory used: 145.25 MW

 Starting RMP2 calculation

 ITER.      SQ.NORM     CORR.ENERGY   TOTAL ENERGY   ENERGY CHANGE        DEN1      VAR(S)    VAR(P)  DIIS     TIME
   1      1.26543834    -0.96774634  -268.34344996    -0.96774634    -0.00323834  0.27D-04  0.11D-02  1  1    25.44
   2      1.26822597    -0.97123814  -268.34694176    -0.00349180    -0.00000669  0.10D-05  0.23D-05  2  2    28.04
   3      1.26830615    -0.97129115  -268.34699478    -0.00005302    -0.00000008  0.54D-07  0.11D-07  3  3    30.80
   4      1.26830787    -0.97129097  -268.34699459     0.00000019    -0.00000000  0.16D-08  0.12D-09  4  4    33.70
   5      1.26830813    -0.97129105  -268.34699468    -0.00000009    -0.00000000  0.19D-10  0.46D-11  5  5    36.72
   6      1.26830819    -0.97129109  -268.34699471    -0.00000003    -0.00000000  0.50D-13  0.56D-13  6  6    40.02
   7      1.26830819    -0.97129108  -268.34699471     0.00000000    -0.00000000  0.15D-14  0.86D-15  6  1    43.26
   8      1.26830819    -0.97129108  -268.34699471     0.00000000    -0.00000000  0.15D-16  0.80D-17  6  2    46.67
   9      1.26830819    -0.97129108  -268.34699471    -0.00000000    -0.00000000  0.31D-18  0.10D-18  6  3    50.15

 Norm of t1 vector:      0.04593651      S-energy:    -0.00447102      T1 diagnostic:  0.00074600
 Norm of t2 vector:      0.51594382      P-energy:    -0.96682007
                                         Alpha-Beta:  -0.73716540
                                         Alpha-Alpha: -0.11900677
                                         Beta-Beta:   -0.11064790

 Spin contamination <S**2-Sz**2-Sz>     0.00145866
  Reference energy                   -267.375703624947
  RHF-RMP2 correlation energy          -0.971291084744
 !RHF-RMP2 energy                    -268.346994709691

 Starting UCCSD calculation

 ITER.      SQ.NORM     CORR.ENERGY   TOTAL ENERGY   ENERGY CHANGE        DEN1      VAR(S)    VAR(P)  DIIS     TIME
   1      1.27988500    -0.97933998  -268.35504360    -0.97933998    -0.02936505  0.65D-02  0.54D-02  1  1   126.64
   2      1.30632205    -1.00598008  -268.38168371    -0.02664011    -0.00364619  0.62D-03  0.97D-03  2  2   203.00
   3      1.32303984    -1.01281788  -268.38852150    -0.00683779    -0.00091695  0.76D-03  0.76D-04  3  3   279.65
   4      1.33434640    -1.01548637  -268.39118999    -0.00266849    -0.00038804  0.31D-03  0.33D-04  4  4   356.57
   5      1.34955395    -1.01749721  -268.39320083    -0.00201084    -0.00011899  0.10D-03  0.91D-05  5  5   433.62
   6      1.36119455    -1.01852765  -268.39423127    -0.00103044    -0.00001836  0.94D-05  0.32D-05  6  6   510.77
   7      1.36493445    -1.01877108  -268.39447470    -0.00024343    -0.00000321  0.16D-05  0.62D-06  6  1   588.04
   8      1.36554727    -1.01881374  -268.39451736    -0.00004266    -0.00000068  0.27D-06  0.15D-06  6  2   665.16
   9      1.36587315    -1.01883256  -268.39453619    -0.00001882    -0.00000015  0.66D-07  0.33D-07  6  4   742.55
  10      1.36585912    -1.01883124  -268.39453486     0.00000133    -0.00000002  0.10D-07  0.43D-08  6  3   819.66
  11      1.36592239    -1.01883638  -268.39454000    -0.00000514    -0.00000000  0.18D-08  0.94D-09  6  5   896.95
  12      1.36591475    -1.01883387  -268.39453749     0.00000251    -0.00000000  0.52D-09  0.19D-09  6  6   974.18
  13      1.36591046    -1.01883275  -268.39453637     0.00000112    -0.00000000  0.16D-09  0.39D-10  6  1  1051.33
  14      1.36589867    -1.01883136  -268.39453499     0.00000139    -0.00000000  0.29D-10  0.53D-11  6  3  1128.57
  15      1.36589448    -1.01883087  -268.39453450     0.00000049    -0.00000000  0.62D-11  0.20D-11  6  2  1205.74
  16      1.36589270    -1.01883075  -268.39453438     0.00000012    -0.00000000  0.31D-11  0.38D-12  6  4  1282.89
  17      1.36589211    -1.01883071  -268.39453434     0.00000004    -0.00000000  0.21D-11  0.14D-12  6  6  1360.04
  18      1.36589191    -1.01883070  -268.39453433     0.00000001    -0.00000000  0.17D-11  0.79D-13  6  5  1437.28
  19      1.36589204    -1.01883073  -268.39453435    -0.00000003    -0.00000000  0.12D-11  0.70D-13  6  3  1514.33
  20      1.36589195    -1.01883071  -268.39453433     0.00000002    -0.00000000  0.66D-12  0.54D-13  6  1  1591.56
  21      1.36589210    -1.01883072  -268.39453434    -0.00000001    -0.00000000  0.25D-12  0.35D-13  6  2  1668.65
  22      1.36589207    -1.01883071  -268.39453434     0.00000001    -0.00000000  0.85D-13  0.15D-13  6  4  1745.75
  23      1.36589212    -1.01883072  -268.39453435    -0.00000001    -0.00000000  0.26D-13  0.53D-14  6  5  1823.03
  24      1.36589210    -1.01883072  -268.39453435    -0.00000000    -0.00000000  0.59D-14  0.22D-14  6  6  1914.91
  25      1.36589208    -1.01883072  -268.39453434     0.00000000    -0.00000000  0.20D-14  0.52D-15  6  5  2016.58
  26      1.36589207    -1.01883072  -268.39453434     0.00000000    -0.00000000  0.17D-15  0.73D-16  6  2  2107.67
  27      1.36589207    -1.01883072  -268.39453434    -0.00000000    -0.00000000  0.86D-16  0.23D-16  6  3  2209.49
  28      1.36589208    -1.01883072  -268.39453434    -0.00000000    -0.00000000  0.29D-16  0.58D-17  6  1  2311.09
  29      1.36589208    -1.01883072  -268.39453434    -0.00000000    -0.00000000  0.79D-17  0.21D-17  6  4  2405.40
  30      1.36589209    -1.01883072  -268.39453434    -0.00000000    -0.00000000  0.15D-17  0.59D-18  6  6  2505.94
  31      1.36589209    -1.01883072  -268.39453434    -0.00000000    -0.00000000  0.60D-18  0.76D-19  6  5  2593.43

 Norm of t1 vector:      0.23205928      S-energy:    -0.00502015      T1 diagnostic:  0.02859904
                                                                       D1 diagnostic:  0.14656297
 Norm of t2 vector:      0.55860592      P-energy:    -1.01381057
                                         Alpha-Beta:  -0.80145619
                                         Alpha-Alpha: -0.10868970
                                         Beta-Beta:   -0.10366467

 Singles amplitudes (print threshold =  0.500E-01):

         I         SYM. A    A   T(IA) [Beta-Beta]

         8         1         1     -0.09489018
         9         1         1      0.10007599
        11         1         1     -0.05383164
        12         1         1     -0.07419596
        14         1         1     -0.11399267

 Spin contamination <S**2-Sz**2-Sz>     0.00177290

 Memory could be reduced to 360.52 Mwords without degradation in triples
 

 RESULTS
 =======

  Reference energy                   -267.375703624947
  UCCSD singles energy                 -0.005020153401
  UCCSD pair energy                    -1.013810566124
  UCCSD correlation energy             -1.018830719524
  Triples (T) contribution             -0.040860833991
  Total correlation energy             -1.059691553515
 
  RHF-UCCSD energy                   -268.394534344471
  RHF-UCCSD[T] energy                -268.438736191798
  RHF-UCCSD-T energy                 -268.434898975686
 !RHF-UCCSD(T) energy                -268.435395178462

 Program statistics:

 Available memory in ccsd:               999997692
 Min. memory needed in ccsd:              51505734
 Max. memory used in ccsd:                74803578
 Max. memory used in cckext:              59475747 (31 integral passes)
 Max. memory used in cckint:             145249478 ( 1 integral passes)



 **********************************************************************************************************************************
 DATASETS  * FILE   NREC   LENGTH (MB)   RECORD NAMES
              1      18        5.04       500      610      700      900      950      970     1000      129      960     1100   
                                          VAR    BASINP    GEOM    SYMINP    ZMAT    AOBASIS   BASIS     P2S    ABASIS      S 
                                         1400     1410     1200     1210     1080     1600     1650     1700   
                                           T        V       H0       H01     AOSYM     SMH    MOLCAS    OPER   

              2       3        2.21       700     1000     2100   
                                         GEOM     BASIS     RHF  

 PROGRAMS   *        TOTAL  UCCSD(T)       RHF       INT
 CPU TIMES  *      4345.20   4287.59     44.09     13.46
 REAL TIME  *      4433.08 SEC
 DISK USED  *        15.85 GB      
 SF USED    *         6.57 GB      
 GA USED    *         0.01 MB       (max)       0.00 MB       (current)
 **********************************************************************************************************************************

        UCCSD(T)        RHF-SCF 
   -268.43539518   -267.37570362
 **********************************************************************************************************************************
 Variable memory released
