
 Primary working directories    : /tmp/601555.73.gen4.q
 Secondary working directories  : /tmp/601555.73.gen4.q
 Wavefunction directory         : /home/vulcan/mel64643/wfu/
 Main file repository           : /tmp/601555.73.gen4.q/

 ARCHNAME  : Linux/x86_64
 FC        : /opt/intel/compilers_and_libraries_2016.1.150/linux/bin/intel64/ifort
 FCVERSION : 16.0.1
 BLASLIB   : -mkl
 id        : ccgc

 Nodes     nprocs
 n033         1
 ga_uses_ma=false, calling ma_init with nominal heap.
 GA-space will be limited to   8.0 MW (determined by -G option)

 Using customized tuning parameters: mindgm=10; mindgv=16; mindgc=4; mindgr=1; noblas=0; mincuda=1000; minvec=7
 default implementation of scratch files=df  

 ***,Optimization of min3
 memory,1000,m
 gthresh,energy=1.0d-12,orbital=1.0d-10,oneint=1.0d-16,twoint=1.0d-16,optgrad=1.0d-6,compress=1.0d-13
 geomtyp=xyz
 
  bohr
  geometry = {
  6
  arbitrary comment
  C   -1.3744803585   -0.0243711047   -0.0011361076
  O    1.2994592823    0.1184931788   -0.0042700895
  H   -2.0773645326    1.9103374339    0.0019446832
  H   -2.1078642337   -0.9791990793    1.6835186897
  H   -2.1066331975   -0.9782021899   -1.6833470714
  H    1.9431588800   -1.5771903589    0.0032814857
 }
 
 basis=cc-pvdz
 {rhf;maxit,200}
 {ccsd(t);maxit,200}

 Variables initialized (661), CPU time= 0.00 sec
 Commands  initialized (458), CPU time= 0.00 sec, 486 directives.
 Default parameters read. Elapsed time= 0.06 sec

 Checking input...
 Passed
1


                                         ***  PROGRAM SYSTEM MOLPRO  ***
                         Copyright, University College Cardiff Consultants Limited, 2008

                                    Version 2010.1 linked May 16 2016 07:17:05


 **********************************************************************************************************************************
 LABEL *   Optimization of min3                                                          
 Linux-4.4.3/n033(x86_64) 64 bit mpp version                                             DATE: 06-Nov-21          TIME: 15:39:31  
 **********************************************************************************************************************************

 SHA1:             9e8077add272b0f3cad6f7df79ec5211205f459d
 **********************************************************************************************************************************

 THRESHOLDS:

 ZERO    =  1.00D-12  ONEINT  =  1.00D-16  TWOINT  =  1.00D-16  PREFAC  =  1.00D-14  LOCALI  =  1.00D-09  EORDER  =  1.00D-04
 ENERGY  =  1.00D-12  ETEST   =  0.00D+00  EDENS   =  0.00D+00  THRDEDEF=  1.00D-06  GRADIENT=  1.00D-02  STEP    =  1.00D-03
 ORBITAL =  1.00D-10  CIVEC   =  1.00D-05  COEFF   =  1.00D-04  PRINTCI =  5.00D-02  PUNCHCI =  9.90D+01  OPTGRAD =  1.00D-06
 OPTENERG=  1.00D-06  OPTSTEP =  3.00D-04  THRGRAD =  1.00D-10  COMPRESS=  1.00D-13  VARMIN  =  1.00D-07  VARMAX  =  1.00D-03
 THRDOUB =  0.00D+00  THRDIV  =  1.00D-05  THRRED  =  1.00D-07  THRPSP  =  1.00D+00  THRDC   =  1.00D-10  THRCS   =  1.00D-10
 THRNRM  =  1.00D-08  THREQ   =  0.00D+00  THRDE   =  1.00D+00  THRREF  =  1.00D-05  SPARFAC =  1.00D+00  THRDLP  =  1.00D-07
 THRDIA  =  1.00D-10  THRDLS  =  1.00D-07  THRGPS  =  0.00D+00  THRKEX  =  0.00D+00  THRDIS  =  2.00D-01  THRVAR  =  1.00D-10
 THRLOC  =  1.00D-06  THRGAP  =  1.00D-06  THRLOCT = -1.00D+00  THRGAPT = -1.00D+00  THRORB  =  1.00D-06  THRMLTP =  0.00D+00
 THRCPQCI=  1.00D-10  KEXTA   =  0.00D+00  THRCOARS=  0.00D+00  SYMTOL  =  1.00D-06  GRADTOL =  1.00D-06  THROVL  =  1.00D-08
 THRORTH =  1.00D-08  GRID    =  1.00D-06  GRIDMAX =  1.00D-03  DTMAX   =  0.00D+00

 SETTING GEOMTYP        =    XYZ
 ZUNIT=BOHR
 

 Variable memory set to 1000000000 words,  buffer space   230000 words

 SETTING BASIS          =    CC-PVDZ


 Recomputing integrals since basis changed


 Using spherical harmonics

 Library entry C      S cc-pVDZ              selected for orbital group  1
 Library entry C      P cc-pVDZ              selected for orbital group  1
 Library entry C      D cc-pVDZ              selected for orbital group  1
 Library entry O      S cc-pVDZ              selected for orbital group  2
 Library entry O      P cc-pVDZ              selected for orbital group  2
 Library entry O      D cc-pVDZ              selected for orbital group  2
 Library entry H      S cc-pVDZ              selected for orbital group  3
 Library entry H      P cc-pVDZ              selected for orbital group  3

1PROGRAM * SEWARD (Integral evaluation for generally contracted gaussian basis sets)     Author: Roland Lindh, 1990

 Geometry written to block  1 of record 700


 Point group  C1  



 ATOMIC COORDINATES

 NR  ATOM    CHARGE       X              Y              Z

   1  C       6.00   -1.374480359   -0.024371105   -0.001136108
   2  O       8.00    1.299459282    0.118493179   -0.004270090
   3  H       1.00   -2.077364533    1.910337434    0.001944683
   4  H       1.00   -2.107864234   -0.979199079    1.683518690
   5  H       1.00   -2.106633197   -0.978202190   -1.683347071
   6  H       1.00    1.943158880   -1.577190359    0.003281486

 Bond lengths in Bohr (Angstrom)

 1-2  2.677755259  1-3  2.058434547  1-4  2.070654523  1-5  2.067770598  2-6  1.813766484
     ( 1.417007054)     ( 1.089276648)     ( 1.095743182)     ( 1.094217074)     ( 0.959803886)

 Bond angles

  1-2-6  107.72851954   2-1-3  106.90796280   2-1-4  112.28594874   2-1-5  112.16234795

  3-1-4  108.13453294   3-1-5  108.29263932   4-1-5  108.89085988

 NUCLEAR CHARGE:                   18
 NUMBER OF PRIMITIVE AOS:          82
 NUMBER OF SYMMETRY AOS:           80
 NUMBER OF CONTRACTIONS:           48   (  48A   )
 NUMBER OF CORE ORBITALS:           2   (   2A   )
 NUMBER OF VALENCE ORBITALS:       12   (  12A   )


 NUCLEAR REPULSION ENERGY   40.36112765


 Eigenvalues of metric

         1 0.965E-02 0.176E-01 0.368E-01 0.374E-01 0.381E-01 0.473E-01 0.478E-01 0.518E-01


 Contracted 2-electron integrals neglected if value below      1.0D-16
 AO integral compression algorithm  1   Integral accuracy      1.0D-16

     6.816 MB (compressed) written to integral file (100.0%)

     Node minimum: 6.816 MB, node maximum: 6.816 MB


 NUMBER OF SORTED TWO-ELECTRON INTEGRALS:     692076.     BUFFER LENGTH:  32768
 NUMBER OF SEGMENTS:   1  SEGMENT LENGTH:     692076      RECORD LENGTH: 524288

 Memory used in sort:       1.25 MW

 SORT1 READ      832256. AND WROTE      682150. INTEGRALS IN      2 RECORDS. CPU TIME:     0.01 SEC, REAL TIME:     0.02 SEC
 SORT2 READ      682150. AND WROTE      692076. INTEGRALS IN     26 RECORDS. CPU TIME:     0.01 SEC, REAL TIME:     0.02 SEC

 FILE SIZES:   FILE 1:     8.4 MBYTE,  FILE 4:     8.4 MBYTE,   TOTAL:     16.8 MBYTE

 OPERATOR DM      FOR CENTER  0  COORDINATES:    0.000000    0.000000    0.000000


 **********************************************************************************************************************************
 DATASETS  * FILE   NREC   LENGTH (MB)   RECORD NAMES
              1      19        8.43       500      610      700      900      950      970     1000      129      960     1100   
                                          VAR    BASINP    GEOM    SYMINP    ZMAT    AOBASIS   BASIS     P2S    ABASIS      S 
                                         1400     1410     1200     1210     1080     1600     1650     1300     1700   
                                           T        V       H0       H01     AOSYM     SMH    MOLCAS    ERIS     OPER   

 PROGRAMS   *        TOTAL       INT
 CPU TIMES  *         0.33      0.28
 REAL TIME  *         0.51 SEC
 DISK USED  *        24.27 MB      
 GA USED    *         0.00 MB       (max)       0.00 MB       (current)
 **********************************************************************************************************************************

1PROGRAM * RHF-SCF (CLOSED SHELL)       Authors: W. Meyer, H.-J. Werner


 NUMBER OF ELECTRONS:       9+    9-    SPACE SYMMETRY=1    SPIN SYMMETRY: Singlet 
 CONVERGENCE THRESHOLDS:    1.00E-10 (Density)    1.00E-13 (Energy)
 MAX. NUMBER OF ITERATIONS:      200
 INTERPOLATION TYPE:            DIIS
 INTERPOLATION STEPS:              2 (START)      1 (STEP)
 LEVEL SHIFTS:                  0.00 (CLOSED)  0.00 (OPEN) 



 Orbital guess generated from atomic densities. Full valence occupancy:   14

 Molecular orbital dump at record        2100.2

 ITERATION    DDIFF          GRAD             ENERGY        2-EL.EN.            DIPOLE MOMENTS         DIIS
    1      0.000D+00      0.000D+00      -115.01438325    164.497241   -0.48395   -0.89892    0.00565    0
    2      0.000D+00      0.109D-01      -115.04274076    162.270225   -0.30899   -0.53504    0.00294    1
    3      0.205D-01      0.528D-02      -115.04873908    163.297407   -0.39191   -0.60979    0.00332    2
    4      0.637D-02      0.112D-02      -115.04920190    163.140687   -0.38210   -0.59867    0.00317    3
    5      0.204D-02      0.202D-03      -115.04922277    163.147155   -0.38498   -0.59437    0.00312    4
    6      0.432D-03      0.353D-04      -115.04922356    163.147326   -0.38530   -0.59416    0.00311    5
    7      0.928D-04      0.735D-05      -115.04922359    163.146139   -0.38544   -0.59399    0.00311    6
    8      0.150D-04      0.238D-05      -115.04922360    163.146521   -0.38547   -0.59397    0.00311    7
    9      0.507D-05      0.492D-06      -115.04922360    163.146480   -0.38549   -0.59397    0.00311    6
   10      0.142D-05      0.891D-07      -115.04922360    163.146479   -0.38549   -0.59397    0.00311    6
   11      0.238D-06      0.333D-07      -115.04922360    163.146485   -0.38549   -0.59397    0.00311    6
   12      0.607D-07      0.139D-07      -115.04922360    163.146483   -0.38549   -0.59397    0.00311    7
   13      0.260D-07      0.310D-08      -115.04922360    163.146483   -0.38549   -0.59397    0.00311    7
   14      0.768D-08      0.647D-09      -115.04922360    163.146483   -0.38549   -0.59397    0.00311    7
   15      0.164D-08      0.151D-09      -115.04922360    163.146483   -0.38549   -0.59397    0.00311    7
   16      0.335D-09      0.452D-10      -115.04922360    163.146483   -0.38549   -0.59397    0.00311    7
   17      0.863D-10      0.164D-10      -115.04922360    163.146483   -0.38549   -0.59397    0.00311    7
   18      0.419D-10      0.302D-11      -115.04922360    163.146483   -0.38549   -0.59397    0.00311    7
   19      0.703D-11      0.705D-12      -115.04922360    163.146483   -0.38549   -0.59397    0.00311    7
   20      0.174D-11      0.310D-12      -115.04922360    163.146483   -0.38549   -0.59397    0.00311    7
   21      0.571D-12      0.861D-13      -115.04922360    163.146483   -0.38549   -0.59397    0.00311    0

 Final occupancy:   9

 !RHF STATE 1.1 Energy               -115.049223596364
 Nuclear energy                        40.36112765
 One-electron energy                 -236.98359269
 Two-electron energy                   81.57324144
 Virial quotient                       -1.00087787
 !RHF STATE 1.1 Dipole moment          -0.38549109    -0.59396633     0.00310779
 Dipole moment /Debye                  -0.97975644    -1.50961295     0.00789871

 Orbital energies:

         1.1          2.1          3.1          4.1          5.1          6.1          7.1          8.1          9.1         10.1
    -20.549718   -11.274453    -1.350926    -0.921062    -0.683379    -0.614307    -0.585863    -0.496200    -0.442648     0.184600

        11.1
      0.224382


 **********************************************************************************************************************************
 DATASETS  * FILE   NREC   LENGTH (MB)   RECORD NAMES
              1      19        8.43       500      610      700      900      950      970     1000      129      960     1100   
                                          VAR    BASINP    GEOM    SYMINP    ZMAT    AOBASIS   BASIS     P2S    ABASIS      S 
                                         1400     1410     1200     1210     1080     1600     1650     1300     1700   
                                           T        V       H0       H01     AOSYM     SMH    MOLCAS    ERIS     OPER   

              2       3        0.39       700     1000     2100   
                                         GEOM     BASIS     RHF  

 PROGRAMS   *        TOTAL       RHF       INT
 CPU TIMES  *         0.44      0.11      0.28
 REAL TIME  *         0.67 SEC
 DISK USED  *        24.27 MB      
 GA USED    *         0.00 MB       (max)       0.00 MB       (current)
 **********************************************************************************************************************************


1PROGRAM * CCSD (Closed-shell coupled cluster)     Authors: C. Hampel, H.-J. Werner, 1991, M. Deegan, P.J. Knowles, 1992


 Convergence thresholds:  THRVAR = 1.00D-08  THRDEN = 1.00D-12

 CCSD(T)     terms to be evaluated (factor= 1.000)


 Number of core orbitals:           2 (   2 )
 Number of closed-shell orbitals:   7 (   7 )
 Number of external orbitals:      39 (  39 )

 Molecular orbitals read from record     2100.2  Type=RHF/CANONICAL (state 1.1)

 Number of N-1 electron functions:               7
 Number of N-2 electron functions:              28
 Number of singly external CSFs:               273
 Number of doubly external CSFs:             37401
 Total number of CSFs:                       37675

 Length of J-op  integral file:               0.00 MB
 Length of K-op  integral file:               0.19 MB
 Length of 3-ext integral record:             0.00 MB

 Memory could be reduced to 0.96 Mwords without degradation in triples

 Integral transformation finished. Total CPU:   0.02 sec, npass=  1  Memory used:   0.66 MW

 Reference energy:                   -115.04922360

 MP2 singlet pair energy:              -0.21855537
 MP2 triplet pair energy:              -0.11980677
 MP2 correlation energy:               -0.33836214
 MP2 total energy:                   -115.38758574

 SCS-MP2 correlation energy:           -0.33681288   (PS=  1.200000  PT=  0.333333)
 SCS-MP2 total energy:               -115.38603647

 ITER.      SQ.NORM     CORR.ENERGY   TOTAL ENERGY   ENERGY CHANGE        DEN1      VAR(S)    VAR(P)  DIIS     TIME
   1      1.10723051    -0.36117175  -115.41039535    -0.02280961    -0.01414573  0.91D-03  0.17D-02  1  1     0.06
   2      1.11574043    -0.36311537  -115.41233896    -0.00194361    -0.00923921  0.20D-04  0.16D-03  2  2     0.11
   3      1.11761181    -0.36324202  -115.41246561    -0.00012665    -0.00119871  0.94D-05  0.85D-05  3  3     0.16
   4      1.11812375    -0.36324078  -115.41246437     0.00000124    -0.00025360  0.33D-06  0.67D-06  4  4     0.21
   5      1.11822110    -0.36324119  -115.41246479    -0.00000042    -0.00003578  0.99D-07  0.49D-07  5  5     0.26
   6      1.11824002    -0.36323985  -115.41246345     0.00000134    -0.00000434  0.16D-07  0.41D-08  6  6     0.31
   7      1.11824475    -0.36323944  -115.41246303     0.00000042    -0.00000035  0.20D-08  0.71D-09  6  1     0.36
   8      1.11824601    -0.36323954  -115.41246314    -0.00000010     0.00000075  0.25D-09  0.72D-10  6  3     0.41
   9      1.11824707    -0.36323942  -115.41246301     0.00000012    -0.00000038  0.13D-10  0.10D-10  6  2     0.46
  10      1.11824712    -0.36323942  -115.41246301     0.00000000     0.00000000  0.13D-11  0.12D-11  6  4     0.51
  11      1.11824708    -0.36323941  -115.41246301     0.00000000     0.00000003  0.33D-12  0.84D-13  6  5     0.56
  12      1.11824703    -0.36323942  -115.41246301    -0.00000000     0.00000003  0.33D-13  0.13D-13  6  6     0.61
  13      1.11824701    -0.36323942  -115.41246302    -0.00000000     0.00000001  0.38D-14  0.15D-14  6  3     0.66
  14      1.11824701    -0.36323942  -115.41246302    -0.00000000     0.00000000  0.29D-15  0.14D-15  6  1     0.71
  15      1.11824701    -0.36323942  -115.41246302     0.00000000    -0.00000000  0.37D-16  0.31D-16  6  2     0.77
  16      1.11824701    -0.36323942  -115.41246302     0.00000000    -0.00000000  0.32D-17  0.16D-17  6  5     0.81
  17      1.11824701    -0.36323942  -115.41246302    -0.00000000     0.00000000  0.18D-18  0.13D-18  6  4     0.86
  18      1.11824701    -0.36323942  -115.41246302     0.00000000    -0.00000000  0.43D-19  0.14D-19  6  3     0.91
  19      1.11824701    -0.36323942  -115.41246302     0.00000000    -0.00000000  0.71D-20  0.17D-20  6  6     0.96
  20      1.11824701    -0.36323942  -115.41246302     0.00000000    -0.00000000  0.16D-20  0.33D-21  6  1     1.01

 Norm of t1 vector:      0.04152183      S-energy:     0.00000000      T1 diagnostic:  0.00784689
                                                                       D1 diagnostic:  0.01735926


 Total CPU time for triples:      0.25 sec


 RESULTS
 =======

  Reference energy                   -115.049223596364
  CCSD singlet pair energy             -0.254486794420
  CCSD triplet pair energy             -0.108752625263
  CCSD correlation energy              -0.363239419683

  Triples (T) contribution             -0.007720569519
  Total correlation energy             -0.370959989202

  CCSD total energy                  -115.412463016047
  CCSD[T] energy                     -115.420471790160
  CCSD-T energy                      -115.420034507712
 !CCSD(T) total energy               -115.420183585565

 Timing summary (sec):

 STEP                 CPU(USER)    SYS     CPU(TOT)    WALL
 Transformation          0.02      0.01      0.03      0.03
 CCSD iterations         0.99      0.05      1.04      1.07
 Triples                 0.25      0.00      0.25      0.26

 Program statistics:

 Available memory in ccsd:               999999704
 Min. memory needed in ccsd:                136801
 Max. memory used in ccsd:                  163198
 Max. memory used in cckext:                182024 (20 integral passes)



 **********************************************************************************************************************************
 DATASETS  * FILE   NREC   LENGTH (MB)   RECORD NAMES
              1      20       10.96       500      610      700      900      950      970     1000      129      960     1100   
                                          VAR    BASINP    GEOM    SYMINP    ZMAT    AOBASIS   BASIS     P2S    ABASIS      S 
                                         1400     1410     1200     1210     1080     1600     1650     1300     1700     1380   
                                           T        V       H0       H01     AOSYM     SMH    MOLCAS    ERIS     OPER     JKOP   

              2       3        0.39       700     1000     2100   
                                         GEOM     BASIS     RHF  

 PROGRAMS   *        TOTAL   CCSD(T)       RHF       INT
 CPU TIMES  *         1.71      1.27      0.11      0.28
 REAL TIME  *         2.05 SEC
 DISK USED  *        25.69 MB      
 GA USED    *         0.00 MB       (max)       0.00 MB       (current)
 **********************************************************************************************************************************

        CCSD(T)         RHF-SCF 
   -115.42018359   -115.04922360
 **********************************************************************************************************************************
 Variable memory released
