
 Primary working directories    : /tmp/333988.25.gen6.q
 Secondary working directories  : /tmp/333988.25.gen6.q
 Wavefunction directory         : /home/vulcan/mel64643/wfu/
 Main file repository           : /tmp/333988.25.gen6.q/

 ARCHNAME  : Linux/x86_64
 FC        : /opt/intel/compilers_and_libraries_2016.1.150/linux/bin/intel64/ifort
 FCVERSION : 16.0.1
 BLASLIB   : -mkl
 id        : ccgc

 Nodes     nprocs
 n084         3
 Number of processes for MPI-2 version of Molpro:   nprocs(total)=    4   nprocs(compute)=    3   nprocs(helper)=    1
 ga_uses_ma=false, calling ma_init with nominal heap.
 GA-space will be limited to   8.0 MW (determined by -G option)

 Using customized tuning parameters: mindgm=10; mindgv=16; mindgc=4; mindgr=1; noblas=0; mincuda=1000; minvec=7
 default implementation of scratch files=sf  

 ***,Optimization of min3
 memory,1000,m
 gthresh,energy=1.0d-10,orbital=1.0d-10,oneint=1.0d-16,twoint=1.0d-16,optgrad=1.0d-6,compress=1.0d-13
 geomtyp=xyz
 
  bohr
  geometry = {
  12
  arbitrary comment
  C         -3.0993257294          1.5878390592          0.0220801906
  C         -0.8698735972         -0.0735473062         -0.6621546639
  C         -1.1147773847         -2.7793529765          0.2486820776
  O          1.3250744142          1.1013402670          0.5878136236
  O          3.4381024340          0.1249507774         -0.2476621695
  H         -4.7953431110          0.8392611851         -0.8819451145
  H         -2.8148458362          3.5237688780         -0.6234764296
  H         -3.4026635995          1.5968609245          2.0625874319
  H         -0.4717286016         -0.0109790439         -2.6848233640
  H         -2.6978247915         -3.6772034322         -0.7244048115
  H         -1.4792756817         -2.8311441760          2.2792115353
  H          0.6006482236         -3.8398258380         -0.1653574738
 }
 
 basis=cc-pvtz
 {rhf;maxit,200}
 {uccsd(t);maxit,200}

 Variables initialized (661), CPU time= 0.00 sec
 Commands  initialized (458), CPU time= 0.00 sec, 486 directives.
 Default parameters read. Elapsed time= 0.05 sec

 Checking input...
 Passed
1


                                         ***  PROGRAM SYSTEM MOLPRO  ***
                         Copyright, University College Cardiff Consultants Limited, 2008

                                    Version 2010.1 linked May 16 2016 07:17:05


 **********************************************************************************************************************************
 LABEL *   Optimization of min3                                                          
 Linux-4.4.3/n084(x86_64) 64 bit mpp version                                             DATE: 15-Jul-20          TIME: 09:56:23  
 **********************************************************************************************************************************

 SHA1:             9e8077add272b0f3cad6f7df79ec5211205f459d
 **********************************************************************************************************************************

 THRESHOLDS:

 ZERO    =  1.00D-12  ONEINT  =  1.00D-16  TWOINT  =  1.00D-16  PREFAC  =  1.00D-14  LOCALI  =  1.00D-09  EORDER  =  1.00D-04
 ENERGY  =  1.00D-10  ETEST   =  0.00D+00  EDENS   =  0.00D+00  THRDEDEF=  1.00D-06  GRADIENT=  1.00D-02  STEP    =  1.00D-03
 ORBITAL =  1.00D-10  CIVEC   =  1.00D-05  COEFF   =  1.00D-04  PRINTCI =  5.00D-02  PUNCHCI =  9.90D+01  OPTGRAD =  1.00D-06
 OPTENERG=  1.00D-06  OPTSTEP =  3.00D-04  THRGRAD =  1.00D-10  COMPRESS=  1.00D-13  VARMIN  =  1.00D-07  VARMAX  =  1.00D-03
 THRDOUB =  0.00D+00  THRDIV  =  1.00D-05  THRRED  =  1.00D-07  THRPSP  =  1.00D+00  THRDC   =  1.00D-10  THRCS   =  1.00D-10
 THRNRM  =  1.00D-08  THREQ   =  0.00D+00  THRDE   =  1.00D+00  THRREF  =  1.00D-05  SPARFAC =  1.00D+00  THRDLP  =  1.00D-07
 THRDIA  =  1.00D-10  THRDLS  =  1.00D-07  THRGPS  =  0.00D+00  THRKEX  =  0.00D+00  THRDIS  =  2.00D-01  THRVAR  =  1.00D-10
 THRLOC  =  1.00D-06  THRGAP  =  1.00D-06  THRLOCT = -1.00D+00  THRGAPT = -1.00D+00  THRORB  =  1.00D-06  THRMLTP =  0.00D+00
 THRCPQCI=  1.00D-10  KEXTA   =  0.00D+00  THRCOARS=  0.00D+00  SYMTOL  =  1.00D-06  GRADTOL =  1.00D-06  THROVL  =  1.00D-08
 THRORTH =  1.00D-08  GRID    =  1.00D-06  GRIDMAX =  1.00D-03  DTMAX   =  0.00D+00

 SETTING GEOMTYP        =    XYZ
 ZUNIT=BOHR
 

 Variable memory set to 1000000000 words,  buffer space   230000 words

 SETTING BASIS          =    CC-PVTZ


 Recomputing integrals since basis changed


 Using spherical harmonics

 Library entry C      S cc-pVTZ              selected for orbital group  1
 Library entry C      P cc-pVTZ              selected for orbital group  1
 Library entry C      D cc-pVTZ              selected for orbital group  1
 Library entry C      F cc-pVTZ              selected for orbital group  1
 Library entry O      S cc-pVTZ              selected for orbital group  2
 Library entry O      P cc-pVTZ              selected for orbital group  2
 Library entry O      D cc-pVTZ              selected for orbital group  2
 Library entry O      F cc-pVTZ              selected for orbital group  2
 Library entry H      S cc-pVTZ              selected for orbital group  3
 Library entry H      P cc-pVTZ              selected for orbital group  3
 Library entry H      D cc-pVTZ              selected for orbital group  3

1PROGRAM * SEWARD (Integral evaluation for generally contracted gaussian basis sets)     Author: Roland Lindh, 1990

 Geometry written to block  1 of record 700


 Point group  C1  



 ATOMIC COORDINATES

 NR  ATOM    CHARGE       X              Y              Z

   1  C       6.00   -3.099325729    1.587839059    0.022080191
   2  C       6.00   -0.869873597   -0.073547306   -0.662154664
   3  C       6.00   -1.114777385   -2.779352976    0.248682078
   4  O       8.00    1.325074414    1.101340267    0.587813624
   5  O       8.00    3.438102434    0.124950777   -0.247662170
   6  H       1.00   -4.795343111    0.839261185   -0.881945115
   7  H       1.00   -2.814845836    3.523768878   -0.623476430
   8  H       1.00   -3.402663599    1.596860925    2.062587432
   9  H       1.00   -0.471728602   -0.010979044   -2.684823364
  10  H       1.00   -2.697824791   -3.677203432   -0.724404812
  11  H       1.00   -1.479275682   -2.831144176    2.279211535
  12  H       1.00    0.600648224   -3.839825838   -0.165357474

 Bond lengths in Bohr (Angstrom)

 1-2  2.863361451  1-6  2.062548313  1-7  2.060460245  1-8  2.062950571  2-3  2.865481768
     ( 1.515225621)     ( 1.091453560)     ( 1.090348602)     ( 1.091666426)     ( 1.516347644)

  2- 4  2.785781453   2- 9  2.062431307   3-10  2.063752075   3-11  2.063635437   3-12  2.058814333
       ( 1.474172054)       ( 1.091391643)       ( 1.092090563)       ( 1.092028841)       ( 1.089477623)

 4-5  2.473104051
     ( 1.308710299)

 Bond angles

  1-2-3  113.91535995   1-2-4  105.16214120   1-2-9  111.53449481   2-1-6  108.96100940

  2- 1- 7  111.27139816   2- 1- 8  110.69466865   2- 3-10  109.05622180   2- 3-11  110.58277801

  2- 3-12  110.56378170   2- 4- 5  110.80001227   3- 2- 4  108.84194508   3- 2- 9  110.90886659

  4-2-9  105.97078613   6-1-7  108.49426512   6-1-8  108.31333099   7-1-8  109.03167697

 10- 3-11  108.51440786  10- 3-12  108.67595183  11- 3-12  109.39760162

 NUCLEAR CHARGE:                   41
 NUMBER OF PRIMITIVE AOS:         354
 NUMBER OF SYMMETRY AOS:          322
 NUMBER OF CONTRACTIONS:          248   ( 248A   )
 NUMBER OF CORE ORBITALS:           5   (   5A   )
 NUMBER OF VALENCE ORBITALS:       27   (  27A   )


 NUCLEAR REPULSION ENERGY  186.78937462


 Eigenvalues of metric

         1 0.808E-03 0.955E-03 0.110E-02 0.124E-02 0.136E-02 0.150E-02 0.160E-02 0.164E-02


 Contracted 2-electron integrals neglected if value below      1.0D-16
 AO integral compression algorithm  1   Integral accuracy      1.0D-16

     3372.483 MB (compressed) written to integral file ( 82.1%)

     Node minimum: 1105.199 MB, node maximum: 1147.142 MB


 NUMBER OF SORTED TWO-ELECTRON INTEGRALS:  158903334.     BUFFER LENGTH:  32768
 NUMBER OF SEGMENTS:  10  SEGMENT LENGTH:   15997437      RECORD LENGTH: 524288

 Memory used in sort:      16.55 MW

 SORT1 READ   513564432. AND WROTE   152661752. INTEGRALS IN    442 RECORDS. CPU TIME:     6.86 SEC, REAL TIME:     7.81 SEC
 SORT2 READ   459470290. AND WROTE   476679126. INTEGRALS IN  13128 RECORDS. CPU TIME:     1.24 SEC, REAL TIME:     2.18 SEC

 Node minimum:   158882750.  Node maximum:   158903334. integrals

 OPERATOR DM      FOR CENTER  0  COORDINATES:    0.000000    0.000000    0.000000


 **********************************************************************************************************************************
 DATASETS  * FILE   NREC   LENGTH (MB)   RECORD NAMES
              1      18        5.04       500      610      700      900      950      970     1000      129      960     1100   
                                          VAR    BASINP    GEOM    SYMINP    ZMAT    AOBASIS   BASIS     P2S    ABASIS      S 
                                         1400     1410     1200     1210     1080     1600     1650     1700   
                                           T        V       H0       H01     AOSYM     SMH    MOLCAS    OPER   

 PROGRAMS   *        TOTAL       INT
 CPU TIMES  *        13.76     13.72
 REAL TIME  *        16.33 SEC
 DISK USED  *         8.83 GB      
 GA USED    *         0.01 MB       (max)       0.00 MB       (current)
 **********************************************************************************************************************************

1PROGRAM * RHF-SCF (OPEN SHELL)       Authors: W. Meyer, H.-J. Werner


 NUMBER OF ELECTRONS:      21+   20-    SPACE SYMMETRY=1    SPIN SYMMETRY: Doublet 
 CONVERGENCE THRESHOLDS:    1.00E-10 (Density)    1.00E-11 (Energy)
 MAX. NUMBER OF ITERATIONS:      200
 INTERPOLATION TYPE:            DIIS
 INTERPOLATION STEPS:              2 (START)      1 (STEP)
 LEVEL SHIFTS:                 -0.30 (CLOSED)  0.00 (OPEN) 



 Orbital guess generated from atomic densities. Full valence occupancy:   32

 Molecular orbital dump at record        2100.2

 ITERATION    DDIFF          GRAD             ENERGY        2-EL.EN.            DIPOLE MOMENTS         DIIS
    1      0.000D+00      0.000D+00      -267.26307755    560.144911   -1.77262   -0.07264   -0.10634    0
    2      0.000D+00      0.326D-02      -267.33656819    562.939450   -1.04467   -0.42530   -0.35716    1
    3      0.468D-02      0.225D-02      -267.36215183    561.914042   -1.20846   -0.24142   -0.21799    2
    4      0.209D-02      0.545D-03      -267.36997145    562.093200   -1.00721   -0.31215   -0.29646    3
    5      0.905D-03      0.465D-03      -267.37387383    562.135605   -0.95337   -0.31447   -0.30044    4
    6      0.566D-03      0.256D-03      -267.37563558    562.106609   -0.91073   -0.30995   -0.29972    5
    7      0.461D-03      0.129D-03      -267.37597502    562.096405   -0.91423   -0.30012   -0.29311    6
    8      0.259D-03      0.315D-04      -267.37599301    562.092016   -0.91533   -0.29637   -0.29102    7
    9      0.728D-04      0.157D-04      -267.37600022    562.092540   -0.91707   -0.29695   -0.29122    8
   10      0.377D-04      0.701D-05      -267.37600160    562.092722   -0.91756   -0.29648   -0.29109    9
   11      0.175D-04      0.294D-05      -267.37600179    562.092558   -0.91827   -0.29628   -0.29088    9
   12      0.702D-05      0.126D-05      -267.37600183    562.092703   -0.91837   -0.29636   -0.29092    9
   13      0.306D-05      0.482D-06      -267.37600184    562.092793   -0.91834   -0.29643   -0.29096    9
   14      0.136D-05      0.279D-06      -267.37600184    562.092772   -0.91834   -0.29643   -0.29096    9
   15      0.800D-06      0.128D-06      -267.37600184    562.092773   -0.91834   -0.29644   -0.29096    9
   16      0.404D-06      0.892D-07      -267.37600184    562.092779   -0.91833   -0.29644   -0.29096    9
   17      0.234D-06      0.529D-07      -267.37600184    562.092777   -0.91833   -0.29644   -0.29096    9
   18      0.290D-06      0.393D-07      -267.37600184    562.092778   -0.91833   -0.29644   -0.29096    9
   19      0.183D-06      0.324D-07      -267.37600184    562.092783   -0.91833   -0.29644   -0.29096    9
   20      0.496D-06      0.217D-07      -267.37600184    562.092783   -0.91832   -0.29644   -0.29096    9
   21      0.485D-06      0.110D-07      -267.37600184    562.092785   -0.91832   -0.29644   -0.29096    9
   22      0.212D-06      0.567D-08      -267.37600184    562.092786   -0.91832   -0.29644   -0.29096    9
   23      0.728D-07      0.185D-08      -267.37600184    562.092786   -0.91832   -0.29644   -0.29096    9
   24      0.201D-07      0.750D-09      -267.37600184    562.092786   -0.91832   -0.29644   -0.29096    9
   25      0.222D-08      0.412D-09      -267.37600184    562.092786   -0.91832   -0.29644   -0.29096    9
   26      0.162D-08      0.223D-09      -267.37600184    562.092786   -0.91832   -0.29644   -0.29096    9
   27      0.552D-09      0.131D-09      -267.37600184    562.092786   -0.91832   -0.29644   -0.29096    9
   28      0.381D-09      0.623D-10      -267.37600184    562.092786   -0.91832   -0.29644   -0.29096    9
   29      0.162D-09      0.256D-10      -267.37600184    562.092786   -0.91832   -0.29644   -0.29096    9
   30      0.128D-09      0.154D-10      -267.37600184    562.092786   -0.91832   -0.29644   -0.29096    9
   31      0.473D-10      0.135D-10      -267.37600184    562.092786   -0.91832   -0.29644   -0.29096    0

 Final alpha occupancy:  21
 Final beta  occupancy:  20

 !RHF STATE 1.1 Energy               -267.376001840230
 Nuclear energy                       186.78937462
 One-electron energy                 -735.21176943
 Two-electron energy                  281.04639297
 Virial quotient                       -1.00110408
 !RHF STATE 1.1 Dipole moment          -0.91832345    -0.29643921    -0.29095613
 Dipole moment /Debye                  -2.33399252    -0.75342398    -0.73948827

 Orbital energies:

         1.1          2.1          3.1          4.1          5.1          6.1          7.1          8.1          9.1         10.1
    -20.645177   -20.640151   -11.298269   -11.229547   -11.225960    -1.530629    -1.166832    -1.034060    -0.953320    -0.819857

        11.1         12.1         13.1         14.1         15.1         16.1         17.1         18.1         19.1         20.1
     -0.696239    -0.669668    -0.653345    -0.597581    -0.563495    -0.558795    -0.544625    -0.502905    -0.491926    -0.459878

        21.1         22.1         23.1
     -0.554468     0.137307     0.174459


 **********************************************************************************************************************************
 DATASETS  * FILE   NREC   LENGTH (MB)   RECORD NAMES
              1      18        5.04       500      610      700      900      950      970     1000      129      960     1100   
                                          VAR    BASINP    GEOM    SYMINP    ZMAT    AOBASIS   BASIS     P2S    ABASIS      S 
                                         1400     1410     1200     1210     1080     1600     1650     1700   
                                           T        V       H0       H01     AOSYM     SMH    MOLCAS    OPER   

              2       3        2.21       700     1000     2100   
                                         GEOM     BASIS     RHF  

 PROGRAMS   *        TOTAL       RHF       INT
 CPU TIMES  *        48.48     34.72     13.72
 REAL TIME  *        54.16 SEC
 DISK USED  *         8.87 GB      
 SF USED    *         0.25 MB      
 GA USED    *         0.01 MB       (max)       0.00 MB       (current)
 **********************************************************************************************************************************


1PROGRAM * CCSD (Unrestricted open-shell coupled cluster)     Authors: C. Hampel, H.-J. Werner, 1991, M. Deegan, P.J. Knowles, 1992


 Convergence thresholds:  THRVAR = 1.00D-08  THRDEN = 1.00D-10

 CCSD(T)     terms to be evaluated (factor= 1.000)


 Number of core orbitals:           5 (   5 )
 Number of closed-shell orbitals:  15 (  15 )
 Number of active  orbitals:        1 (   1 )
 Number of external orbitals:     227 ( 227 )

 Memory could be reduced to 332.02 Mwords without degradation in triples

 Number of N-1 electron functions:              31
 Number of N-2 electron functions:             465
 Number of singly external CSFs:              7068
 Number of doubly external CSFs:          18353430
 Total number of CSFs:                    18360498

 Molecular orbitals read from record     2100.2  Type=RHF/CANONICAL (state 1.1)

 Integral transformation finished. Total CPU:  24.42 sec, npass=  1  Memory used: 145.25 MW

 Starting RMP2 calculation

 ITER.      SQ.NORM     CORR.ENERGY   TOTAL ENERGY   ENERGY CHANGE        DEN1      VAR(S)    VAR(P)  DIIS     TIME
   1      1.26511965    -0.96798875  -268.34399059    -0.96798875    -0.00322951  0.27D-04  0.11D-02  1  1    28.71
   2      1.26789497    -0.97147078  -268.34747262    -0.00348204    -0.00000661  0.10D-05  0.22D-05  2  2    31.59
   3      1.26797441    -0.97152347  -268.34752531    -0.00005268    -0.00000008  0.53D-07  0.11D-07  3  3    34.62
   4      1.26797613    -0.97152330  -268.34752514     0.00000017    -0.00000000  0.15D-08  0.12D-09  4  4    37.81
   5      1.26797639    -0.97152339  -268.34752523    -0.00000009    -0.00000000  0.17D-10  0.44D-11  5  5    41.18
   6      1.26797645    -0.97152342  -268.34752526    -0.00000003    -0.00000000  0.48D-13  0.53D-13  6  6    44.72
   7      1.26797645    -0.97152342  -268.34752526     0.00000000    -0.00000000  0.13D-14  0.82D-15  6  1    48.29
   8      1.26797645    -0.97152342  -268.34752526     0.00000000    -0.00000000  0.14D-16  0.75D-17  6  2    51.86
   9      1.26797645    -0.97152342  -268.34752526    -0.00000000    -0.00000000  0.25D-18  0.95D-19  6  3    55.46

 Norm of t1 vector:      0.04642038      S-energy:    -0.00453789      T1 diagnostic:  0.00075149
 Norm of t2 vector:      0.51557890      P-energy:    -0.96698553
                                         Alpha-Beta:  -0.73710632
                                         Alpha-Alpha: -0.11895548
                                         Beta-Beta:   -0.11092374

 Spin contamination <S**2-Sz**2-Sz>     0.00146987
  Reference energy                   -267.376001840229
  RHF-RMP2 correlation energy          -0.971523423323
 !RHF-RMP2 energy                    -268.347525263552

 Starting UCCSD calculation

 ITER.      SQ.NORM     CORR.ENERGY   TOTAL ENERGY   ENERGY CHANGE        DEN1      VAR(S)    VAR(P)  DIIS     TIME
   1      1.27943983    -0.97946043  -268.35546227    -0.97946043    -0.02922821  0.64D-02  0.54D-02  1  1   157.14
   2      1.30571058    -1.00604145  -268.38204329    -0.02658102    -0.00357759  0.61D-03  0.95D-03  2  2   252.24
   3      1.32209146    -1.01281989  -268.38882173    -0.00677844    -0.00087520  0.71D-03  0.73D-04  3  3   354.60
   4      1.33307092    -1.01545094  -268.39145278    -0.00263105    -0.00035835  0.28D-03  0.30D-04  4  4   456.70
   5      1.34712283    -1.01733926  -268.39334110    -0.00188832    -0.00010568  0.90D-04  0.81D-05  5  5   560.96
   6      1.35740038    -1.01826962  -268.39427146    -0.00093037    -0.00001578  0.79D-05  0.28D-05  6  6   665.86
   7      1.36057220    -1.01848152  -268.39448336    -0.00021190    -0.00000272  0.14D-05  0.52D-06  6  1   770.38
   8      1.36107156    -1.01851668  -268.39451852    -0.00003516    -0.00000057  0.23D-06  0.13D-06  6  2   869.62
   9      1.36133736    -1.01853221  -268.39453405    -0.00001554    -0.00000012  0.59D-07  0.26D-07  6  4   974.59
  10      1.36132894    -1.01853131  -268.39453315     0.00000090    -0.00000002  0.11D-07  0.35D-08  6  3  1079.24
  11      1.36137977    -1.01853554  -268.39453738    -0.00000423    -0.00000001  0.32D-08  0.82D-09  6  5  1184.07
  12      1.36137387    -1.01853335  -268.39453519     0.00000219    -0.00000000  0.18D-08  0.21D-09  6  6  1274.82
  13      1.36136995    -1.01853224  -268.39453408     0.00000111    -0.00000000  0.13D-08  0.80D-10  6  1  1365.54
  14      1.36135746    -1.01853070  -268.39453254     0.00000154    -0.00000000  0.10D-08  0.49D-10  6  2  1456.09
  15      1.36134928    -1.01852969  -268.39453153     0.00000101    -0.00000000  0.76D-09  0.41D-10  6  3  1546.82
  16      1.36134546    -1.01852955  -268.39453139     0.00000014    -0.00000000  0.41D-09  0.32D-10  6  4  1642.97
  17      1.36134702    -1.01852976  -268.39453160    -0.00000021    -0.00000000  0.13D-09  0.25D-10  6  5  1747.78
  18      1.36135277    -1.01853017  -268.39453201    -0.00000041    -0.00000000  0.22D-10  0.62D-11  6  6  1852.10
  19      1.36135619    -1.01853051  -268.39453235    -0.00000034    -0.00000000  0.15D-11  0.16D-11  6  2  1956.38
  20      1.36135602    -1.01853042  -268.39453226     0.00000009    -0.00000000  0.34D-12  0.12D-12  6  1  2061.19
  21      1.36135633    -1.01853047  -268.39453231    -0.00000004    -0.00000000  0.80D-13  0.37D-13  6  4  2165.63
  22      1.36135649    -1.01853048  -268.39453233    -0.00000002    -0.00000000  0.25D-13  0.45D-14  6  3  2269.94
  23      1.36135657    -1.01853050  -268.39453234    -0.00000001    -0.00000000  0.75D-14  0.19D-14  6  6  2374.09
  24      1.36135662    -1.01853050  -268.39453234    -0.00000000    -0.00000000  0.18D-14  0.43D-15  6  5  2478.69
  25      1.36135663    -1.01853050  -268.39453234     0.00000000    -0.00000000  0.45D-15  0.11D-15  6  1  2554.21
  26      1.36135664    -1.01853050  -268.39453234    -0.00000000    -0.00000000  0.15D-15  0.23D-16  6  2  2629.75
  27      1.36135664    -1.01853050  -268.39453234     0.00000000    -0.00000000  0.28D-16  0.58D-17  6  4  2705.35
  28      1.36135664    -1.01853050  -268.39453234     0.00000000    -0.00000000  0.75D-17  0.25D-17  6  3  2781.31

 Norm of t1 vector:      0.22497323      S-energy:    -0.00504692      T1 diagnostic:  0.02768436
                                                                       D1 diagnostic:  0.14103129
 Norm of t2 vector:      0.55744389      P-energy:    -1.01348358
                                         Alpha-Beta:  -0.80105242
                                         Alpha-Alpha: -0.10867684
                                         Beta-Beta:   -0.10375432

 Singles amplitudes (print threshold =  0.500E-01):

         I         SYM. A    A   T(IA) [Beta-Beta]

         8         1         1     -0.09534856
         9         1         1      0.09814510
        11         1         1     -0.05189321
        12         1         1     -0.06898184
        14         1         1     -0.10500590

 Spin contamination <S**2-Sz**2-Sz>     0.00169694

 Memory could be reduced to 360.52 Mwords without degradation in triples
 

 RESULTS
 =======

  Reference energy                   -267.376001840229
  UCCSD singles energy                 -0.005046919918
  UCCSD pair energy                    -1.013483579875
  UCCSD correlation energy             -1.018530499793
  Triples (T) contribution             -0.040714426080
  Total correlation energy             -1.059244925873
 
  RHF-UCCSD energy                   -268.394532340022
  RHF-UCCSD[T] energy                -268.438383837408
  RHF-UCCSD-T energy                 -268.434751782312
 !RHF-UCCSD(T) energy                -268.435246766102

 Program statistics:

 Available memory in ccsd:               999997692
 Min. memory needed in ccsd:              51505734
 Max. memory used in ccsd:                74803578
 Max. memory used in cckext:              59475747 (28 integral passes)
 Max. memory used in cckint:             145249478 ( 1 integral passes)



 **********************************************************************************************************************************
 DATASETS  * FILE   NREC   LENGTH (MB)   RECORD NAMES
              1      18        5.04       500      610      700      900      950      970     1000      129      960     1100   
                                          VAR    BASINP    GEOM    SYMINP    ZMAT    AOBASIS   BASIS     P2S    ABASIS      S 
                                         1400     1410     1200     1210     1080     1600     1650     1700   
                                           T        V       H0       H01     AOSYM     SMH    MOLCAS    OPER   

              2       3        2.21       700     1000     2100   
                                         GEOM     BASIS     RHF  

 PROGRAMS   *        TOTAL  UCCSD(T)       RHF       INT
 CPU TIMES  *      4228.27   4179.79     34.72     13.72
 REAL TIME  *      4303.90 SEC
 DISK USED  *        15.85 GB      
 SF USED    *         6.57 GB      
 GA USED    *         0.01 MB       (max)       0.00 MB       (current)
 **********************************************************************************************************************************

        UCCSD(T)        RHF-SCF 
   -268.43524677   -267.37600184
 **********************************************************************************************************************************
 Variable memory released
