
 Primary working directories    : /tmp/1231579.7.gen6.q
 Secondary working directories  : /tmp/1231579.7.gen6.q
 Wavefunction directory         : /home/vulcan/nlk36701/wfu/
 Main file repository           : /tmp/1231579.7.gen6.q/

 ARCHNAME  : Linux/x86_64
 FC        : /opt/intel/compilers_and_libraries_2016.1.150/linux/bin/intel64/ifort
 FCVERSION : 16.0.1
 BLASLIB   : -mkl
 id        : ccgc

 Nodes     nprocs
 n092         1
 ga_uses_ma=false, calling ma_init with nominal heap.
 GA-space will be limited to   8.0 MW (determined by -G option)

 Using customized tuning parameters: mindgm=10; mindgv=16; mindgc=4; mindgr=1; noblas=0; mincuda=1000; minvec=7
 default implementation of scratch files=df  

 ***,Optimization of min3
 memory,1000,m
 gthresh,energy=1.0d-12,orbital=1.0d-10,oneint=1.0d-16,twoint=1.0d-16,optgrad=1.0d-6,compress=1.0d-13
 geomtyp=xyz
 
  bohr
  geometry = {
  N   -0.0001281373    0.0033916815    0.1333581344
  H    0.8776437245   -1.5255397791   -0.6184727276
  H    0.8856857875    1.5279217453   -0.6168045879
  H   -1.7632013846   -0.0057736477   -0.6175840790
 }
 
 basis=cc-pvtz
 {rhf;maxit,200}
 {ccsd(t);maxit,200}

 Variables initialized (661), CPU time= 0.00 sec
 Commands  initialized (458), CPU time= 0.01 sec, 486 directives.
 Default parameters read. Elapsed time= 0.04 sec

 Checking input...
 Passed
1


                                         ***  PROGRAM SYSTEM MOLPRO  ***
                         Copyright, University College Cardiff Consultants Limited, 2008

                                    Version 2010.1 linked May 16 2016 07:17:05


 **********************************************************************************************************************************
 LABEL *   Optimization of min3                                                          
 Linux-4.4.3/n092(x86_64) 64 bit mpp version                                             DATE: 16-Apr-25          TIME: 10:09:22  
 **********************************************************************************************************************************

 SHA1:             9e8077add272b0f3cad6f7df79ec5211205f459d
 **********************************************************************************************************************************

 THRESHOLDS:

 ZERO    =  1.00D-12  ONEINT  =  1.00D-16  TWOINT  =  1.00D-16  PREFAC  =  1.00D-14  LOCALI  =  1.00D-09  EORDER  =  1.00D-04
 ENERGY  =  1.00D-12  ETEST   =  0.00D+00  EDENS   =  0.00D+00  THRDEDEF=  1.00D-06  GRADIENT=  1.00D-02  STEP    =  1.00D-03
 ORBITAL =  1.00D-10  CIVEC   =  1.00D-05  COEFF   =  1.00D-04  PRINTCI =  5.00D-02  PUNCHCI =  9.90D+01  OPTGRAD =  1.00D-06
 OPTENERG=  1.00D-06  OPTSTEP =  3.00D-04  THRGRAD =  1.00D-10  COMPRESS=  1.00D-13  VARMIN  =  1.00D-07  VARMAX  =  1.00D-03
 THRDOUB =  0.00D+00  THRDIV  =  1.00D-05  THRRED  =  1.00D-07  THRPSP  =  1.00D+00  THRDC   =  1.00D-10  THRCS   =  1.00D-10
 THRNRM  =  1.00D-08  THREQ   =  0.00D+00  THRDE   =  1.00D+00  THRREF  =  1.00D-05  SPARFAC =  1.00D+00  THRDLP  =  1.00D-07
 THRDIA  =  1.00D-10  THRDLS  =  1.00D-07  THRGPS  =  0.00D+00  THRKEX  =  0.00D+00  THRDIS  =  2.00D-01  THRVAR  =  1.00D-10
 THRLOC  =  1.00D-06  THRGAP  =  1.00D-06  THRLOCT = -1.00D+00  THRGAPT = -1.00D+00  THRORB  =  1.00D-06  THRMLTP =  0.00D+00
 THRCPQCI=  1.00D-10  KEXTA   =  0.00D+00  THRCOARS=  0.00D+00  SYMTOL  =  1.00D-06  GRADTOL =  1.00D-06  THROVL  =  1.00D-08
 THRORTH =  1.00D-08  GRID    =  1.00D-06  GRIDMAX =  1.00D-03  DTMAX   =  0.00D+00

 SETTING GEOMTYP        =    XYZ
 ZUNIT=BOHR
 

 Variable memory set to 1000000000 words,  buffer space   230000 words

 SETTING BASIS          =    CC-PVTZ


 Recomputing integrals since basis changed


 Using spherical harmonics

 Library entry N      S cc-pVTZ              selected for orbital group  1
 Library entry N      P cc-pVTZ              selected for orbital group  1
 Library entry N      D cc-pVTZ              selected for orbital group  1
 Library entry N      F cc-pVTZ              selected for orbital group  1
 Library entry H      S cc-pVTZ              selected for orbital group  2
 Library entry H      P cc-pVTZ              selected for orbital group  2
 Library entry H      D cc-pVTZ              selected for orbital group  2

1PROGRAM * SEWARD (Integral evaluation for generally contracted gaussian basis sets)     Author: Roland Lindh, 1990

 Geometry written to block  1 of record 700


 Point group  C1  



 ATOMIC COORDINATES

 NR  ATOM    CHARGE       X              Y              Z

   1  N       7.00   -0.000128137    0.003391681    0.133358134
   2  H       1.00    0.877643725   -1.525539779   -0.618472728
   3  H       1.00    0.885685788    1.527921745   -0.616804588
   4  H       1.00   -1.763201385   -0.005773648   -0.617584079

 Bond lengths in Bohr (Angstrom)

 1-2  1.916602332  1-3  1.916142566  1-4  1.916357348
     ( 1.014222273)     ( 1.013978975)     ( 1.014092633)

 Bond angles

  2-1-3  105.62851706   2-1-4  105.29682043   3-1-4  106.00413274

 NUCLEAR CHARGE:                   10
 NUMBER OF PRIMITIVE AOS:          98
 NUMBER OF SYMMETRY AOS:           90
 NUMBER OF CONTRACTIONS:           72   (  72A   )
 NUMBER OF CORE ORBITALS:           1   (   1A   )
 NUMBER OF VALENCE ORBITALS:        7   (   7A   )


 NUCLEAR REPULSION ENERGY   11.94063471


 Eigenvalues of metric

         1 0.163E-02 0.396E-02 0.399E-02 0.400E-02 0.853E-02 0.856E-02 0.129E-01 0.324E-01


 Contracted 2-electron integrals neglected if value below      1.0D-16
 AO integral compression algorithm  1   Integral accuracy      1.0D-16

     34.079 MB (compressed) written to integral file (100.0%)

     Node minimum: 34.079 MB, node maximum: 34.079 MB


 NUMBER OF SORTED TWO-ELECTRON INTEGRALS:    3454506.     BUFFER LENGTH:  32768
 NUMBER OF SEGMENTS:   1  SEGMENT LENGTH:    3454506      RECORD LENGTH: 524288

 Memory used in sort:       4.01 MW

 SORT1 READ     4228545. AND WROTE     3343617. INTEGRALS IN     10 RECORDS. CPU TIME:     0.02 SEC, REAL TIME:     0.05 SEC
 SORT2 READ     3343617. AND WROTE     3454506. INTEGRALS IN    130 RECORDS. CPU TIME:     0.05 SEC, REAL TIME:     0.06 SEC

 FILE SIZES:   FILE 1:    30.7 MBYTE,  FILE 4:    42.0 MBYTE,   TOTAL:     72.7 MBYTE

 OPERATOR DM      FOR CENTER  0  COORDINATES:    0.000000    0.000000    0.000000


 **********************************************************************************************************************************
 DATASETS  * FILE   NREC   LENGTH (MB)   RECORD NAMES
              1      19       30.79       500      610      700      900      950      970     1000      129      960     1100   
                                          VAR    BASINP    GEOM    SYMINP    ZMAT    AOBASIS   BASIS     P2S    ABASIS      S 
                                         1400     1410     1200     1210     1080     1600     1650     1300     1700   
                                           T        V       H0       H01     AOSYM     SMH    MOLCAS    ERIS     OPER   

 PROGRAMS   *        TOTAL       INT
 CPU TIMES  *         0.31      0.27
 REAL TIME  *         1.00 SEC
 DISK USED  *       107.34 MB      
 GA USED    *         0.00 MB       (max)       0.00 MB       (current)
 **********************************************************************************************************************************

1PROGRAM * RHF-SCF (CLOSED SHELL)       Authors: W. Meyer, H.-J. Werner


 NUMBER OF ELECTRONS:       5+    5-    SPACE SYMMETRY=1    SPIN SYMMETRY: Singlet 
 CONVERGENCE THRESHOLDS:    1.00E-10 (Density)    1.00E-13 (Energy)
 MAX. NUMBER OF ITERATIONS:      200
 INTERPOLATION TYPE:            DIIS
 INTERPOLATION STEPS:              2 (START)      1 (STEP)
 LEVEL SHIFTS:                  0.00 (CLOSED)  0.00 (OPEN) 



 Orbital guess generated from atomic densities. Full valence occupancy:    8

 Molecular orbital dump at record        2100.2

 ITERATION    DDIFF          GRAD             ENERGY        2-EL.EN.            DIPOLE MOMENTS         DIIS
    1      0.000D+00      0.000D+00       -56.19177392     64.221322    0.00014   -0.00379   -0.92992    0
    2      0.000D+00      0.633D-02       -56.21266446     62.114159    0.00006   -0.00149   -0.59238    1
    3      0.117D-01      0.310D-02       -56.21737726     63.009317    0.00008   -0.00213   -0.67088    2
    4      0.376D-02      0.472D-03       -56.21759998     62.922412    0.00008   -0.00206   -0.67006    3
    5      0.754D-03      0.110D-03       -56.21761439     62.932929    0.00008   -0.00205   -0.66963    4
    6      0.196D-03      0.188D-04       -56.21761500     62.932606    0.00008   -0.00205   -0.66984    5
    7      0.482D-04      0.363D-05       -56.21761503     62.932718    0.00008   -0.00205   -0.66988    6
    8      0.121D-04      0.810D-06       -56.21761503     62.932692    0.00008   -0.00205   -0.66990    6
    9      0.243D-05      0.151D-06       -56.21761503     62.932689    0.00008   -0.00205   -0.66991    6
   10      0.535D-06      0.380D-07       -56.21761503     62.932687    0.00008   -0.00205   -0.66991    6
   11      0.166D-06      0.562D-08       -56.21761503     62.932688    0.00008   -0.00205   -0.66991    6
   12      0.145D-07      0.136D-08       -56.21761503     62.932688    0.00008   -0.00205   -0.66991    6
   13      0.285D-08      0.275D-09       -56.21761503     62.932688    0.00008   -0.00205   -0.66991    6
   14      0.590D-09      0.441D-10       -56.21761503     62.932688    0.00008   -0.00205   -0.66991    6
   15      0.848D-10      0.109D-10       -56.21761503     62.932688    0.00008   -0.00205   -0.66991    0

 Final occupancy:   5

 !RHF STATE 1.1 Energy                -56.217615029951
 Nuclear energy                        11.94063471
 One-electron energy                  -99.62459373
 Two-electron energy                   31.46634399
 Virial quotient                       -1.00114498
 !RHF STATE 1.1 Dipole moment           0.00008002    -0.00205025    -0.66990995
 Dipole moment /Debye                   0.00020338    -0.00521087    -1.70262974

 Orbital energies:

         1.1          2.1          3.1          4.1          5.1          6.1          7.1
    -15.535282    -1.138477    -0.622348    -0.620491    -0.429355     0.136676     0.216783


 **********************************************************************************************************************************
 DATASETS  * FILE   NREC   LENGTH (MB)   RECORD NAMES
              1      19       30.79       500      610      700      900      950      970     1000      129      960     1100   
                                          VAR    BASINP    GEOM    SYMINP    ZMAT    AOBASIS   BASIS     P2S    ABASIS      S 
                                         1400     1410     1200     1210     1080     1600     1650     1300     1700   
                                           T        V       H0       H01     AOSYM     SMH    MOLCAS    ERIS     OPER   

              2       3        0.42       700     1000     2100   
                                         GEOM     BASIS     RHF  

 PROGRAMS   *        TOTAL       RHF       INT
 CPU TIMES  *         0.58      0.26      0.27
 REAL TIME  *         1.48 SEC
 DISK USED  *       107.34 MB      
 GA USED    *         0.00 MB       (max)       0.00 MB       (current)
 **********************************************************************************************************************************


1PROGRAM * CCSD (Closed-shell coupled cluster)     Authors: C. Hampel, H.-J. Werner, 1991, M. Deegan, P.J. Knowles, 1992


 Convergence thresholds:  THRVAR = 1.00D-08  THRDEN = 1.00D-12

 CCSD(T)     terms to be evaluated (factor= 1.000)


 Number of core orbitals:           1 (   1 )
 Number of closed-shell orbitals:   4 (   4 )
 Number of external orbitals:      67 (  67 )

 Molecular orbitals read from record     2100.2  Type=RHF/CANONICAL (state 1.1)

 Number of N-1 electron functions:               4
 Number of N-2 electron functions:              10
 Number of singly external CSFs:               268
 Number of doubly external CSFs:             36046
 Total number of CSFs:                       36315

 Length of J-op  integral file:               0.00 MB
 Length of K-op  integral file:               0.39 MB
 Length of 3-ext integral record:             0.00 MB

 Memory could be reduced to 2.38 Mwords without degradation in triples

 Integral transformation finished. Total CPU:   0.04 sec, npass=  1  Memory used:   1.17 MW

 Reference energy:                    -56.21761503

 MP2 singlet pair energy:              -0.15730087
 MP2 triplet pair energy:              -0.07805288
 MP2 correlation energy:               -0.23535375
 MP2 total energy:                    -56.45296878

 SCS-MP2 correlation energy:           -0.23732728   (PS=  1.200000  PT=  0.333333)
 SCS-MP2 total energy:                -56.45494231

 ITER.      SQ.NORM     CORR.ENERGY   TOTAL ENERGY   ENERGY CHANGE        DEN1      VAR(S)    VAR(P)  DIIS     TIME
   1      1.06935280    -0.24706154   -56.46467657    -0.01170778    -0.00658174  0.40D-03  0.90D-03  1  1     0.08
   2      1.07337041    -0.24780563   -56.46542066    -0.00074409    -0.00489480  0.14D-04  0.89D-04  2  2     0.13
   3      1.07460865    -0.24788730   -56.46550233    -0.00008167    -0.00088257  0.11D-05  0.53D-05  3  3     0.18
   4      1.07492504    -0.24790233   -56.46551736    -0.00001503    -0.00016910  0.22D-06  0.24D-06  4  4     0.23
   5      1.07496978    -0.24790189   -56.46551692     0.00000044    -0.00001700  0.50D-07  0.17D-07  5  5     0.27
   6      1.07497595    -0.24790144   -56.46551647     0.00000044    -0.00000261  0.13D-07  0.18D-08  6  6     0.32
   7      1.07497908    -0.24790166   -56.46551669    -0.00000022    -0.00000012  0.16D-08  0.44D-09  6  1     0.37
   8      1.07498006    -0.24790165   -56.46551668     0.00000001     0.00000018  0.11D-09  0.33D-10  6  2     0.42
   9      1.07498053    -0.24790162   -56.46551665     0.00000003    -0.00000009  0.77D-12  0.22D-11  6  3     0.47
  10      1.07498056    -0.24790161   -56.46551664     0.00000000    -0.00000001  0.77D-13  0.11D-12  6  4     0.52
  11      1.07498058    -0.24790161   -56.46551664    -0.00000000    -0.00000001  0.64D-14  0.51D-14  6  5     0.56
  12      1.07498059    -0.24790162   -56.46551665    -0.00000000    -0.00000000  0.44D-15  0.35D-15  6  6     0.61
  13      1.07498059    -0.24790162   -56.46551664     0.00000000    -0.00000000  0.62D-16  0.22D-16  6  1     0.65
  14      1.07498059    -0.24790162   -56.46551665    -0.00000000    -0.00000000  0.37D-17  0.18D-17  6  2     0.70
  15      1.07498059    -0.24790162   -56.46551665    -0.00000000     0.00000000  0.81D-18  0.19D-18  6  3     0.75
  16      1.07498059    -0.24790162   -56.46551665    -0.00000000     0.00000000  0.26D-18  0.33D-19  6  4     0.80
  17      1.07498059    -0.24790162   -56.46551665    -0.00000000     0.00000000  0.33D-19  0.64D-20  6  5     0.85
  18      1.07498059    -0.24790162   -56.46551665    -0.00000000    -0.00000000  0.25D-20  0.69D-21  6  6     0.90

 Norm of t1 vector:      0.02460036      S-energy:     0.00000000      T1 diagnostic:  0.00615009
                                                                       D1 diagnostic:  0.01003832


 Total CPU time for triples:      0.19 sec


 RESULTS
 =======

  Reference energy                    -56.217615029951
  CCSD singlet pair energy             -0.176589326079
  CCSD triplet pair energy             -0.071312288982
  CCSD correlation energy              -0.247901615060

  Triples (T) contribution             -0.007674560675
  Total correlation energy             -0.255576175735

  CCSD total energy                   -56.465516645010
  CCSD[T] energy                      -56.473370524135
  CCSD-T energy                       -56.473096305916
 !CCSD(T) total energy                -56.473191205685

 Timing summary (sec):

 STEP                 CPU(USER)    SYS     CPU(TOT)    WALL
 Transformation          0.04      0.01      0.05      0.06
 CCSD iterations         0.86      0.07      0.93      1.13
 Triples                 0.19      0.00      0.19      0.20

 Program statistics:

 Available memory in ccsd:               999999836
 Min. memory needed in ccsd:                174738
 Max. memory used in ccsd:                  198872
 Max. memory used in cckext:                163034 (18 integral passes)



 **********************************************************************************************************************************
 DATASETS  * FILE   NREC   LENGTH (MB)   RECORD NAMES
              1      20       36.39       500      610      700      900      950      970     1000      129      960     1100   
                                          VAR    BASINP    GEOM    SYMINP    ZMAT    AOBASIS   BASIS     P2S    ABASIS      S 
                                         1400     1410     1200     1210     1080     1600     1650     1300     1700     1380   
                                           T        V       H0       H01     AOSYM     SMH    MOLCAS    ERIS     OPER     JKOP   

              2       3        0.42       700     1000     2100   
                                         GEOM     BASIS     RHF  

 PROGRAMS   *        TOTAL   CCSD(T)       RHF       INT
 CPU TIMES  *         1.69      1.10      0.26      0.27
 REAL TIME  *         2.95 SEC
 DISK USED  *       107.34 MB      
 GA USED    *         0.00 MB       (max)       0.00 MB       (current)
 **********************************************************************************************************************************

        CCSD(T)         RHF-SCF 
    -56.47319121    -56.21761503
 **********************************************************************************************************************************
 Variable memory released
