
 Primary working directories    : /tmp/333988.8.gen6.q
 Secondary working directories  : /tmp/333988.8.gen6.q
 Wavefunction directory         : /home/vulcan/mel64643/wfu/
 Main file repository           : /tmp/333988.8.gen6.q/

 ARCHNAME  : Linux/x86_64
 FC        : /opt/intel/compilers_and_libraries_2016.1.150/linux/bin/intel64/ifort
 FCVERSION : 16.0.1
 BLASLIB   : -mkl
 id        : ccgc

 Nodes     nprocs
 n084         3
 Number of processes for MPI-2 version of Molpro:   nprocs(total)=    4   nprocs(compute)=    3   nprocs(helper)=    1
 ga_uses_ma=false, calling ma_init with nominal heap.
 GA-space will be limited to   8.0 MW (determined by -G option)

 Using customized tuning parameters: mindgm=10; mindgv=16; mindgc=4; mindgr=1; noblas=0; mincuda=1000; minvec=7
 default implementation of scratch files=sf  

 ***,Optimization of min3
 memory,1000,m
 gthresh,energy=1.0d-10,orbital=1.0d-10,oneint=1.0d-16,twoint=1.0d-16,optgrad=1.0d-6,compress=1.0d-13
 geomtyp=xyz
 
  bohr
  geometry = {
  12
  arbitrary comment
  C         -3.0933431853          1.5867399225          0.0254565675
  C         -0.8650354487         -0.0787181743         -0.6601332149
  C         -1.1268880803         -2.7860055416          0.2463202092
  O          1.3081264370          1.1071485128          0.5798549189
  O          3.4543214300          0.1289541234         -0.2452639770
  H         -4.8037819983          0.8653544386         -0.8720401035
  H         -2.7847062288          3.5250712330         -0.6019390480
  H         -3.3797131588          1.5883337992          2.0688011601
  H         -0.4659426362         -0.0155724017         -2.6825000800
  H         -2.7073585927         -3.6940060904         -0.7206015518
  H         -1.4860571636         -2.8267533512          2.2783213586
  H          0.5934556869         -3.8435393865         -0.1561492204
 }
 
 basis=cc-pvtz
 {rhf;maxit,200}
 {uccsd(t);maxit,200}

 Variables initialized (661), CPU time= 0.00 sec
 Commands  initialized (458), CPU time= 0.00 sec, 486 directives.
 Default parameters read. Elapsed time= 0.04 sec

 Checking input...
 Passed
1


                                         ***  PROGRAM SYSTEM MOLPRO  ***
                         Copyright, University College Cardiff Consultants Limited, 2008

                                    Version 2010.1 linked May 16 2016 07:17:05


 **********************************************************************************************************************************
 LABEL *   Optimization of min3                                                          
 Linux-4.4.3/n084(x86_64) 64 bit mpp version                                             DATE: 15-Jul-20          TIME: 04:01:23  
 **********************************************************************************************************************************

 SHA1:             9e8077add272b0f3cad6f7df79ec5211205f459d
 **********************************************************************************************************************************

 THRESHOLDS:

 ZERO    =  1.00D-12  ONEINT  =  1.00D-16  TWOINT  =  1.00D-16  PREFAC  =  1.00D-14  LOCALI  =  1.00D-09  EORDER  =  1.00D-04
 ENERGY  =  1.00D-10  ETEST   =  0.00D+00  EDENS   =  0.00D+00  THRDEDEF=  1.00D-06  GRADIENT=  1.00D-02  STEP    =  1.00D-03
 ORBITAL =  1.00D-10  CIVEC   =  1.00D-05  COEFF   =  1.00D-04  PRINTCI =  5.00D-02  PUNCHCI =  9.90D+01  OPTGRAD =  1.00D-06
 OPTENERG=  1.00D-06  OPTSTEP =  3.00D-04  THRGRAD =  1.00D-10  COMPRESS=  1.00D-13  VARMIN  =  1.00D-07  VARMAX  =  1.00D-03
 THRDOUB =  0.00D+00  THRDIV  =  1.00D-05  THRRED  =  1.00D-07  THRPSP  =  1.00D+00  THRDC   =  1.00D-10  THRCS   =  1.00D-10
 THRNRM  =  1.00D-08  THREQ   =  0.00D+00  THRDE   =  1.00D+00  THRREF  =  1.00D-05  SPARFAC =  1.00D+00  THRDLP  =  1.00D-07
 THRDIA  =  1.00D-10  THRDLS  =  1.00D-07  THRGPS  =  0.00D+00  THRKEX  =  0.00D+00  THRDIS  =  2.00D-01  THRVAR  =  1.00D-10
 THRLOC  =  1.00D-06  THRGAP  =  1.00D-06  THRLOCT = -1.00D+00  THRGAPT = -1.00D+00  THRORB  =  1.00D-06  THRMLTP =  0.00D+00
 THRCPQCI=  1.00D-10  KEXTA   =  0.00D+00  THRCOARS=  0.00D+00  SYMTOL  =  1.00D-06  GRADTOL =  1.00D-06  THROVL  =  1.00D-08
 THRORTH =  1.00D-08  GRID    =  1.00D-06  GRIDMAX =  1.00D-03  DTMAX   =  0.00D+00

 SETTING GEOMTYP        =    XYZ
 ZUNIT=BOHR
 

 Variable memory set to 1000000000 words,  buffer space   230000 words

 SETTING BASIS          =    CC-PVTZ


 Recomputing integrals since basis changed


 Using spherical harmonics

 Library entry C      S cc-pVTZ              selected for orbital group  1
 Library entry C      P cc-pVTZ              selected for orbital group  1
 Library entry C      D cc-pVTZ              selected for orbital group  1
 Library entry C      F cc-pVTZ              selected for orbital group  1
 Library entry O      S cc-pVTZ              selected for orbital group  2
 Library entry O      P cc-pVTZ              selected for orbital group  2
 Library entry O      D cc-pVTZ              selected for orbital group  2
 Library entry O      F cc-pVTZ              selected for orbital group  2
 Library entry H      S cc-pVTZ              selected for orbital group  3
 Library entry H      P cc-pVTZ              selected for orbital group  3
 Library entry H      D cc-pVTZ              selected for orbital group  3

1PROGRAM * SEWARD (Integral evaluation for generally contracted gaussian basis sets)     Author: Roland Lindh, 1990

 Geometry written to block  1 of record 700


 Point group  C1  



 ATOMIC COORDINATES

 NR  ATOM    CHARGE       X              Y              Z

   1  C       6.00   -3.093343185    1.586739923    0.025456567
   2  C       6.00   -0.865035449   -0.078718174   -0.660133215
   3  C       6.00   -1.126888080   -2.786005542    0.246320209
   4  O       8.00    1.308126437    1.107148513    0.579854919
   5  O       8.00    3.454321430    0.128954123   -0.245263977
   6  H       1.00   -4.803781998    0.865354439   -0.872040104
   7  H       1.00   -2.784706229    3.525071233   -0.601939048
   8  H       1.00   -3.379713159    1.588333799    2.068801160
   9  H       1.00   -0.465942636   -0.015572402   -2.682500080
  10  H       1.00   -2.707358593   -3.694006090   -0.720601552
  11  H       1.00   -1.486057164   -2.826753351    2.278321359
  12  H       1.00    0.593455687   -3.843539386   -0.156149220

 Bond lengths in Bohr (Angstrom)

 1-2  2.865159575  1-6  2.061916153  1-7  2.060584941  1-8  2.063314670  2-3  2.866989623
     ( 1.516177147)     ( 1.091119035)     ( 1.090414588)     ( 1.091859098)     ( 1.517145567)

  2- 4  2.768841446   2- 9  2.062336102   3-10  2.063320074   3-11  2.063902005   3-12  2.059111981
       ( 1.465207789)       ( 1.091341263)       ( 1.091861958)       ( 1.092169903)       ( 1.089635131)

 4-5  2.498767377
     ( 1.322290746)

 Bond angles

  1-2-3  113.71658681   1-2-4  104.73161187   1-2-9  111.55234538   2-1-6  109.73264020

  2- 1- 7  110.94351524   2- 1- 8  110.20374744   2- 3-10  109.71549856   2- 3-11  110.23184586

  2- 3-12  110.29620722   2- 4- 5  111.01283069   3- 2- 4  109.54364789   3- 2- 9  110.89331189

  4-2-9  105.91200713   6-1-7  108.71278089   6-1-8  108.43314288   7-1-8  108.75906580

 10- 3-11  108.62620467  10- 3-12  108.80533539  11- 3-12  109.12865249

 NUCLEAR CHARGE:                   41
 NUMBER OF PRIMITIVE AOS:         354
 NUMBER OF SYMMETRY AOS:          322
 NUMBER OF CONTRACTIONS:          248   ( 248A   )
 NUMBER OF CORE ORBITALS:           5   (   5A   )
 NUMBER OF VALENCE ORBITALS:       27   (  27A   )


 NUCLEAR REPULSION ENERGY  186.58554184


 Eigenvalues of metric

         1 0.807E-03 0.958E-03 0.110E-02 0.124E-02 0.137E-02 0.150E-02 0.160E-02 0.164E-02


 Contracted 2-electron integrals neglected if value below      1.0D-16
 AO integral compression algorithm  1   Integral accuracy      1.0D-16

     3371.434 MB (compressed) written to integral file ( 82.1%)

     Node minimum: 918.553 MB, node maximum: 1514.144 MB


 NUMBER OF SORTED TWO-ELECTRON INTEGRALS:  158903334.     BUFFER LENGTH:  32768
 NUMBER OF SEGMENTS:  10  SEGMENT LENGTH:   15997437      RECORD LENGTH: 524288

 Memory used in sort:      16.55 MW

 SORT1 READ   513519912. AND WROTE   152623562. INTEGRALS IN    442 RECORDS. CPU TIME:     8.75 SEC, REAL TIME:    10.07 SEC
 SORT2 READ   459379490. AND WROTE   476679126. INTEGRALS IN  10743 RECORDS. CPU TIME:     1.39 SEC, REAL TIME:     2.54 SEC

 Node minimum:   158882750.  Node maximum:   158903334. integrals

 OPERATOR DM      FOR CENTER  0  COORDINATES:    0.000000    0.000000    0.000000


 **********************************************************************************************************************************
 DATASETS  * FILE   NREC   LENGTH (MB)   RECORD NAMES
              1      18        5.04       500      610      700      900      950      970     1000      129      960     1100   
                                          VAR    BASINP    GEOM    SYMINP    ZMAT    AOBASIS   BASIS     P2S    ABASIS      S 
                                         1400     1410     1200     1210     1080     1600     1650     1700   
                                           T        V       H0       H01     AOSYM     SMH    MOLCAS    OPER   

 PROGRAMS   *        TOTAL       INT
 CPU TIMES  *        18.45     18.41
 REAL TIME  *        21.59 SEC
 DISK USED  *         9.16 GB      
 GA USED    *         0.01 MB       (max)       0.00 MB       (current)
 **********************************************************************************************************************************

1PROGRAM * RHF-SCF (OPEN SHELL)       Authors: W. Meyer, H.-J. Werner


 NUMBER OF ELECTRONS:      21+   20-    SPACE SYMMETRY=1    SPIN SYMMETRY: Doublet 
 CONVERGENCE THRESHOLDS:    1.00E-10 (Density)    1.00E-11 (Energy)
 MAX. NUMBER OF ITERATIONS:      200
 INTERPOLATION TYPE:            DIIS
 INTERPOLATION STEPS:              2 (START)      1 (STEP)
 LEVEL SHIFTS:                 -0.30 (CLOSED)  0.00 (OPEN) 



 Orbital guess generated from atomic densities. Full valence occupancy:   32

 Molecular orbital dump at record        2100.2

 ITERATION    DDIFF          GRAD             ENERGY        2-EL.EN.            DIPOLE MOMENTS         DIIS
    1      0.000D+00      0.000D+00      -267.26110247    559.716574   -1.77647   -0.07775   -0.10250    0
    2      0.000D+00      0.326D-02      -267.33472050    562.566378   -1.01569   -0.43551   -0.35625    1
    3      0.471D-02      0.229D-02      -267.36122526    561.517898   -1.18951   -0.24838   -0.21710    2
    4      0.211D-02      0.546D-03      -267.36946019    561.707083   -0.97750   -0.32086   -0.29685    3
    5      0.926D-03      0.484D-03      -267.37367258    561.749135   -0.92175   -0.32278   -0.30093    4
    6      0.583D-03      0.271D-03      -267.37558110    561.716347   -0.88048   -0.31605   -0.29874    5
    7      0.484D-03      0.132D-03      -267.37591309    561.702175   -0.89032   -0.30460   -0.29086    6
    8      0.256D-03      0.354D-04      -267.37593477    561.699456   -0.88991   -0.30137   -0.28938    7
    9      0.841D-04      0.188D-04      -267.37594550    561.699668   -0.89245   -0.30189   -0.28943    8
   10      0.445D-04      0.816D-05      -267.37594729    561.699572   -0.89362   -0.30126   -0.28915    9
   11      0.198D-04      0.319D-05      -267.37594754    561.699513   -0.89424   -0.30111   -0.28899    9
   12      0.782D-05      0.147D-05      -267.37594760    561.699735   -0.89438   -0.30120   -0.28903    9
   13      0.368D-05      0.523D-06      -267.37594761    561.699786   -0.89440   -0.30126   -0.28906    9
   14      0.148D-05      0.295D-06      -267.37594761    561.699784   -0.89438   -0.30128   -0.28906    9
   15      0.808D-06      0.143D-06      -267.37594761    561.699790   -0.89438   -0.30128   -0.28906    9
   16      0.421D-06      0.730D-07      -267.37594761    561.699792   -0.89438   -0.30129   -0.28907    9
   17      0.179D-06      0.357D-07      -267.37594761    561.699786   -0.89437   -0.30128   -0.28907    9
   18      0.127D-06      0.226D-07      -267.37594761    561.699783   -0.89438   -0.30128   -0.28906    9
   19      0.873D-07      0.156D-07      -267.37594761    561.699784   -0.89437   -0.30128   -0.28907    9
   20      0.836D-07      0.120D-07      -267.37594761    561.699782   -0.89437   -0.30128   -0.28907    9
   21      0.107D-06      0.971D-08      -267.37594761    561.699781   -0.89437   -0.30128   -0.28907    9
   22      0.135D-06      0.723D-08      -267.37594761    561.699782   -0.89437   -0.30128   -0.28907    9
   23      0.133D-06      0.420D-08      -267.37594761    561.699781   -0.89438   -0.30128   -0.28907    9
   24      0.857D-07      0.229D-08      -267.37594761    561.699780   -0.89438   -0.30128   -0.28907    9
   25      0.324D-07      0.895D-09      -267.37594761    561.699780   -0.89438   -0.30128   -0.28907    9
   26      0.497D-08      0.407D-09      -267.37594761    561.699781   -0.89438   -0.30128   -0.28907    9
   27      0.385D-08      0.184D-09      -267.37594761    561.699781   -0.89438   -0.30128   -0.28907    9
   28      0.520D-09      0.850D-10      -267.37594761    561.699781   -0.89438   -0.30128   -0.28907    9
   29      0.277D-09      0.428D-10      -267.37594761    561.699781   -0.89438   -0.30128   -0.28907    9
   30      0.130D-09      0.212D-10      -267.37594761    561.699781   -0.89438   -0.30128   -0.28907    9
   31      0.513D-10      0.177D-10      -267.37594761    561.699781   -0.89438   -0.30128   -0.28907    0

 Final alpha occupancy:  21
 Final beta  occupancy:  20

 !RHF STATE 1.1 Energy               -267.375947609459
 Nuclear energy                       186.58554184
 One-electron energy                 -734.81137972
 Two-electron energy                  280.84989027
 Virial quotient                       -1.00116952
 !RHF STATE 1.1 Dipole moment          -0.89437591    -0.30128266    -0.28906563
 Dipole moment /Debye                  -2.27312792    -0.76573399    -0.73468341

 Orbital energies:

         1.1          2.1          3.1          4.1          5.1          6.1          7.1          8.1          9.1         10.1
    -20.648581   -20.640278   -11.297584   -11.228885   -11.225729    -1.523502    -1.171178    -1.034291    -0.952766    -0.819393

        11.1         12.1         13.1         14.1         15.1         16.1         17.1         18.1         19.1         20.1
     -0.695429    -0.667820    -0.652719    -0.595306    -0.562562    -0.557630    -0.544672    -0.501265    -0.489918    -0.464976

        21.1         22.1         23.1
     -0.562626     0.137682     0.174810


 **********************************************************************************************************************************
 DATASETS  * FILE   NREC   LENGTH (MB)   RECORD NAMES
              1      18        5.04       500      610      700      900      950      970     1000      129      960     1100   
                                          VAR    BASINP    GEOM    SYMINP    ZMAT    AOBASIS   BASIS     P2S    ABASIS      S 
                                         1400     1410     1200     1210     1080     1600     1650     1700   
                                           T        V       H0       H01     AOSYM     SMH    MOLCAS    OPER   

              2       3        2.21       700     1000     2100   
                                         GEOM     BASIS     RHF  

 PROGRAMS   *        TOTAL       RHF       INT
 CPU TIMES  *        60.91     42.46     18.41
 REAL TIME  *        67.29 SEC
 DISK USED  *         9.20 GB      
 SF USED    *         0.25 MB      
 GA USED    *         0.01 MB       (max)       0.00 MB       (current)
 **********************************************************************************************************************************


1PROGRAM * CCSD (Unrestricted open-shell coupled cluster)     Authors: C. Hampel, H.-J. Werner, 1991, M. Deegan, P.J. Knowles, 1992


 Convergence thresholds:  THRVAR = 1.00D-08  THRDEN = 1.00D-10

 CCSD(T)     terms to be evaluated (factor= 1.000)


 Number of core orbitals:           5 (   5 )
 Number of closed-shell orbitals:  15 (  15 )
 Number of active  orbitals:        1 (   1 )
 Number of external orbitals:     227 ( 227 )

 Memory could be reduced to 332.02 Mwords without degradation in triples

 Number of N-1 electron functions:              31
 Number of N-2 electron functions:             465
 Number of singly external CSFs:              7068
 Number of doubly external CSFs:          18353430
 Total number of CSFs:                    18360498

 Molecular orbitals read from record     2100.2  Type=RHF/CANONICAL (state 1.1)

 Integral transformation finished. Total CPU:  19.97 sec, npass=  1  Memory used: 145.25 MW

 Starting RMP2 calculation

 ITER.      SQ.NORM     CORR.ENERGY   TOTAL ENERGY   ENERGY CHANGE        DEN1      VAR(S)    VAR(P)  DIIS     TIME
   1      1.26536880    -0.96760181  -268.34354942    -0.96760181    -0.00323665  0.26D-04  0.11D-02  1  1    23.35
   2      1.26815397    -0.97109168  -268.34703929    -0.00348987    -0.00000666  0.10D-05  0.23D-05  2  2    25.92
   3      1.26823391    -0.97114460  -268.34709221    -0.00005292    -0.00000008  0.54D-07  0.11D-07  3  3    28.61
   4      1.26823562    -0.97114441  -268.34709202     0.00000019    -0.00000000  0.16D-08  0.12D-09  4  4    31.46
   5      1.26823587    -0.97114449  -268.34709210    -0.00000009    -0.00000000  0.19D-10  0.45D-11  5  5    34.49
   6      1.26823593    -0.97114453  -268.34709214    -0.00000003    -0.00000000  0.50D-13  0.56D-13  6  6    37.70
   7      1.26823593    -0.97114453  -268.34709214     0.00000000    -0.00000000  0.15D-14  0.85D-15  6  1    41.13
   8      1.26823593    -0.97114453  -268.34709214     0.00000000    -0.00000000  0.16D-16  0.79D-17  6  2    44.40
   9      1.26823593    -0.97114453  -268.34709214    -0.00000000    -0.00000000  0.31D-18  0.10D-18  6  3    47.67

 Norm of t1 vector:      0.04590591      S-energy:    -0.00446944      T1 diagnostic:  0.00074408
 Norm of t2 vector:      0.51587651      P-energy:    -0.96667508
                                         Alpha-Beta:  -0.73707698
                                         Alpha-Alpha: -0.11898746
                                         Beta-Beta:   -0.11061065

 Spin contamination <S**2-Sz**2-Sz>     0.00145410
  Reference energy                   -267.375947609454
  RHF-RMP2 correlation energy          -0.971144526208
 !RHF-RMP2 energy                    -268.347092135663

 Starting UCCSD calculation

 ITER.      SQ.NORM     CORR.ENERGY   TOTAL ENERGY   ENERGY CHANGE        DEN1      VAR(S)    VAR(P)  DIIS     TIME
   1      1.27983312    -0.97925236  -268.35519997    -0.97925236    -0.02933016  0.65D-02  0.54D-02  1  1   122.59
   2      1.30623283    -1.00587647  -268.38182408    -0.02662411    -0.00363287  0.62D-03  0.97D-03  2  2   197.47
   3      1.32286792    -1.01269844  -268.38864604    -0.00682196    -0.00091034  0.75D-03  0.76D-04  3  3   272.85
   4      1.33408986    -1.01535603  -268.39130364    -0.00265759    -0.00038384  0.31D-03  0.33D-04  4  4   348.31
   5      1.34910140    -1.01734702  -268.39329463    -0.00199100    -0.00011736  0.10D-03  0.89D-05  5  5   423.99
   6      1.36056390    -1.01836507  -268.39431268    -0.00101805    -0.00001802  0.92D-05  0.32D-05  6  6   499.76
   7      1.36423031    -1.01860449  -268.39455210    -0.00023942    -0.00000314  0.16D-05  0.60D-06  6  1   597.52
   8      1.36482946    -1.01864636  -268.39459397    -0.00004187    -0.00000067  0.26D-06  0.15D-06  6  2   675.39
   9      1.36514731    -1.01866470  -268.39461231    -0.00001833    -0.00000014  0.65D-07  0.32D-07  6  4   750.60
  10      1.36513377    -1.01866344  -268.39461105     0.00000125    -0.00000002  0.10D-07  0.42D-08  6  3   826.50
  11      1.36519532    -1.01866846  -268.39461607    -0.00000502    -0.00000000  0.23D-08  0.93D-09  6  5   902.46
  12      1.36518786    -1.01866599  -268.39461360     0.00000247    -0.00000000  0.94D-09  0.21D-09  6  6   978.27
  13      1.36518350    -1.01866485  -268.39461246     0.00000114    -0.00000000  0.54D-09  0.52D-10  6  1  1053.92
  14      1.36517101    -1.01866339  -268.39461100     0.00000146    -0.00000000  0.34D-09  0.18D-10  6  2  1129.45
  15      1.36516540    -1.01866272  -268.39461033     0.00000067    -0.00000000  0.28D-09  0.14D-10  6  3  1205.19
  16      1.36516262    -1.01866256  -268.39461017     0.00000016    -0.00000000  0.21D-09  0.11D-10  6  4  1280.81
  17      1.36516182    -1.01866255  -268.39461016     0.00000001    -0.00000000  0.11D-09  0.11D-10  6  5  1356.65
  18      1.36516395    -1.01866269  -268.39461030    -0.00000014    -0.00000000  0.27D-10  0.49D-11  6  6  1432.51
  19      1.36516691    -1.01866299  -268.39461060    -0.00000030    -0.00000000  0.25D-11  0.16D-11  6  2  1508.34
  20      1.36516637    -1.01866286  -268.39461047     0.00000013    -0.00000000  0.57D-12  0.17D-12  6  1  1584.15
  21      1.36516669    -1.01866290  -268.39461051    -0.00000005    -0.00000000  0.19D-12  0.55D-13  6  4  1659.90
  22      1.36516659    -1.01866289  -268.39461050     0.00000002    -0.00000000  0.65D-13  0.18D-13  6  2  1735.46
  23      1.36516666    -1.01866290  -268.39461051    -0.00000001    -0.00000000  0.19D-13  0.36D-14  6  3  1810.96
  24      1.36516659    -1.01866289  -268.39461050     0.00000001    -0.00000000  0.21D-14  0.69D-15  6  5  1886.50
  25      1.36516658    -1.01866289  -268.39461050     0.00000000    -0.00000000  0.63D-15  0.19D-15  6  6  1962.07
  26      1.36516658    -1.01866289  -268.39461050     0.00000000    -0.00000000  0.33D-15  0.68D-16  6  1  2037.96
  27      1.36516658    -1.01866289  -268.39461050    -0.00000000    -0.00000000  0.21D-15  0.17D-16  6  4  2113.63
  28      1.36516658    -1.01866289  -268.39461050    -0.00000000    -0.00000000  0.16D-15  0.86D-17  6  2  2189.12
  29      1.36516658    -1.01866289  -268.39461050    -0.00000000    -0.00000000  0.12D-15  0.63D-17  6  3  2264.84
  30      1.36516658    -1.01866289  -268.39461050     0.00000000    -0.00000000  0.63D-16  0.58D-17  6  5  2340.69
  31      1.36516658    -1.01866289  -268.39461050     0.00000000    -0.00000000  0.23D-16  0.31D-17  6  6  2416.40
  32      1.36516658    -1.01866289  -268.39461050     0.00000000    -0.00000000  0.97D-17  0.18D-17  6  1  2492.36
  33      1.36516658    -1.01866289  -268.39461050    -0.00000000    -0.00000000  0.49D-17  0.66D-18  6  4  2567.91

 Norm of t1 vector:      0.23084015      S-energy:    -0.00501524      T1 diagnostic:  0.02844330
                                                                       D1 diagnostic:  0.14571264
 Norm of t2 vector:      0.55846164      P-energy:    -1.01364765
                                         Alpha-Beta:  -0.80135718
                                         Alpha-Alpha: -0.10868083
                                         Beta-Beta:   -0.10360964

 Singles amplitudes (print threshold =  0.500E-01):

         I         SYM. A    A   T(IA) [Beta-Beta]

         8         1         1     -0.09581723
         9         1         1      0.09921972
        11         1         1     -0.05575809
        12         1         1     -0.07410931
        14         1         1     -0.11124248

 Spin contamination <S**2-Sz**2-Sz>     0.00175495

 Memory could be reduced to 360.52 Mwords without degradation in triples
 

 RESULTS
 =======

  Reference energy                   -267.375947609454
  UCCSD singles energy                 -0.005015241247
  UCCSD pair energy                    -1.013647647075
  UCCSD correlation energy             -1.018662888322
  Triples (T) contribution             -0.040830217628
  Total correlation energy             -1.059493105950
 
  RHF-UCCSD energy                   -268.394610497776
  RHF-UCCSD[T] energy                -268.438754873107
  RHF-UCCSD-T energy                 -268.434941985687
 !RHF-UCCSD(T) energy                -268.435440715405

 Program statistics:

 Available memory in ccsd:               999997692
 Min. memory needed in ccsd:              51505734
 Max. memory used in ccsd:                74803578
 Max. memory used in cckext:              59475747 (33 integral passes)
 Max. memory used in cckint:             145249478 ( 1 integral passes)



 **********************************************************************************************************************************
 DATASETS  * FILE   NREC   LENGTH (MB)   RECORD NAMES
              1      18        5.04       500      610      700      900      950      970     1000      129      960     1100   
                                          VAR    BASINP    GEOM    SYMINP    ZMAT    AOBASIS   BASIS     P2S    ABASIS      S 
                                         1400     1410     1200     1210     1080     1600     1650     1700   
                                           T        V       H0       H01     AOSYM     SMH    MOLCAS    OPER   

              2       3        2.21       700     1000     2100   
                                         GEOM     BASIS     RHF  

 PROGRAMS   *        TOTAL  UCCSD(T)       RHF       INT
 CPU TIMES  *      4311.37   4250.45     42.46     18.41
 REAL TIME  *      4401.69 SEC
 DISK USED  *        16.17 GB      
 SF USED    *         6.57 GB      
 GA USED    *         0.01 MB       (max)       0.00 MB       (current)
 **********************************************************************************************************************************

        UCCSD(T)        RHF-SCF 
   -268.43544072   -267.37594761
 **********************************************************************************************************************************
 Variable memory released
