
 Primary working directories    : /tmp/601555.41.gen4.q
 Secondary working directories  : /tmp/601555.41.gen4.q
 Wavefunction directory         : /home/vulcan/mel64643/wfu/
 Main file repository           : /tmp/601555.41.gen4.q/

 ARCHNAME  : Linux/x86_64
 FC        : /opt/intel/compilers_and_libraries_2016.1.150/linux/bin/intel64/ifort
 FCVERSION : 16.0.1
 BLASLIB   : -mkl
 id        : ccgc

 Nodes     nprocs
 n066         1
 ga_uses_ma=false, calling ma_init with nominal heap.
 GA-space will be limited to   8.0 MW (determined by -G option)

 Using customized tuning parameters: mindgm=10; mindgv=16; mindgc=4; mindgr=1; noblas=0; mincuda=1000; minvec=7
 default implementation of scratch files=df  

 ***,Optimization of min3
 memory,1000,m
 gthresh,energy=1.0d-12,orbital=1.0d-10,oneint=1.0d-16,twoint=1.0d-16,optgrad=1.0d-6,compress=1.0d-13
 geomtyp=xyz
 
  bohr
  geometry = {
  6
  arbitrary comment
  C   -1.3715194515   -0.0234150299    0.0000070973
  O    1.3071496330    0.1209234209   -0.0000019282
  H   -2.0784201256    1.9141288323   -0.0000824170
  H   -2.1105940687   -0.9823308911    1.6866553063
  H   -2.1105866147   -0.9824607360   -1.6865856487
  H    1.9402464676   -1.5769777163   -0.0000008197
 }
 
 basis=cc-pvdz
 {rhf;maxit,200}
 {ccsd(t);maxit,200}

 Variables initialized (661), CPU time= 0.01 sec
 Commands  initialized (458), CPU time= 0.00 sec, 486 directives.
 Default parameters read. Elapsed time= 0.05 sec

 Checking input...
 Passed
1


                                         ***  PROGRAM SYSTEM MOLPRO  ***
                         Copyright, University College Cardiff Consultants Limited, 2008

                                    Version 2010.1 linked May 16 2016 07:17:05


 **********************************************************************************************************************************
 LABEL *   Optimization of min3                                                          
 Linux-4.4.3/n066(x86_64) 64 bit mpp version                                             DATE: 06-Nov-21          TIME: 15:39:01  
 **********************************************************************************************************************************

 SHA1:             9e8077add272b0f3cad6f7df79ec5211205f459d
 **********************************************************************************************************************************

 THRESHOLDS:

 ZERO    =  1.00D-12  ONEINT  =  1.00D-16  TWOINT  =  1.00D-16  PREFAC  =  1.00D-14  LOCALI  =  1.00D-09  EORDER  =  1.00D-04
 ENERGY  =  1.00D-12  ETEST   =  0.00D+00  EDENS   =  0.00D+00  THRDEDEF=  1.00D-06  GRADIENT=  1.00D-02  STEP    =  1.00D-03
 ORBITAL =  1.00D-10  CIVEC   =  1.00D-05  COEFF   =  1.00D-04  PRINTCI =  5.00D-02  PUNCHCI =  9.90D+01  OPTGRAD =  1.00D-06
 OPTENERG=  1.00D-06  OPTSTEP =  3.00D-04  THRGRAD =  1.00D-10  COMPRESS=  1.00D-13  VARMIN  =  1.00D-07  VARMAX  =  1.00D-03
 THRDOUB =  0.00D+00  THRDIV  =  1.00D-05  THRRED  =  1.00D-07  THRPSP  =  1.00D+00  THRDC   =  1.00D-10  THRCS   =  1.00D-10
 THRNRM  =  1.00D-08  THREQ   =  0.00D+00  THRDE   =  1.00D+00  THRREF  =  1.00D-05  SPARFAC =  1.00D+00  THRDLP  =  1.00D-07
 THRDIA  =  1.00D-10  THRDLS  =  1.00D-07  THRGPS  =  0.00D+00  THRKEX  =  0.00D+00  THRDIS  =  2.00D-01  THRVAR  =  1.00D-10
 THRLOC  =  1.00D-06  THRGAP  =  1.00D-06  THRLOCT = -1.00D+00  THRGAPT = -1.00D+00  THRORB  =  1.00D-06  THRMLTP =  0.00D+00
 THRCPQCI=  1.00D-10  KEXTA   =  0.00D+00  THRCOARS=  0.00D+00  SYMTOL  =  1.00D-06  GRADTOL =  1.00D-06  THROVL  =  1.00D-08
 THRORTH =  1.00D-08  GRID    =  1.00D-06  GRIDMAX =  1.00D-03  DTMAX   =  0.00D+00

 SETTING GEOMTYP        =    XYZ
 ZUNIT=BOHR
 

 Variable memory set to 1000000000 words,  buffer space   230000 words

 SETTING BASIS          =    CC-PVDZ


 Recomputing integrals since basis changed


 Using spherical harmonics

 Library entry C      S cc-pVDZ              selected for orbital group  1
 Library entry C      P cc-pVDZ              selected for orbital group  1
 Library entry C      D cc-pVDZ              selected for orbital group  1
 Library entry O      S cc-pVDZ              selected for orbital group  2
 Library entry O      P cc-pVDZ              selected for orbital group  2
 Library entry O      D cc-pVDZ              selected for orbital group  2
 Library entry H      S cc-pVDZ              selected for orbital group  3
 Library entry H      P cc-pVDZ              selected for orbital group  3

1PROGRAM * SEWARD (Integral evaluation for generally contracted gaussian basis sets)     Author: Roland Lindh, 1990

 Geometry written to block  1 of record 700


 Point group  C1  



 ATOMIC COORDINATES

 NR  ATOM    CHARGE       X              Y              Z

   1  C       6.00   -1.371519451   -0.023415030    0.000007097
   2  O       8.00    1.307149633    0.120923421   -0.000001928
   3  H       1.00   -2.078420126    1.914128832   -0.000082417
   4  H       1.00   -2.110594069   -0.982330891    1.686655306
   5  H       1.00   -2.110586615   -0.982460736   -1.686585649
   6  H       1.00    1.940246468   -1.576977716   -0.000000820

 Bond lengths in Bohr (Angstrom)

 1-2  2.682555061  1-3  2.062470555  1-4  2.076182338  1-5  2.076194603  2-6  1.812092678
     ( 1.419547000)     ( 1.091412412)     ( 1.098668375)     ( 1.098674865)     ( 0.958918146)

 Bond angles

  1-2-6  107.36462407   2-1-3  106.95981399   2-1-4  112.35325915   2-1-5  112.35276768

  3-1-4  108.17467370   3-1-5  108.17392738   4-1-5  108.65506808

 NUCLEAR CHARGE:                   18
 NUMBER OF PRIMITIVE AOS:          82
 NUMBER OF SYMMETRY AOS:           80
 NUMBER OF CONTRACTIONS:           48   (  48A   )
 NUMBER OF CORE ORBITALS:           2   (   2A   )
 NUMBER OF VALENCE ORBITALS:       12   (  12A   )


 NUCLEAR REPULSION ENERGY   40.29065712


 Eigenvalues of metric

         1 0.969E-02 0.176E-01 0.372E-01 0.378E-01 0.382E-01 0.478E-01 0.484E-01 0.519E-01


 Contracted 2-electron integrals neglected if value below      1.0D-16
 AO integral compression algorithm  1   Integral accuracy      1.0D-16

     6.554 MB (compressed) written to integral file ( 95.5%)

     Node minimum: 6.554 MB, node maximum: 6.554 MB


 NUMBER OF SORTED TWO-ELECTRON INTEGRALS:     692076.     BUFFER LENGTH:  32768
 NUMBER OF SEGMENTS:   1  SEGMENT LENGTH:     692076      RECORD LENGTH: 524288

 Memory used in sort:       1.25 MW

 SORT1 READ      832256. AND WROTE      682150. INTEGRALS IN      2 RECORDS. CPU TIME:     0.01 SEC, REAL TIME:     0.02 SEC
 SORT2 READ      682150. AND WROTE      692076. INTEGRALS IN     25 RECORDS. CPU TIME:     0.02 SEC, REAL TIME:     0.02 SEC

 FILE SIZES:   FILE 1:     8.0 MBYTE,  FILE 4:     8.4 MBYTE,   TOTAL:     16.4 MBYTE

 OPERATOR DM      FOR CENTER  0  COORDINATES:    0.000000    0.000000    0.000000


 **********************************************************************************************************************************
 DATASETS  * FILE   NREC   LENGTH (MB)   RECORD NAMES
              1      19        8.05       500      610      700      900      950      970     1000      129      960     1100   
                                          VAR    BASINP    GEOM    SYMINP    ZMAT    AOBASIS   BASIS     P2S    ABASIS      S 
                                         1400     1410     1200     1210     1080     1600     1650     1300     1700   
                                           T        V       H0       H01     AOSYM     SMH    MOLCAS    ERIS     OPER   

 PROGRAMS   *        TOTAL       INT
 CPU TIMES  *         0.23      0.18
 REAL TIME  *         0.41 SEC
 DISK USED  *        23.63 MB      
 GA USED    *         0.00 MB       (max)       0.00 MB       (current)
 **********************************************************************************************************************************

1PROGRAM * RHF-SCF (CLOSED SHELL)       Authors: W. Meyer, H.-J. Werner


 NUMBER OF ELECTRONS:       9+    9-    SPACE SYMMETRY=1    SPIN SYMMETRY: Singlet 
 CONVERGENCE THRESHOLDS:    1.00E-10 (Density)    1.00E-13 (Energy)
 MAX. NUMBER OF ITERATIONS:      200
 INTERPOLATION TYPE:            DIIS
 INTERPOLATION STEPS:              2 (START)      1 (STEP)
 LEVEL SHIFTS:                  0.00 (CLOSED)  0.00 (OPEN) 



 Orbital guess generated from atomic densities. Full valence occupancy:   14

 Molecular orbital dump at record        2100.2

 ITERATION    DDIFF          GRAD             ENERGY        2-EL.EN.            DIPOLE MOMENTS         DIIS
    1      0.000D+00      0.000D+00      -115.01424225    164.346414   -0.49343   -0.90036   -0.00000    0
    2      0.000D+00      0.110D-01      -115.04259871    162.135658   -0.31306   -0.53479    0.00000    1
    3      0.205D-01      0.530D-02      -115.04864077    163.157612   -0.39680   -0.60989    0.00000    2
    4      0.639D-02      0.112D-02      -115.04910385    163.001556   -0.38645   -0.59877    0.00000    3
    5      0.204D-02      0.202D-03      -115.04912480    163.008242   -0.38918   -0.59447    0.00000    4
    6      0.434D-03      0.352D-04      -115.04912558    163.008232   -0.38946   -0.59426    0.00000    5
    7      0.924D-04      0.718D-05      -115.04912561    163.007107   -0.38958   -0.59410    0.00000    6
    8      0.149D-04      0.230D-05      -115.04912562    163.007485   -0.38961   -0.59407    0.00000    7
    9      0.485D-05      0.486D-06      -115.04912562    163.007442   -0.38963   -0.59407    0.00000    6
   10      0.139D-05      0.848D-07      -115.04912562    163.007441   -0.38963   -0.59407    0.00000    6
   11      0.229D-06      0.318D-07      -115.04912562    163.007446   -0.38963   -0.59407    0.00000    6
   12      0.578D-07      0.130D-07      -115.04912562    163.007444   -0.38963   -0.59407    0.00000    7
   13      0.241D-07      0.294D-08      -115.04912562    163.007445   -0.38963   -0.59407    0.00000    7
   14      0.729D-08      0.637D-09      -115.04912562    163.007445   -0.38963   -0.59407    0.00000    7
   15      0.163D-08      0.146D-09      -115.04912562    163.007445   -0.38963   -0.59407    0.00000    7
   16      0.324D-09      0.431D-10      -115.04912562    163.007445   -0.38963   -0.59407    0.00000    7
   17      0.840D-10      0.155D-10      -115.04912562    163.007445   -0.38963   -0.59407    0.00000    7
   18      0.397D-10      0.262D-11      -115.04912562    163.007445   -0.38963   -0.59407    0.00000    0

 Final occupancy:   9

 !RHF STATE 1.1 Energy               -115.049125616871
 Nuclear energy                        40.29065712
 One-electron energy                 -236.84350503
 Two-electron energy                   81.50372229
 Virial quotient                       -1.00102676
 !RHF STATE 1.1 Dipole moment          -0.38962915    -0.59407366     0.00000209
 Dipole moment /Debye                  -0.99027366    -1.50988572     0.00000532

 Orbital energies:

         1.1          2.1          3.1          4.1          5.1          6.1          7.1          8.1          9.1         10.1
    -20.550309   -11.275830    -1.350764    -0.920249    -0.683097    -0.613019    -0.585172    -0.496791    -0.442798     0.184370

        11.1
      0.224181


 **********************************************************************************************************************************
 DATASETS  * FILE   NREC   LENGTH (MB)   RECORD NAMES
              1      19        8.05       500      610      700      900      950      970     1000      129      960     1100   
                                          VAR    BASINP    GEOM    SYMINP    ZMAT    AOBASIS   BASIS     P2S    ABASIS      S 
                                         1400     1410     1200     1210     1080     1600     1650     1300     1700   
                                           T        V       H0       H01     AOSYM     SMH    MOLCAS    ERIS     OPER   

              2       3        0.39       700     1000     2100   
                                         GEOM     BASIS     RHF  

 PROGRAMS   *        TOTAL       RHF       INT
 CPU TIMES  *         0.32      0.09      0.18
 REAL TIME  *         0.52 SEC
 DISK USED  *        23.63 MB      
 GA USED    *         0.00 MB       (max)       0.00 MB       (current)
 **********************************************************************************************************************************


1PROGRAM * CCSD (Closed-shell coupled cluster)     Authors: C. Hampel, H.-J. Werner, 1991, M. Deegan, P.J. Knowles, 1992


 Convergence thresholds:  THRVAR = 1.00D-08  THRDEN = 1.00D-12

 CCSD(T)     terms to be evaluated (factor= 1.000)


 Number of core orbitals:           2 (   2 )
 Number of closed-shell orbitals:   7 (   7 )
 Number of external orbitals:      39 (  39 )

 Molecular orbitals read from record     2100.2  Type=RHF/CANONICAL (state 1.1)

 Number of N-1 electron functions:               7
 Number of N-2 electron functions:              28
 Number of singly external CSFs:               273
 Number of doubly external CSFs:             37401
 Total number of CSFs:                       37675

 Length of J-op  integral file:               0.00 MB
 Length of K-op  integral file:               0.19 MB
 Length of 3-ext integral record:             0.00 MB

 Memory could be reduced to 0.96 Mwords without degradation in triples

 Integral transformation finished. Total CPU:   0.01 sec, npass=  1  Memory used:   0.66 MW

 Reference energy:                   -115.04912562

 MP2 singlet pair energy:              -0.21875349
 MP2 triplet pair energy:              -0.11985786
 MP2 correlation energy:               -0.33861135
 MP2 total energy:                   -115.38773696

 SCS-MP2 correlation energy:           -0.33708241   (PS=  1.200000  PT=  0.333333)
 SCS-MP2 total energy:               -115.38620803

 ITER.      SQ.NORM     CORR.ENERGY   TOTAL ENERGY   ENERGY CHANGE        DEN1      VAR(S)    VAR(P)  DIIS     TIME
   1      1.10750278    -0.36143253  -115.41055815    -0.02282118    -0.01412289  0.92D-03  0.17D-02  1  1     0.05
   2      1.11606401    -0.36338422  -115.41250983    -0.00195169    -0.00926860  0.20D-04  0.16D-03  2  2     0.09
   3      1.11795877    -0.36351279  -115.41263840    -0.00012857    -0.00121003  0.96D-05  0.87D-05  3  3     0.12
   4      1.11847784    -0.36351146  -115.41263708     0.00000133    -0.00025659  0.33D-06  0.68D-06  4  4     0.16
   5      1.11857680    -0.36351189  -115.41263750    -0.00000043    -0.00003629  0.99D-07  0.50D-07  5  5     0.20
   6      1.11859603    -0.36351053  -115.41263615     0.00000135    -0.00000443  0.16D-07  0.41D-08  6  6     0.24
   7      1.11860077    -0.36351011  -115.41263573     0.00000042    -0.00000035  0.20D-08  0.72D-09  6  1     0.28
   8      1.11860203    -0.36351022  -115.41263583    -0.00000010     0.00000075  0.26D-09  0.72D-10  6  3     0.31
   9      1.11860310    -0.36351009  -115.41263571     0.00000012    -0.00000038  0.13D-10  0.11D-10  6  2     0.35
  10      1.11860303    -0.36351009  -115.41263571    -0.00000000     0.00000007  0.11D-11  0.88D-12  6  5     0.39
  11      1.11860306    -0.36351009  -115.41263571     0.00000000    -0.00000000  0.19D-12  0.50D-13  6  4     0.43
  12      1.11860304    -0.36351009  -115.41263571    -0.00000000     0.00000001  0.19D-13  0.10D-13  6  1     0.46
  13      1.11860305    -0.36351009  -115.41263571    -0.00000000    -0.00000000  0.24D-14  0.93D-15  6  6     0.50
  14      1.11860305    -0.36351009  -115.41263571     0.00000000    -0.00000000  0.23D-15  0.12D-15  6  3     0.54
  15      1.11860305    -0.36351009  -115.41263571    -0.00000000    -0.00000000  0.25D-16  0.17D-16  6  2     0.58
  16      1.11860305    -0.36351009  -115.41263571    -0.00000000    -0.00000000  0.56D-17  0.16D-17  6  5     0.62
  17      1.11860305    -0.36351009  -115.41263571    -0.00000000    -0.00000000  0.54D-18  0.25D-18  6  4     0.66
  18      1.11860305    -0.36351009  -115.41263571     0.00000000    -0.00000000  0.83D-19  0.43D-19  6  1     0.70
  19      1.11860305    -0.36351009  -115.41263571    -0.00000000    -0.00000000  0.93D-20  0.43D-20  6  6     0.73
  20      1.11860305    -0.36351009  -115.41263571     0.00000000     0.00000000  0.13D-20  0.56D-21  6  3     0.77

 Norm of t1 vector:      0.04170912      S-energy:    -0.00000000      T1 diagnostic:  0.00788228
                                                                       D1 diagnostic:  0.01741602


 Total CPU time for triples:      0.21 sec


 RESULTS
 =======

  Reference energy                   -115.049125616871
  CCSD singlet pair energy             -0.254759600781
  CCSD triplet pair energy             -0.108750491876
  CCSD correlation energy              -0.363510092657

  Triples (T) contribution             -0.007753442673
  Total correlation energy             -0.371263535330

  CCSD total energy                  -115.412635709528
  CCSD[T] energy                     -115.420680659333
  CCSD-T energy                      -115.420238416777
 !CCSD(T) total energy               -115.420389152201

 Timing summary (sec):

 STEP                 CPU(USER)    SYS     CPU(TOT)    WALL
 Transformation          0.01      0.01      0.02      0.02
 CCSD iterations         0.76      0.05      0.81      0.84
 Triples                 0.21      0.00      0.21      0.22

 Program statistics:

 Available memory in ccsd:               999999704
 Min. memory needed in ccsd:                136801
 Max. memory used in ccsd:                  163198
 Max. memory used in cckext:                182024 (20 integral passes)



 **********************************************************************************************************************************
 DATASETS  * FILE   NREC   LENGTH (MB)   RECORD NAMES
              1      20       10.59       500      610      700      900      950      970     1000      129      960     1100   
                                          VAR    BASINP    GEOM    SYMINP    ZMAT    AOBASIS   BASIS     P2S    ABASIS      S 
                                         1400     1410     1200     1210     1080     1600     1650     1300     1700     1380   
                                           T        V       H0       H01     AOSYM     SMH    MOLCAS    ERIS     OPER     JKOP   

              2       3        0.39       700     1000     2100   
                                         GEOM     BASIS     RHF  

 PROGRAMS   *        TOTAL   CCSD(T)       RHF       INT
 CPU TIMES  *         1.32      1.00      0.09      0.18
 REAL TIME  *         1.62 SEC
 DISK USED  *        25.05 MB      
 GA USED    *         0.00 MB       (max)       0.00 MB       (current)
 **********************************************************************************************************************************

        CCSD(T)         RHF-SCF 
   -115.42038915   -115.04912562
 **********************************************************************************************************************************
 Variable memory released
