
 Primary working directories    : /tmp/795519.145.gen4.q
 Secondary working directories  : /tmp/795519.145.gen4.q
 Wavefunction directory         : /home/vulcan/mel64643/wfu/
 Main file repository           : /tmp/795519.145.gen4.q/

 ARCHNAME  : Linux/x86_64
 FC        : /opt/intel/compilers_and_libraries_2016.1.150/linux/bin/intel64/ifort
 FCVERSION : 16.0.1
 BLASLIB   : -mkl
 id        : ccgc

 Nodes     nprocs
 n056         1
 ga_uses_ma=false, calling ma_init with nominal heap.
 GA-space will be limited to   8.0 MW (determined by -G option)

 Using customized tuning parameters: mindgm=10; mindgv=16; mindgc=4; mindgr=1; noblas=0; mincuda=1000; minvec=7
 default implementation of scratch files=df  

 ***,Optimization of min3
 memory,1000,m
 gthresh,energy=1.0d-12,orbital=1.0d-10,oneint=1.0d-16,twoint=1.0d-16,optgrad=1.0d-6,compress=1.0d-13
 geomtyp=xyz
 
  bohr
  geometry = {
  6
  arbitrary comment
  C   -1.3794448880   -0.0245002304    0.0000004052
  O    1.3064539229    0.1174127173    0.0000002506
  H   -2.0780449974    1.9064692732   -0.0000797720
  H   -2.1144194793   -0.9757414431    1.6770793437
  H   -2.1144126076   -0.9758722406   -1.6770073168
  H    1.9561438894   -1.5779001964   -0.0000013208
 }
 
 basis=cc-pvdz
 {rhf;maxit,200}
 {ccsd(t);maxit,200}

 Variables initialized (661), CPU time= 0.01 sec
 Commands  initialized (458), CPU time= 0.00 sec, 486 directives.
 Default parameters read. Elapsed time= 0.05 sec

 Checking input...
 Passed
1


                                         ***  PROGRAM SYSTEM MOLPRO  ***
                         Copyright, University College Cardiff Consultants Limited, 2008

                                    Version 2010.1 linked May 16 2016 07:17:05


 **********************************************************************************************************************************
 LABEL *   Optimization of min3                                                          
 Linux-4.4.3/n056(x86_64) 64 bit mpp version                                             DATE: 24-Oct-22          TIME: 15:44:06  
 **********************************************************************************************************************************

 SHA1:             9e8077add272b0f3cad6f7df79ec5211205f459d
 **********************************************************************************************************************************

 THRESHOLDS:

 ZERO    =  1.00D-12  ONEINT  =  1.00D-16  TWOINT  =  1.00D-16  PREFAC  =  1.00D-14  LOCALI  =  1.00D-09  EORDER  =  1.00D-04
 ENERGY  =  1.00D-12  ETEST   =  0.00D+00  EDENS   =  0.00D+00  THRDEDEF=  1.00D-06  GRADIENT=  1.00D-02  STEP    =  1.00D-03
 ORBITAL =  1.00D-10  CIVEC   =  1.00D-05  COEFF   =  1.00D-04  PRINTCI =  5.00D-02  PUNCHCI =  9.90D+01  OPTGRAD =  1.00D-06
 OPTENERG=  1.00D-06  OPTSTEP =  3.00D-04  THRGRAD =  1.00D-10  COMPRESS=  1.00D-13  VARMIN  =  1.00D-07  VARMAX  =  1.00D-03
 THRDOUB =  0.00D+00  THRDIV  =  1.00D-05  THRRED  =  1.00D-07  THRPSP  =  1.00D+00  THRDC   =  1.00D-10  THRCS   =  1.00D-10
 THRNRM  =  1.00D-08  THREQ   =  0.00D+00  THRDE   =  1.00D+00  THRREF  =  1.00D-05  SPARFAC =  1.00D+00  THRDLP  =  1.00D-07
 THRDIA  =  1.00D-10  THRDLS  =  1.00D-07  THRGPS  =  0.00D+00  THRKEX  =  0.00D+00  THRDIS  =  2.00D-01  THRVAR  =  1.00D-10
 THRLOC  =  1.00D-06  THRGAP  =  1.00D-06  THRLOCT = -1.00D+00  THRGAPT = -1.00D+00  THRORB  =  1.00D-06  THRMLTP =  0.00D+00
 THRCPQCI=  1.00D-10  KEXTA   =  0.00D+00  THRCOARS=  0.00D+00  SYMTOL  =  1.00D-06  GRADTOL =  1.00D-06  THROVL  =  1.00D-08
 THRORTH =  1.00D-08  GRID    =  1.00D-06  GRIDMAX =  1.00D-03  DTMAX   =  0.00D+00

 SETTING GEOMTYP        =    XYZ
 ZUNIT=BOHR
 

 Variable memory set to 1000000000 words,  buffer space   230000 words

 SETTING BASIS          =    CC-PVDZ


 Recomputing integrals since basis changed


 Using spherical harmonics

 Library entry C      S cc-pVDZ              selected for orbital group  1
 Library entry C      P cc-pVDZ              selected for orbital group  1
 Library entry C      D cc-pVDZ              selected for orbital group  1
 Library entry O      S cc-pVDZ              selected for orbital group  2
 Library entry O      P cc-pVDZ              selected for orbital group  2
 Library entry O      D cc-pVDZ              selected for orbital group  2
 Library entry H      S cc-pVDZ              selected for orbital group  3
 Library entry H      P cc-pVDZ              selected for orbital group  3

1PROGRAM * SEWARD (Integral evaluation for generally contracted gaussian basis sets)     Author: Roland Lindh, 1990

 Geometry written to block  1 of record 700


 Point group  C1  



 ATOMIC COORDINATES

 NR  ATOM    CHARGE       X              Y              Z

   1  C       6.00   -1.379444888   -0.024500230    0.000000405
   2  O       8.00    1.306453923    0.117412717    0.000000251
   3  H       1.00   -2.078044997    1.906469273   -0.000079772
   4  H       1.00   -2.114419479   -0.975741443    1.677079344
   5  H       1.00   -2.114412608   -0.975872241   -1.677007317
   6  H       1.00    1.956143889   -1.577900196   -0.000001321

 Bond lengths in Bohr (Angstrom)

 1-2  2.689645275  1-3  2.053456925  1-4  2.063405258  1-5  2.063405232  2-6  1.815539294
     ( 1.423298980)     ( 1.086642604)     ( 1.091907036)     ( 1.091907022)     ( 0.960742016)

 Bond angles

  1-2-6  107.94370525   2-1-3  106.86499244   2-1-4  112.33509306   2-1-5  112.33508875

  3-1-4  108.20142783   3-1-5  108.20126359   4-1-5  108.73200304

 NUCLEAR CHARGE:                   18
 NUMBER OF PRIMITIVE AOS:          82
 NUMBER OF SYMMETRY AOS:           80
 NUMBER OF CONTRACTIONS:           48   (  48A   )
 NUMBER OF CORE ORBITALS:           2   (   2A   )
 NUMBER OF VALENCE ORBITALS:       12   (  12A   )


 NUCLEAR REPULSION ENERGY   40.28282434


 Eigenvalues of metric

         1 0.966E-02 0.177E-01 0.366E-01 0.371E-01 0.381E-01 0.472E-01 0.473E-01 0.517E-01


 Contracted 2-electron integrals neglected if value below      1.0D-16
 AO integral compression algorithm  1   Integral accuracy      1.0D-16

     6.554 MB (compressed) written to integral file ( 94.5%)

     Node minimum: 6.554 MB, node maximum: 6.554 MB


 NUMBER OF SORTED TWO-ELECTRON INTEGRALS:     692076.     BUFFER LENGTH:  32768
 NUMBER OF SEGMENTS:   1  SEGMENT LENGTH:     692076      RECORD LENGTH: 524288

 Memory used in sort:       1.25 MW

 SORT1 READ      832256. AND WROTE      682148. INTEGRALS IN      2 RECORDS. CPU TIME:     0.00 SEC, REAL TIME:     0.01 SEC
 SORT2 READ      682148. AND WROTE      692076. INTEGRALS IN     25 RECORDS. CPU TIME:     0.02 SEC, REAL TIME:     0.02 SEC

 FILE SIZES:   FILE 1:     8.0 MBYTE,  FILE 4:     8.4 MBYTE,   TOTAL:     16.4 MBYTE

 OPERATOR DM      FOR CENTER  0  COORDINATES:    0.000000    0.000000    0.000000


 **********************************************************************************************************************************
 DATASETS  * FILE   NREC   LENGTH (MB)   RECORD NAMES
              1      19        8.03       500      610      700      900      950      970     1000      129      960     1100   
                                          VAR    BASINP    GEOM    SYMINP    ZMAT    AOBASIS   BASIS     P2S    ABASIS      S 
                                         1400     1410     1200     1210     1080     1600     1650     1300     1700   
                                           T        V       H0       H01     AOSYM     SMH    MOLCAS    ERIS     OPER   

 PROGRAMS   *        TOTAL       INT
 CPU TIMES  *         0.22      0.17
 REAL TIME  *         0.41 SEC
 DISK USED  *        23.60 MB      
 GA USED    *         0.00 MB       (max)       0.00 MB       (current)
 **********************************************************************************************************************************

1PROGRAM * RHF-SCF (CLOSED SHELL)       Authors: W. Meyer, H.-J. Werner


 NUMBER OF ELECTRONS:       9+    9-    SPACE SYMMETRY=1    SPIN SYMMETRY: Singlet 
 CONVERGENCE THRESHOLDS:    1.00E-10 (Density)    1.00E-13 (Energy)
 MAX. NUMBER OF ITERATIONS:      200
 INTERPOLATION TYPE:            DIIS
 INTERPOLATION STEPS:              2 (START)      1 (STEP)
 LEVEL SHIFTS:                  0.00 (CLOSED)  0.00 (OPEN) 



 Orbital guess generated from atomic densities. Full valence occupancy:   14

 Molecular orbital dump at record        2100.2

 ITERATION    DDIFF          GRAD             ENERGY        2-EL.EN.            DIPOLE MOMENTS         DIIS
    1      0.000D+00      0.000D+00      -115.01419079    164.352886   -0.49326   -0.89972   -0.00000    0
    2      0.000D+00      0.109D-01      -115.04250174    162.127140   -0.31737   -0.53613   -0.00000    1
    3      0.205D-01      0.529D-02      -115.04852237    163.155192   -0.40092   -0.61077   -0.00000    2
    4      0.639D-02      0.112D-02      -115.04898639    162.998860   -0.39103   -0.59963   -0.00000    3
    5      0.204D-02      0.202D-03      -115.04900738    163.004977   -0.39393   -0.59533   -0.00000    4
    6      0.432D-03      0.355D-04      -115.04900817    163.005293   -0.39426   -0.59512   -0.00000    5
    7      0.933D-04      0.750D-05      -115.04900821    163.004047   -0.39440   -0.59495   -0.00000    6
    8      0.151D-04      0.243D-05      -115.04900821    163.004429   -0.39444   -0.59492   -0.00000    7
    9      0.522D-05      0.492D-06      -115.04900821    163.004391   -0.39445   -0.59492   -0.00000    6
   10      0.142D-05      0.889D-07      -115.04900821    163.004389   -0.39445   -0.59492   -0.00000    6
   11      0.239D-06      0.331D-07      -115.04900821    163.004395   -0.39445   -0.59492   -0.00000    6
   12      0.604D-07      0.140D-07      -115.04900821    163.004393   -0.39445   -0.59492   -0.00000    7
   13      0.259D-07      0.311D-08      -115.04900821    163.004393   -0.39445   -0.59492   -0.00000    7
   14      0.774D-08      0.649D-09      -115.04900821    163.004393   -0.39445   -0.59492   -0.00000    7
   15      0.165D-08      0.151D-09      -115.04900821    163.004393   -0.39445   -0.59492   -0.00000    7
   16      0.337D-09      0.458D-10      -115.04900821    163.004393   -0.39445   -0.59492   -0.00000    7
   17      0.871D-10      0.150D-10      -115.04900821    163.004393   -0.39445   -0.59492   -0.00000    0

 Final occupancy:   9

 !RHF STATE 1.1 Energy               -115.049008209202
 Nuclear energy                        40.28282434
 One-electron energy                 -236.83402909
 Two-electron energy                   81.50219654
 Virial quotient                       -1.00090641
 !RHF STATE 1.1 Dipole moment          -0.39445162    -0.59491776    -0.00000273
 Dipole moment /Debye                  -1.00253034    -1.51203109    -0.00000693

 Orbital energies:

         1.1          2.1          3.1          4.1          5.1          6.1          7.1          8.1          9.1         10.1
    -20.549642   -11.274042    -1.348150    -0.922355    -0.682097    -0.613581    -0.584671    -0.496952    -0.443328     0.184843

        11.1
      0.224105


 **********************************************************************************************************************************
 DATASETS  * FILE   NREC   LENGTH (MB)   RECORD NAMES
              1      19        8.03       500      610      700      900      950      970     1000      129      960     1100   
                                          VAR    BASINP    GEOM    SYMINP    ZMAT    AOBASIS   BASIS     P2S    ABASIS      S 
                                         1400     1410     1200     1210     1080     1600     1650     1300     1700   
                                           T        V       H0       H01     AOSYM     SMH    MOLCAS    ERIS     OPER   

              2       3        0.39       700     1000     2100   
                                         GEOM     BASIS     RHF  

 PROGRAMS   *        TOTAL       RHF       INT
 CPU TIMES  *         0.30      0.08      0.17
 REAL TIME  *         0.52 SEC
 DISK USED  *        23.60 MB      
 GA USED    *         0.00 MB       (max)       0.00 MB       (current)
 **********************************************************************************************************************************


1PROGRAM * CCSD (Closed-shell coupled cluster)     Authors: C. Hampel, H.-J. Werner, 1991, M. Deegan, P.J. Knowles, 1992


 Convergence thresholds:  THRVAR = 1.00D-08  THRDEN = 1.00D-12

 CCSD(T)     terms to be evaluated (factor= 1.000)


 Number of core orbitals:           2 (   2 )
 Number of closed-shell orbitals:   7 (   7 )
 Number of external orbitals:      39 (  39 )

 Molecular orbitals read from record     2100.2  Type=RHF/CANONICAL (state 1.1)

 Number of N-1 electron functions:               7
 Number of N-2 electron functions:              28
 Number of singly external CSFs:               273
 Number of doubly external CSFs:             37401
 Total number of CSFs:                       37675

 Length of J-op  integral file:               0.00 MB
 Length of K-op  integral file:               0.19 MB
 Length of 3-ext integral record:             0.00 MB

 Memory could be reduced to 0.96 Mwords without degradation in triples

 Integral transformation finished. Total CPU:   0.02 sec, npass=  1  Memory used:   0.66 MW

 Reference energy:                   -115.04900821

 MP2 singlet pair energy:              -0.21860223
 MP2 triplet pair energy:              -0.11981460
 MP2 correlation energy:               -0.33841683
 MP2 total energy:                   -115.38742504

 SCS-MP2 correlation energy:           -0.33687398   (PS=  1.200000  PT=  0.333333)
 SCS-MP2 total energy:               -115.38588219

 ITER.      SQ.NORM     CORR.ENERGY   TOTAL ENERGY   ENERGY CHANGE        DEN1      VAR(S)    VAR(P)  DIIS     TIME
   1      1.10726562    -0.36120217  -115.41021038    -0.02278534    -0.01410826  0.91D-03  0.17D-02  1  1     0.05
   2      1.11578121    -0.36314610  -115.41215431    -0.00194394    -0.00924593  0.20D-04  0.16D-03  2  2     0.09
   3      1.11766176    -0.36327328  -115.41228149    -0.00012718    -0.00120408  0.95D-05  0.86D-05  3  3     0.13
   4      1.11817741    -0.36327194  -115.41228015     0.00000134    -0.00025487  0.35D-06  0.67D-06  4  4     0.17
   5      1.11827624    -0.36327232  -115.41228052    -0.00000038    -0.00003623  0.10D-06  0.49D-07  5  5     0.21
   6      1.11829561    -0.36327094  -115.41227915     0.00000138    -0.00000438  0.16D-07  0.42D-08  6  6     0.24
   7      1.11830052    -0.36327051  -115.41227872     0.00000043    -0.00000036  0.21D-08  0.74D-09  6  1     0.28
   8      1.11830182    -0.36327061  -115.41227882    -0.00000010     0.00000076  0.26D-09  0.75D-10  6  3     0.32
   9      1.11830290    -0.36327049  -115.41227870     0.00000013    -0.00000039  0.13D-10  0.11D-10  6  2     0.36
  10      1.11830296    -0.36327049  -115.41227870     0.00000000     0.00000000  0.14D-11  0.12D-11  6  4     0.40
  11      1.11830291    -0.36327049  -115.41227870     0.00000000     0.00000003  0.35D-12  0.86D-13  6  5     0.44
  12      1.11830286    -0.36327049  -115.41227870    -0.00000000     0.00000003  0.34D-13  0.13D-13  6  6     0.48
  13      1.11830284    -0.36327049  -115.41227870    -0.00000000     0.00000001  0.39D-14  0.16D-14  6  3     0.51
  14      1.11830284    -0.36327049  -115.41227870    -0.00000000     0.00000000  0.28D-15  0.15D-15  6  1     0.55
  15      1.11830284    -0.36327049  -115.41227870     0.00000000    -0.00000000  0.35D-16  0.32D-16  6  2     0.59
  16      1.11830284    -0.36327049  -115.41227870     0.00000000    -0.00000000  0.31D-17  0.16D-17  6  5     0.63
  17      1.11830284    -0.36327049  -115.41227870    -0.00000000     0.00000000  0.13D-18  0.13D-18  6  4     0.66
  18      1.11830284    -0.36327049  -115.41227870     0.00000000    -0.00000000  0.27D-19  0.12D-19  6  3     0.70
  19      1.11830284    -0.36327049  -115.41227870     0.00000000    -0.00000000  0.26D-20  0.10D-20  6  6     0.74

 Norm of t1 vector:      0.04172900      S-energy:    -0.00000000      T1 diagnostic:  0.00788604
                                                                       D1 diagnostic:  0.01767379


 Total CPU time for triples:      0.21 sec


 RESULTS
 =======

  Reference energy                   -115.049008209202
  CCSD singlet pair energy             -0.254540180656
  CCSD triplet pair energy             -0.108730310966
  CCSD correlation energy              -0.363270491623

  Triples (T) contribution             -0.007731849342
  Total correlation energy             -0.371002340965

  CCSD total energy                  -115.412278700825
  CCSD[T] energy                     -115.420300254959
  CCSD-T energy                      -115.419860764305
 !CCSD(T) total energy               -115.420010550167

 Timing summary (sec):

 STEP                 CPU(USER)    SYS     CPU(TOT)    WALL
 Transformation          0.02      0.00      0.02      0.03
 CCSD iterations         0.72      0.05      0.77      0.79
 Triples                 0.21      0.01      0.22      0.21

 Program statistics:

 Available memory in ccsd:               999999704
 Min. memory needed in ccsd:                136801
 Max. memory used in ccsd:                  163198
 Max. memory used in cckext:                182024 (19 integral passes)



 **********************************************************************************************************************************
 DATASETS  * FILE   NREC   LENGTH (MB)   RECORD NAMES
              1      20       10.56       500      610      700      900      950      970     1000      129      960     1100   
                                          VAR    BASINP    GEOM    SYMINP    ZMAT    AOBASIS   BASIS     P2S    ABASIS      S 
                                         1400     1410     1200     1210     1080     1600     1650     1300     1700     1380   
                                           T        V       H0       H01     AOSYM     SMH    MOLCAS    ERIS     OPER     JKOP   

              2       3        0.39       700     1000     2100   
                                         GEOM     BASIS     RHF  

 PROGRAMS   *        TOTAL   CCSD(T)       RHF       INT
 CPU TIMES  *         1.27      0.96      0.08      0.17
 REAL TIME  *         1.58 SEC
 DISK USED  *        25.03 MB      
 GA USED    *         0.00 MB       (max)       0.00 MB       (current)
 **********************************************************************************************************************************

        CCSD(T)         RHF-SCF 
   -115.42001055   -115.04900821
 **********************************************************************************************************************************
 Variable memory released
