
 Primary working directories    : /tmp/795519.89.gen4.q
 Secondary working directories  : /tmp/795519.89.gen4.q
 Wavefunction directory         : /home/vulcan/mel64643/wfu/
 Main file repository           : /tmp/795519.89.gen4.q/

 ARCHNAME  : Linux/x86_64
 FC        : /opt/intel/compilers_and_libraries_2016.1.150/linux/bin/intel64/ifort
 FCVERSION : 16.0.1
 BLASLIB   : -mkl
 id        : ccgc

 Nodes     nprocs
 n022         1
 ga_uses_ma=false, calling ma_init with nominal heap.
 GA-space will be limited to   8.0 MW (determined by -G option)

 Using customized tuning parameters: mindgm=10; mindgv=16; mindgc=4; mindgr=1; noblas=0; mincuda=1000; minvec=7
 default implementation of scratch files=df  

 ***,Optimization of min3
 memory,1000,m
 gthresh,energy=1.0d-12,orbital=1.0d-10,oneint=1.0d-16,twoint=1.0d-16,optgrad=1.0d-6,compress=1.0d-13
 geomtyp=xyz
 
  bohr
  geometry = {
  6
  arbitrary comment
  C   -1.3745152145   -0.0254369176    0.0000002409
  O    1.3011954083    0.1139004714    0.0000003805
  H   -2.0787181494    1.9106632253   -0.0000798698
  H   -2.1069116746   -0.9778249841    1.6835852933
  H   -2.1069047095   -0.9779563897   -1.6835131792
  H    1.9421301798   -1.5734775254   -0.0000012756
 }
 
 basis=cc-pvdz
 {rhf;maxit,200}
 {ccsd(t);maxit,200}

 Variables initialized (661), CPU time= 0.00 sec
 Commands  initialized (458), CPU time= 0.00 sec, 486 directives.
 Default parameters read. Elapsed time= 0.06 sec

 Checking input...
 Passed
1


                                         ***  PROGRAM SYSTEM MOLPRO  ***
                         Copyright, University College Cardiff Consultants Limited, 2008

                                    Version 2010.1 linked May 16 2016 07:17:05


 **********************************************************************************************************************************
 LABEL *   Optimization of min3                                                          
 Linux-4.4.3/n022(x86_64) 64 bit mpp version                                             DATE: 24-Oct-22          TIME: 15:42:36  
 **********************************************************************************************************************************

 SHA1:             9e8077add272b0f3cad6f7df79ec5211205f459d
 **********************************************************************************************************************************

 THRESHOLDS:

 ZERO    =  1.00D-12  ONEINT  =  1.00D-16  TWOINT  =  1.00D-16  PREFAC  =  1.00D-14  LOCALI  =  1.00D-09  EORDER  =  1.00D-04
 ENERGY  =  1.00D-12  ETEST   =  0.00D+00  EDENS   =  0.00D+00  THRDEDEF=  1.00D-06  GRADIENT=  1.00D-02  STEP    =  1.00D-03
 ORBITAL =  1.00D-10  CIVEC   =  1.00D-05  COEFF   =  1.00D-04  PRINTCI =  5.00D-02  PUNCHCI =  9.90D+01  OPTGRAD =  1.00D-06
 OPTENERG=  1.00D-06  OPTSTEP =  3.00D-04  THRGRAD =  1.00D-10  COMPRESS=  1.00D-13  VARMIN  =  1.00D-07  VARMAX  =  1.00D-03
 THRDOUB =  0.00D+00  THRDIV  =  1.00D-05  THRRED  =  1.00D-07  THRPSP  =  1.00D+00  THRDC   =  1.00D-10  THRCS   =  1.00D-10
 THRNRM  =  1.00D-08  THREQ   =  0.00D+00  THRDE   =  1.00D+00  THRREF  =  1.00D-05  SPARFAC =  1.00D+00  THRDLP  =  1.00D-07
 THRDIA  =  1.00D-10  THRDLS  =  1.00D-07  THRGPS  =  0.00D+00  THRKEX  =  0.00D+00  THRDIS  =  2.00D-01  THRVAR  =  1.00D-10
 THRLOC  =  1.00D-06  THRGAP  =  1.00D-06  THRLOCT = -1.00D+00  THRGAPT = -1.00D+00  THRORB  =  1.00D-06  THRMLTP =  0.00D+00
 THRCPQCI=  1.00D-10  KEXTA   =  0.00D+00  THRCOARS=  0.00D+00  SYMTOL  =  1.00D-06  GRADTOL =  1.00D-06  THROVL  =  1.00D-08
 THRORTH =  1.00D-08  GRID    =  1.00D-06  GRIDMAX =  1.00D-03  DTMAX   =  0.00D+00

 SETTING GEOMTYP        =    XYZ
 ZUNIT=BOHR
 

 Variable memory set to 1000000000 words,  buffer space   230000 words

 SETTING BASIS          =    CC-PVDZ


 Recomputing integrals since basis changed


 Using spherical harmonics

 Library entry C      S cc-pVDZ              selected for orbital group  1
 Library entry C      P cc-pVDZ              selected for orbital group  1
 Library entry C      D cc-pVDZ              selected for orbital group  1
 Library entry O      S cc-pVDZ              selected for orbital group  2
 Library entry O      P cc-pVDZ              selected for orbital group  2
 Library entry O      D cc-pVDZ              selected for orbital group  2
 Library entry H      S cc-pVDZ              selected for orbital group  3
 Library entry H      P cc-pVDZ              selected for orbital group  3

1PROGRAM * SEWARD (Integral evaluation for generally contracted gaussian basis sets)     Author: Roland Lindh, 1990

 Geometry written to block  1 of record 700


 Point group  C1  



 ATOMIC COORDINATES

 NR  ATOM    CHARGE       X              Y              Z

   1  C       6.00   -1.374515214   -0.025436918    0.000000241
   2  O       8.00    1.301195408    0.113900471    0.000000380
   3  H       1.00   -2.078718149    1.910663225   -0.000079870
   4  H       1.00   -2.106911675   -0.977824984    1.683585293
   5  H       1.00   -2.106904710   -0.977956390   -1.683513179
   6  H       1.00    1.942130180   -1.573477525   -0.000001276

 Bond lengths in Bohr (Angstrom)

 1-2  2.679336158  1-3  2.060190657  1-4  2.068309994  1-5  2.068309733  2-6  1.805004677
     ( 1.417843630)     ( 1.090205942)     ( 1.094502510)     ( 1.094502372)     ( 0.955167337)

 Bond angles

  1-2-6  107.81783314   2-1-3  107.00647886   2-1-4  112.18330191   2-1-5  112.18330646

  3-1-4  108.16325149   3-1-5  108.16310638   4-1-5  108.97196267

 NUCLEAR CHARGE:                   18
 NUMBER OF PRIMITIVE AOS:          82
 NUMBER OF SYMMETRY AOS:           80
 NUMBER OF CONTRACTIONS:           48   (  48A   )
 NUMBER OF CORE ORBITALS:           2   (   2A   )
 NUMBER OF VALENCE ORBITALS:       12   (  12A   )


 NUCLEAR REPULSION ENERGY   40.37109281


 Eigenvalues of metric

         1 0.965E-02 0.176E-01 0.368E-01 0.374E-01 0.379E-01 0.473E-01 0.478E-01 0.516E-01


 Contracted 2-electron integrals neglected if value below      1.0D-16
 AO integral compression algorithm  1   Integral accuracy      1.0D-16

     6.554 MB (compressed) written to integral file ( 94.5%)

     Node minimum: 6.554 MB, node maximum: 6.554 MB


 NUMBER OF SORTED TWO-ELECTRON INTEGRALS:     692076.     BUFFER LENGTH:  32768
 NUMBER OF SEGMENTS:   1  SEGMENT LENGTH:     692076      RECORD LENGTH: 524288

 Memory used in sort:       1.25 MW

 SORT1 READ      832256. AND WROTE      682148. INTEGRALS IN      2 RECORDS. CPU TIME:     0.01 SEC, REAL TIME:     0.01 SEC
 SORT2 READ      682148. AND WROTE      692076. INTEGRALS IN     25 RECORDS. CPU TIME:     0.03 SEC, REAL TIME:     0.02 SEC

 FILE SIZES:   FILE 1:     8.0 MBYTE,  FILE 4:     8.4 MBYTE,   TOTAL:     16.4 MBYTE

 OPERATOR DM      FOR CENTER  0  COORDINATES:    0.000000    0.000000    0.000000


 **********************************************************************************************************************************
 DATASETS  * FILE   NREC   LENGTH (MB)   RECORD NAMES
              1      19        8.03       500      610      700      900      950      970     1000      129      960     1100   
                                          VAR    BASINP    GEOM    SYMINP    ZMAT    AOBASIS   BASIS     P2S    ABASIS      S 
                                         1400     1410     1200     1210     1080     1600     1650     1300     1700   
                                           T        V       H0       H01     AOSYM     SMH    MOLCAS    ERIS     OPER   

 PROGRAMS   *        TOTAL       INT
 CPU TIMES  *         0.34      0.29
 REAL TIME  *         0.51 SEC
 DISK USED  *        23.60 MB      
 GA USED    *         0.00 MB       (max)       0.00 MB       (current)
 **********************************************************************************************************************************

1PROGRAM * RHF-SCF (CLOSED SHELL)       Authors: W. Meyer, H.-J. Werner


 NUMBER OF ELECTRONS:       9+    9-    SPACE SYMMETRY=1    SPIN SYMMETRY: Singlet 
 CONVERGENCE THRESHOLDS:    1.00E-10 (Density)    1.00E-13 (Energy)
 MAX. NUMBER OF ITERATIONS:      200
 INTERPOLATION TYPE:            DIIS
 INTERPOLATION STEPS:              2 (START)      1 (STEP)
 LEVEL SHIFTS:                  0.00 (CLOSED)  0.00 (OPEN) 



 Orbital guess generated from atomic densities. Full valence occupancy:   14

 Molecular orbital dump at record        2100.2

 ITERATION    DDIFF          GRAD             ENERGY        2-EL.EN.            DIPOLE MOMENTS         DIIS
    1      0.000D+00      0.000D+00      -115.01457231    164.503907   -0.48942   -0.89203   -0.00000    0
    2      0.000D+00      0.110D-01      -115.04287375    162.286979   -0.31201   -0.53337   -0.00000    1
    3      0.205D-01      0.527D-02      -115.04884844    163.308935   -0.39479   -0.60731   -0.00000    2
    4      0.636D-02      0.112D-02      -115.04930771    163.153334   -0.38462   -0.59667   -0.00000    3
    5      0.204D-02      0.200D-03      -115.04932814    163.159691   -0.38733   -0.59250   -0.00000    4
    6      0.428D-03      0.348D-04      -115.04932891    163.159845   -0.38759   -0.59232   -0.00000    5
    7      0.917D-04      0.718D-05      -115.04932893    163.158674   -0.38771   -0.59216   -0.00000    6
    8      0.146D-04      0.232D-05      -115.04932894    163.159045   -0.38775   -0.59213   -0.00000    7
    9      0.493D-05      0.479D-06      -115.04932894    163.159005   -0.38776   -0.59213   -0.00000    6
   10      0.137D-05      0.842D-07      -115.04932894    163.159003   -0.38776   -0.59213   -0.00000    6
   11      0.228D-06      0.315D-07      -115.04932894    163.159009   -0.38776   -0.59213   -0.00000    6
   12      0.573D-07      0.129D-07      -115.04932894    163.159007   -0.38776   -0.59213   -0.00000    7
   13      0.237D-07      0.291D-08      -115.04932894    163.159007   -0.38776   -0.59213   -0.00000    7
   14      0.718D-08      0.623D-09      -115.04932894    163.159007   -0.38776   -0.59213   -0.00000    7
   15      0.159D-08      0.143D-09      -115.04932894    163.159007   -0.38776   -0.59213   -0.00000    7
   16      0.316D-09      0.423D-10      -115.04932894    163.159007   -0.38776   -0.59213   -0.00000    7
   17      0.810D-10      0.152D-10      -115.04932894    163.159007   -0.38776   -0.59213   -0.00000    7
   18      0.389D-10      0.278D-11      -115.04932894    163.159007   -0.38776   -0.59213   -0.00000    7
   19      0.649D-11      0.616D-12      -115.04932894    163.159007   -0.38776   -0.59213   -0.00000    7
   20      0.158D-11      0.247D-12      -115.04932894    163.159007   -0.38776   -0.59213   -0.00000    0

 Final occupancy:   9

 !RHF STATE 1.1 Energy               -115.049328937504
 Nuclear energy                        40.37109281
 One-electron energy                 -236.99992534
 Two-electron energy                   81.57950360
 Virial quotient                       -1.00081915
 !RHF STATE 1.1 Dipole moment          -0.38776001    -0.59212968    -0.00000289
 Dipole moment /Debye                  -0.98552308    -1.50494494    -0.00000734

 Orbital energies:

         1.1          2.1          3.1          4.1          5.1          6.1          7.1          8.1          9.1         10.1
    -20.549213   -11.274583    -1.351581    -0.921577    -0.683997    -0.614455    -0.585865    -0.496292    -0.442897     0.184936

        11.1
      0.224722


 **********************************************************************************************************************************
 DATASETS  * FILE   NREC   LENGTH (MB)   RECORD NAMES
              1      19        8.03       500      610      700      900      950      970     1000      129      960     1100   
                                          VAR    BASINP    GEOM    SYMINP    ZMAT    AOBASIS   BASIS     P2S    ABASIS      S 
                                         1400     1410     1200     1210     1080     1600     1650     1300     1700   
                                           T        V       H0       H01     AOSYM     SMH    MOLCAS    ERIS     OPER   

              2       3        0.39       700     1000     2100   
                                         GEOM     BASIS     RHF  

 PROGRAMS   *        TOTAL       RHF       INT
 CPU TIMES  *         0.46      0.12      0.29
 REAL TIME  *         0.66 SEC
 DISK USED  *        23.60 MB      
 GA USED    *         0.00 MB       (max)       0.00 MB       (current)
 **********************************************************************************************************************************


1PROGRAM * CCSD (Closed-shell coupled cluster)     Authors: C. Hampel, H.-J. Werner, 1991, M. Deegan, P.J. Knowles, 1992


 Convergence thresholds:  THRVAR = 1.00D-08  THRDEN = 1.00D-12

 CCSD(T)     terms to be evaluated (factor= 1.000)


 Number of core orbitals:           2 (   2 )
 Number of closed-shell orbitals:   7 (   7 )
 Number of external orbitals:      39 (  39 )

 Molecular orbitals read from record     2100.2  Type=RHF/CANONICAL (state 1.1)

 Number of N-1 electron functions:               7
 Number of N-2 electron functions:              28
 Number of singly external CSFs:               273
 Number of doubly external CSFs:             37401
 Total number of CSFs:                       37675

 Length of J-op  integral file:               0.00 MB
 Length of K-op  integral file:               0.19 MB
 Length of 3-ext integral record:             0.00 MB

 Memory could be reduced to 0.96 Mwords without degradation in triples

 Integral transformation finished. Total CPU:   0.02 sec, npass=  1  Memory used:   0.66 MW

 Reference energy:                   -115.04932894

 MP2 singlet pair energy:              -0.21843247
 MP2 triplet pair energy:              -0.11974413
 MP2 correlation energy:               -0.33817660
 MP2 total energy:                   -115.38750554

 SCS-MP2 correlation energy:           -0.33662642   (PS=  1.200000  PT=  0.333333)
 SCS-MP2 total energy:               -115.38595536

 ITER.      SQ.NORM     CORR.ENERGY   TOTAL ENERGY   ENERGY CHANGE        DEN1      VAR(S)    VAR(P)  DIIS     TIME
   1      1.10711026    -0.36100264  -115.41033158    -0.02282605    -0.01417972  0.90D-03  0.17D-02  1  1     0.07
   2      1.11559834    -0.36294093  -115.41226987    -0.00193829    -0.00922360  0.20D-04  0.16D-03  2  2     0.12
   3      1.11745838    -0.36306711  -115.41239604    -0.00012617    -0.00119240  0.93D-05  0.85D-05  3  3     0.17
   4      1.11796696    -0.36306574  -115.41239468     0.00000136    -0.00025229  0.32D-06  0.66D-06  4  4     0.22
   5      1.11806353    -0.36306614  -115.41239508    -0.00000040    -0.00003557  0.97D-07  0.48D-07  5  5     0.27
   6      1.11808219    -0.36306482  -115.41239375     0.00000132    -0.00000430  0.15D-07  0.40D-08  6  6     0.32
   7      1.11808683    -0.36306440  -115.41239334     0.00000041    -0.00000035  0.20D-08  0.70D-09  6  1     0.37
   8      1.11808806    -0.36306451  -115.41239344    -0.00000010     0.00000074  0.25D-09  0.70D-10  6  3     0.42
   9      1.11808910    -0.36306438  -115.41239332     0.00000012    -0.00000038  0.12D-10  0.10D-10  6  2     0.47
  10      1.11808903    -0.36306439  -115.41239332    -0.00000000     0.00000007  0.11D-11  0.85D-12  6  5     0.52
  11      1.11808906    -0.36306438  -115.41239332     0.00000000    -0.00000000  0.19D-12  0.49D-13  6  4     0.57
  12      1.11808905    -0.36306439  -115.41239332    -0.00000000     0.00000001  0.18D-13  0.98D-14  6  1     0.62
  13      1.11808905    -0.36306439  -115.41239332    -0.00000000    -0.00000000  0.23D-14  0.92D-15  6  6     0.67
  14      1.11808905    -0.36306439  -115.41239332     0.00000000    -0.00000000  0.22D-15  0.12D-15  6  3     0.72
  15      1.11808905    -0.36306439  -115.41239332    -0.00000000    -0.00000000  0.24D-16  0.16D-16  6  2     0.77
  16      1.11808905    -0.36306439  -115.41239332    -0.00000000    -0.00000000  0.54D-17  0.16D-17  6  5     0.82
  17      1.11808905    -0.36306439  -115.41239332    -0.00000000    -0.00000000  0.52D-18  0.24D-18  6  4     0.87
  18      1.11808905    -0.36306439  -115.41239332     0.00000000    -0.00000000  0.80D-19  0.41D-19  6  1     0.92
  19      1.11808905    -0.36306439  -115.41239332    -0.00000000    -0.00000000  0.90D-20  0.41D-20  6  6     0.97
  20      1.11808905    -0.36306439  -115.41239332     0.00000000     0.00000000  0.13D-20  0.53D-21  6  3     1.02

 Norm of t1 vector:      0.04141230      S-energy:    -0.00000000      T1 diagnostic:  0.00782619
                                                                       D1 diagnostic:  0.01735486


 Total CPU time for triples:      0.24 sec


 RESULTS
 =======

  Reference energy                   -115.049328937504
  CCSD singlet pair energy             -0.254333707065
  CCSD triplet pair energy             -0.108730678734
  CCSD correlation energy              -0.363064385799

  Triples (T) contribution             -0.007706906600
  Total correlation energy             -0.370771292399

  CCSD total energy                  -115.412393323302
  CCSD[T] energy                     -115.420387621832
  CCSD-T energy                      -115.419951503610
 !CCSD(T) total energy               -115.420100229903

 Timing summary (sec):

 STEP                 CPU(USER)    SYS     CPU(TOT)    WALL
 Transformation          0.03      0.00      0.03      0.03
 CCSD iterations         0.99      0.06      1.05      1.07
 Triples                 0.24      0.01      0.25      0.25

 Program statistics:

 Available memory in ccsd:               999999704
 Min. memory needed in ccsd:                136801
 Max. memory used in ccsd:                  163198
 Max. memory used in cckext:                182024 (20 integral passes)



 **********************************************************************************************************************************
 DATASETS  * FILE   NREC   LENGTH (MB)   RECORD NAMES
              1      20       10.57       500      610      700      900      950      970     1000      129      960     1100   
                                          VAR    BASINP    GEOM    SYMINP    ZMAT    AOBASIS   BASIS     P2S    ABASIS      S 
                                         1400     1410     1200     1210     1080     1600     1650     1300     1700     1380   
                                           T        V       H0       H01     AOSYM     SMH    MOLCAS    ERIS     OPER     JKOP   

              2       3        0.39       700     1000     2100   
                                         GEOM     BASIS     RHF  

 PROGRAMS   *        TOTAL   CCSD(T)       RHF       INT
 CPU TIMES  *         1.73      1.27      0.12      0.29
 REAL TIME  *         2.05 SEC
 DISK USED  *        25.03 MB      
 GA USED    *         0.00 MB       (max)       0.00 MB       (current)
 **********************************************************************************************************************************

        CCSD(T)         RHF-SCF 
   -115.42010023   -115.04932894
 **********************************************************************************************************************************
 Variable memory released
