[Molden Format]
[ATOMS] AU
N        1    7        0.0000000000        0.0000000000        0.1333532300
H        2    1        0.8815476500       -1.5268853200       -0.6176188300
H        3    1        0.8815476500        1.5268853200       -0.6176188300
H        4    1       -1.7630953100        0.0000000000       -0.6176188300
[Molden Format]
 [FREQ]
     1109.5190822833
     3471.8585797908
     1688.0194790511
     1688.0196193635
     3597.5865374512
     3597.5867521009
 [FR-COORD]
N            0.0000000000        0.0000000000        0.1333532300
H            0.8815476500       -1.5268853200       -0.6176188300
H            0.8815476500        1.5268853200       -0.6176188300
H           -1.7630953100        0.0000000000       -0.6176188300
 [FR-NORM-COORD]
  vibration                      1
        0.0000000002        0.0000000000        0.0901854085
       -0.0203207526        0.0351965757       -0.0300618028
       -0.0203207526       -0.0351965757       -0.0300618028
        0.0406415050       -0.0000000000       -0.0300618028
  vibration                      2
        0.0000000000        0.0000000000        0.0492448626
        0.0801971817       -0.1389055934       -0.0164149542
        0.0801971817        0.1389055934       -0.0164149542
       -0.1603943635        0.0000000000       -0.0164149541
  vibration                      3
        0.0039056924       -0.1017551440        0.0001475679
        0.1163065245       -0.0403129770        0.0255285916
       -0.1250605325       -0.0312035951       -0.0245179109
        0.0048483157        0.1732717161       -0.0011582486
  vibration                      4
       -0.1017804474       -0.0038758162        0.0001499051
        0.1081317664        0.1200480701       -0.0135476153
        0.0989982427       -0.1227374350       -0.0154538682
       -0.1053495616        0.0065651811        0.0288515784
  vibration                      5
        0.1087432135        0.0136849078       -0.0001216834
        0.0285869960        0.0809379904        0.0121145648
        0.0054372918       -0.1034267502        0.0188452493
       -0.1427675012        0.0088038520       -0.0308381307
  vibration                      6
       -0.0136306142        0.1087752887       -0.0001218034
        0.0900360312       -0.1011412351       -0.0286442910
       -0.0943352440       -0.0778224292        0.0248549480
        0.0179298270        0.0701883755        0.0039111464
