
 Primary working directories    : /tmp/601555.95.gen4.q
 Secondary working directories  : /tmp/601555.95.gen4.q
 Wavefunction directory         : /home/vulcan/mel64643/wfu/
 Main file repository           : /tmp/601555.95.gen4.q/

 ARCHNAME  : Linux/x86_64
 FC        : /opt/intel/compilers_and_libraries_2016.1.150/linux/bin/intel64/ifort
 FCVERSION : 16.0.1
 BLASLIB   : -mkl
 id        : ccgc

 Nodes     nprocs
 n061         1
 ga_uses_ma=false, calling ma_init with nominal heap.
 GA-space will be limited to   8.0 MW (determined by -G option)

 Using customized tuning parameters: mindgm=10; mindgv=16; mindgc=4; mindgr=1; noblas=0; mincuda=1000; minvec=7
 default implementation of scratch files=df  

 ***,Optimization of min3
 memory,1000,m
 gthresh,energy=1.0d-12,orbital=1.0d-10,oneint=1.0d-16,twoint=1.0d-16,optgrad=1.0d-6,compress=1.0d-13
 geomtyp=xyz
 
  bohr
  geometry = {
  6
  arbitrary comment
  C   -1.3742219875   -0.0253001428    0.0000003556
  O    1.3091865319    0.1165732509    0.0000003050
  H   -2.0789431827    1.9147428424   -0.0000800933
  H   -2.1094924751   -0.9813680787    1.6870229005
  H   -2.1094853902   -0.9814997438   -1.6869505630
  H    1.9392323435   -1.5732802480   -0.0000013148
 }
 
 basis=cc-pvdz
 {rhf;maxit,200}
 {ccsd(t);maxit,200}

 Variables initialized (661), CPU time= 0.01 sec
 Commands  initialized (458), CPU time= 0.00 sec, 486 directives.
 Default parameters read. Elapsed time= 0.04 sec

 Checking input...
 Passed
1


                                         ***  PROGRAM SYSTEM MOLPRO  ***
                         Copyright, University College Cardiff Consultants Limited, 2008

                                    Version 2010.1 linked May 16 2016 07:17:05


 **********************************************************************************************************************************
 LABEL *   Optimization of min3                                                          
 Linux-4.4.3/n061(x86_64) 64 bit mpp version                                             DATE: 06-Nov-21          TIME: 15:39:46  
 **********************************************************************************************************************************

 SHA1:             9e8077add272b0f3cad6f7df79ec5211205f459d
 **********************************************************************************************************************************

 THRESHOLDS:

 ZERO    =  1.00D-12  ONEINT  =  1.00D-16  TWOINT  =  1.00D-16  PREFAC  =  1.00D-14  LOCALI  =  1.00D-09  EORDER  =  1.00D-04
 ENERGY  =  1.00D-12  ETEST   =  0.00D+00  EDENS   =  0.00D+00  THRDEDEF=  1.00D-06  GRADIENT=  1.00D-02  STEP    =  1.00D-03
 ORBITAL =  1.00D-10  CIVEC   =  1.00D-05  COEFF   =  1.00D-04  PRINTCI =  5.00D-02  PUNCHCI =  9.90D+01  OPTGRAD =  1.00D-06
 OPTENERG=  1.00D-06  OPTSTEP =  3.00D-04  THRGRAD =  1.00D-10  COMPRESS=  1.00D-13  VARMIN  =  1.00D-07  VARMAX  =  1.00D-03
 THRDOUB =  0.00D+00  THRDIV  =  1.00D-05  THRRED  =  1.00D-07  THRPSP  =  1.00D+00  THRDC   =  1.00D-10  THRCS   =  1.00D-10
 THRNRM  =  1.00D-08  THREQ   =  0.00D+00  THRDE   =  1.00D+00  THRREF  =  1.00D-05  SPARFAC =  1.00D+00  THRDLP  =  1.00D-07
 THRDIA  =  1.00D-10  THRDLS  =  1.00D-07  THRGPS  =  0.00D+00  THRKEX  =  0.00D+00  THRDIS  =  2.00D-01  THRVAR  =  1.00D-10
 THRLOC  =  1.00D-06  THRGAP  =  1.00D-06  THRLOCT = -1.00D+00  THRGAPT = -1.00D+00  THRORB  =  1.00D-06  THRMLTP =  0.00D+00
 THRCPQCI=  1.00D-10  KEXTA   =  0.00D+00  THRCOARS=  0.00D+00  SYMTOL  =  1.00D-06  GRADTOL =  1.00D-06  THROVL  =  1.00D-08
 THRORTH =  1.00D-08  GRID    =  1.00D-06  GRIDMAX =  1.00D-03  DTMAX   =  0.00D+00

 SETTING GEOMTYP        =    XYZ
 ZUNIT=BOHR
 

 Variable memory set to 1000000000 words,  buffer space   230000 words

 SETTING BASIS          =    CC-PVDZ


 Recomputing integrals since basis changed


 Using spherical harmonics

 Library entry C      S cc-pVDZ              selected for orbital group  1
 Library entry C      P cc-pVDZ              selected for orbital group  1
 Library entry C      D cc-pVDZ              selected for orbital group  1
 Library entry O      S cc-pVDZ              selected for orbital group  2
 Library entry O      P cc-pVDZ              selected for orbital group  2
 Library entry O      D cc-pVDZ              selected for orbital group  2
 Library entry H      S cc-pVDZ              selected for orbital group  3
 Library entry H      P cc-pVDZ              selected for orbital group  3

1PROGRAM * SEWARD (Integral evaluation for generally contracted gaussian basis sets)     Author: Roland Lindh, 1990

 Geometry written to block  1 of record 700


 Point group  C1  



 ATOMIC COORDINATES

 NR  ATOM    CHARGE       X              Y              Z

   1  C       6.00   -1.374221987   -0.025300143    0.000000356
   2  O       8.00    1.309186532    0.116573251    0.000000305
   3  H       1.00   -2.078943183    1.914742842   -0.000080093
   4  H       1.00   -2.109492475   -0.981368079    1.687022900
   5  H       1.00   -2.109485390   -0.981499744   -1.686950563
   6  H       1.00    1.939232344   -1.573280248   -0.000001315

 Bond lengths in Bohr (Angstrom)

 1-2  2.687156367  1-3  2.064073340  1-4  2.073821028  1-5  2.073820954  2-6  1.803486227
     ( 1.421981907)     ( 1.092260569)     ( 1.097418823)     ( 1.097418785)     ( 0.954363808)

 Bond angles

  1-2-6  107.42104823   2-1-3  106.93712370   2-1-4  112.23426741   2-1-5  112.23426266

  3-1-4  108.19763931   3-1-5  108.19748493   4-1-5  108.87229660

 NUCLEAR CHARGE:                   18
 NUMBER OF PRIMITIVE AOS:          82
 NUMBER OF SYMMETRY AOS:           80
 NUMBER OF CONTRACTIONS:           48   (  48A   )
 NUMBER OF CORE ORBITALS:           2   (   2A   )
 NUMBER OF VALENCE ORBITALS:       12   (  12A   )


 NUCLEAR REPULSION ENERGY   40.28408798


 Eigenvalues of metric

         1 0.968E-02 0.177E-01 0.371E-01 0.377E-01 0.380E-01 0.476E-01 0.483E-01 0.518E-01


 Contracted 2-electron integrals neglected if value below      1.0D-16
 AO integral compression algorithm  1   Integral accuracy      1.0D-16

     6.291 MB (compressed) written to integral file ( 98.3%)

     Node minimum: 6.291 MB, node maximum: 6.291 MB


 NUMBER OF SORTED TWO-ELECTRON INTEGRALS:     692076.     BUFFER LENGTH:  32768
 NUMBER OF SEGMENTS:   1  SEGMENT LENGTH:     692076      RECORD LENGTH: 524288

 Memory used in sort:       1.25 MW

 SORT1 READ      832256. AND WROTE      682148. INTEGRALS IN      2 RECORDS. CPU TIME:     0.01 SEC, REAL TIME:     0.02 SEC
 SORT2 READ      682148. AND WROTE      692076. INTEGRALS IN     24 RECORDS. CPU TIME:     0.02 SEC, REAL TIME:     0.02 SEC

 FILE SIZES:   FILE 1:     8.0 MBYTE,  FILE 4:     8.4 MBYTE,   TOTAL:     16.4 MBYTE

 OPERATOR DM      FOR CENTER  0  COORDINATES:    0.000000    0.000000    0.000000


 **********************************************************************************************************************************
 DATASETS  * FILE   NREC   LENGTH (MB)   RECORD NAMES
              1      19        8.03       500      610      700      900      950      970     1000      129      960     1100   
                                          VAR    BASINP    GEOM    SYMINP    ZMAT    AOBASIS   BASIS     P2S    ABASIS      S 
                                         1400     1410     1200     1210     1080     1600     1650     1300     1700   
                                           T        V       H0       H01     AOSYM     SMH    MOLCAS    ERIS     OPER   

 PROGRAMS   *        TOTAL       INT
 CPU TIMES  *         0.23      0.19
 REAL TIME  *         0.41 SEC
 DISK USED  *        23.34 MB      
 GA USED    *         0.00 MB       (max)       0.00 MB       (current)
 **********************************************************************************************************************************

1PROGRAM * RHF-SCF (CLOSED SHELL)       Authors: W. Meyer, H.-J. Werner


 NUMBER OF ELECTRONS:       9+    9-    SPACE SYMMETRY=1    SPIN SYMMETRY: Singlet 
 CONVERGENCE THRESHOLDS:    1.00E-10 (Density)    1.00E-13 (Energy)
 MAX. NUMBER OF ITERATIONS:      200
 INTERPOLATION TYPE:            DIIS
 INTERPOLATION STEPS:              2 (START)      1 (STEP)
 LEVEL SHIFTS:                  0.00 (CLOSED)  0.00 (OPEN) 



 Orbital guess generated from atomic densities. Full valence occupancy:   14

 Molecular orbital dump at record        2100.2

 ITERATION    DDIFF          GRAD             ENERGY        2-EL.EN.            DIPOLE MOMENTS         DIIS
    1      0.000D+00      0.000D+00      -115.01435116    164.325132   -0.50199   -0.89375   -0.00000    0
    2      0.000D+00      0.110D-01      -115.04266286    162.123586   -0.31862   -0.53336   -0.00000    1
    3      0.205D-01      0.530D-02      -115.04870139    163.140851   -0.40253   -0.60783   -0.00000    2
    4      0.639D-02      0.112D-02      -115.04916112    162.986200   -0.39180   -0.59723   -0.00000    3
    5      0.204D-02      0.200D-03      -115.04918166    162.992709   -0.39438   -0.59307   -0.00000    4
    6      0.430D-03      0.347D-04      -115.04918243    162.992697   -0.39460   -0.59289   -0.00000    5
    7      0.915D-04      0.704D-05      -115.04918245    162.991579   -0.39471   -0.59273   -0.00000    6
    8      0.145D-04      0.225D-05      -115.04918246    162.991947   -0.39474   -0.59271   -0.00000    7
    9      0.475D-05      0.474D-06      -115.04918246    162.991904   -0.39475   -0.59271   -0.00000    6
   10      0.135D-05      0.804D-07      -115.04918246    162.991904   -0.39475   -0.59271   -0.00000    6
   11      0.219D-06      0.301D-07      -115.04918246    162.991909   -0.39475   -0.59271   -0.00000    6
   12      0.546D-07      0.119D-07      -115.04918246    162.991907   -0.39475   -0.59271   -0.00000    7
   13      0.218D-07      0.270D-08      -115.04918246    162.991907   -0.39475   -0.59271   -0.00000    7
   14      0.666D-08      0.607D-09      -115.04918246    162.991907   -0.39475   -0.59271   -0.00000    7
   15      0.157D-08      0.137D-09      -115.04918246    162.991907   -0.39475   -0.59271   -0.00000    7
   16      0.302D-09      0.401D-10      -115.04918246    162.991907   -0.39475   -0.59271   -0.00000    7
   17      0.786D-10      0.143D-10      -115.04918246    162.991907   -0.39475   -0.59271   -0.00000    7
   18      0.366D-10      0.265D-11      -115.04918246    162.991907   -0.39475   -0.59271   -0.00000    7
   19      0.621D-11      0.569D-12      -115.04918246    162.991907   -0.39475   -0.59271   -0.00000    7
   20      0.143D-11      0.228D-12      -115.04918246    162.991907   -0.39475   -0.59271   -0.00000    0

 Final occupancy:   9

 !RHF STATE 1.1 Energy               -115.049182456373
 Nuclear energy                        40.28408798
 One-electron energy                 -236.82922404
 Two-electron energy                   81.49595361
 Virial quotient                       -1.00097209
 !RHF STATE 1.1 Dipole moment          -0.39475246    -0.59271235    -0.00000279
 Dipole moment /Debye                  -1.00329496    -1.50642585    -0.00000709

 Orbital energies:

         1.1          2.1          3.1          4.1          5.1          6.1          7.1          8.1          9.1         10.1
    -20.549643   -11.275899    -1.350764    -0.920894    -0.683308    -0.613266    -0.584606    -0.497042    -0.443235     0.184715

        11.1
      0.224631


 **********************************************************************************************************************************
 DATASETS  * FILE   NREC   LENGTH (MB)   RECORD NAMES
              1      19        8.03       500      610      700      900      950      970     1000      129      960     1100   
                                          VAR    BASINP    GEOM    SYMINP    ZMAT    AOBASIS   BASIS     P2S    ABASIS      S 
                                         1400     1410     1200     1210     1080     1600     1650     1300     1700   
                                           T        V       H0       H01     AOSYM     SMH    MOLCAS    ERIS     OPER   

              2       3        0.39       700     1000     2100   
                                         GEOM     BASIS     RHF  

 PROGRAMS   *        TOTAL       RHF       INT
 CPU TIMES  *         0.32      0.09      0.19
 REAL TIME  *         0.54 SEC
 DISK USED  *        23.34 MB      
 GA USED    *         0.00 MB       (max)       0.00 MB       (current)
 **********************************************************************************************************************************


1PROGRAM * CCSD (Closed-shell coupled cluster)     Authors: C. Hampel, H.-J. Werner, 1991, M. Deegan, P.J. Knowles, 1992


 Convergence thresholds:  THRVAR = 1.00D-08  THRDEN = 1.00D-12

 CCSD(T)     terms to be evaluated (factor= 1.000)


 Number of core orbitals:           2 (   2 )
 Number of closed-shell orbitals:   7 (   7 )
 Number of external orbitals:      39 (  39 )

 Molecular orbitals read from record     2100.2  Type=RHF/CANONICAL (state 1.1)

 Number of N-1 electron functions:               7
 Number of N-2 electron functions:              28
 Number of singly external CSFs:               273
 Number of doubly external CSFs:             37401
 Total number of CSFs:                       37675

 Length of J-op  integral file:               0.00 MB
 Length of K-op  integral file:               0.19 MB
 Length of 3-ext integral record:             0.00 MB

 Memory could be reduced to 0.96 Mwords without degradation in triples

 Integral transformation finished. Total CPU:   0.01 sec, npass=  1  Memory used:   0.66 MW

 Reference energy:                   -115.04918246

 MP2 singlet pair energy:              -0.21864576
 MP2 triplet pair energy:              -0.11979165
 MP2 correlation energy:               -0.33843741
 MP2 total energy:                   -115.38761986

 SCS-MP2 correlation energy:           -0.33691194   (PS=  1.200000  PT=  0.333333)
 SCS-MP2 total energy:               -115.38609439

 ITER.      SQ.NORM     CORR.ENERGY   TOTAL ENERGY   ENERGY CHANGE        DEN1      VAR(S)    VAR(P)  DIIS     TIME
   1      1.10739418    -0.36127154  -115.41045400    -0.02283414    -0.01414952  0.91D-03  0.17D-02  1  1     0.05
   2      1.11593629    -0.36321842  -115.41240088    -0.00194688    -0.00925568  0.20D-04  0.16D-03  2  2     0.09
   3      1.11782206    -0.36334665  -115.41252910    -0.00012823    -0.00120524  0.95D-05  0.86D-05  3  3     0.13
   4      1.11833857    -0.36334520  -115.41252766     0.00000145    -0.00025553  0.33D-06  0.68D-06  4  4     0.16
   5      1.11843699    -0.36334561  -115.41252806    -0.00000041    -0.00003616  0.98D-07  0.49D-07  5  5     0.20
   6      1.11845602    -0.36334426  -115.41252672     0.00000135    -0.00000439  0.16D-07  0.41D-08  6  6     0.24
   7      1.11846069    -0.36334384  -115.41252630     0.00000042    -0.00000034  0.20D-08  0.71D-09  6  1     0.28
   8      1.11846194    -0.36334394  -115.41252640    -0.00000010     0.00000074  0.26D-09  0.71D-10  6  3     0.32
   9      1.11846300    -0.36334382  -115.41252628     0.00000012    -0.00000038  0.12D-10  0.10D-10  6  2     0.36
  10      1.11846292    -0.36334382  -115.41252628    -0.00000000     0.00000007  0.11D-11  0.87D-12  6  5     0.40
  11      1.11846296    -0.36334382  -115.41252628     0.00000000    -0.00000000  0.18D-12  0.50D-13  6  4     0.44
  12      1.11846294    -0.36334382  -115.41252628    -0.00000000     0.00000001  0.18D-13  0.97D-14  6  1     0.48
  13      1.11846294    -0.36334382  -115.41252628    -0.00000000    -0.00000000  0.24D-14  0.91D-15  6  6     0.52
  14      1.11846294    -0.36334382  -115.41252628     0.00000000    -0.00000000  0.23D-15  0.12D-15  6  3     0.56
  15      1.11846294    -0.36334382  -115.41252628    -0.00000000    -0.00000000  0.24D-16  0.16D-16  6  2     0.60
  16      1.11846294    -0.36334382  -115.41252628    -0.00000000    -0.00000000  0.55D-17  0.16D-17  6  5     0.64
  17      1.11846294    -0.36334382  -115.41252628    -0.00000000    -0.00000000  0.52D-18  0.25D-18  6  4     0.68
  18      1.11846294    -0.36334382  -115.41252628     0.00000000    -0.00000000  0.47D-19  0.24D-19  6  6     0.71
  19      1.11846294    -0.36334382  -115.41252628    -0.00000000    -0.00000000  0.16D-20  0.14D-20  6  1     0.75
  20      1.11846294    -0.36334382  -115.41252628    -0.00000000     0.00000000  0.27D-21  0.19D-21  6  3     0.79

 Norm of t1 vector:      0.04163407      S-energy:     0.00000000      T1 diagnostic:  0.00786810
                                                                       D1 diagnostic:  0.01750547


 Total CPU time for triples:      0.20 sec


 RESULTS
 =======

  Reference energy                   -115.049182456373
  CCSD singlet pair energy             -0.254626565758
  CCSD triplet pair energy             -0.108717256113
  CCSD correlation energy              -0.363343821870

  Triples (T) contribution             -0.007742433027
  Total correlation energy             -0.371086254898

  CCSD total energy                  -115.412526278243
  CCSD[T] energy                     -115.420559661682
  CCSD-T energy                      -115.420118165173
 !CCSD(T) total energy               -115.420268711270

 Timing summary (sec):

 STEP                 CPU(USER)    SYS     CPU(TOT)    WALL
 Transformation          0.01      0.00      0.01      0.02
 CCSD iterations         0.78      0.05      0.83      0.85
 Triples                 0.20      0.01      0.21      0.21

 Program statistics:

 Available memory in ccsd:               999999704
 Min. memory needed in ccsd:                136801
 Max. memory used in ccsd:                  163198
 Max. memory used in cckext:                182024 (20 integral passes)



 **********************************************************************************************************************************
 DATASETS  * FILE   NREC   LENGTH (MB)   RECORD NAMES
              1      20       10.56       500      610      700      900      950      970     1000      129      960     1100   
                                          VAR    BASINP    GEOM    SYMINP    ZMAT    AOBASIS   BASIS     P2S    ABASIS      S 
                                         1400     1410     1200     1210     1080     1600     1650     1300     1700     1380   
                                           T        V       H0       H01     AOSYM     SMH    MOLCAS    ERIS     OPER     JKOP   

              2       3        0.39       700     1000     2100   
                                         GEOM     BASIS     RHF  

 PROGRAMS   *        TOTAL   CCSD(T)       RHF       INT
 CPU TIMES  *         1.33      1.01      0.09      0.19
 REAL TIME  *         1.65 SEC
 DISK USED  *        24.77 MB      
 GA USED    *         0.00 MB       (max)       0.00 MB       (current)
 **********************************************************************************************************************************

        CCSD(T)         RHF-SCF 
   -115.42026871   -115.04918246
 **********************************************************************************************************************************
 Variable memory released
