
 Primary working directories    : /tmp/333988.20.gen4.q
 Secondary working directories  : /tmp/333988.20.gen4.q
 Wavefunction directory         : /home/vulcan/mel64643/wfu/
 Main file repository           : /tmp/333988.20.gen4.q/

 ARCHNAME  : Linux/x86_64
 FC        : /opt/intel/compilers_and_libraries_2016.1.150/linux/bin/intel64/ifort
 FCVERSION : 16.0.1
 BLASLIB   : -mkl
 id        : ccgc

 Nodes     nprocs
 n027         3
 Number of processes for MPI-2 version of Molpro:   nprocs(total)=    4   nprocs(compute)=    3   nprocs(helper)=    1
 ga_uses_ma=false, calling ma_init with nominal heap.
 GA-space will be limited to   8.0 MW (determined by -G option)

 Using customized tuning parameters: mindgm=10; mindgv=16; mindgc=4; mindgr=1; noblas=0; mincuda=1000; minvec=7
 default implementation of scratch files=sf  

 ***,Optimization of min3
 memory,1000,m
 gthresh,energy=1.0d-10,orbital=1.0d-10,oneint=1.0d-16,twoint=1.0d-16,optgrad=1.0d-6,compress=1.0d-13
 geomtyp=xyz
 
  bohr
  geometry = {
  12
  arbitrary comment
  C         -3.1008948024          1.5876634124          0.0189226169
  C         -0.8636456509         -0.0701402521         -0.6562054445
  C         -1.1190307610         -2.7802365464          0.2476254890
  O          1.3112409004          1.1046026966          0.5886583338
  O          3.4491404876          0.1201548988         -0.2517413395
  H         -4.8040273648          0.8434816301         -0.8741417280
  H         -2.8150345731          3.5278354188         -0.6132069557
  H         -3.3878638998          1.5892934141          2.0622881287
  H         -0.4559529492         -0.0108963783         -2.6768854314
  H         -2.6954566906         -3.6943560733         -0.7200234969
  H         -1.4697671852         -2.8335383926          2.2807635277
  H          0.6066070645         -3.8246994711         -0.1663280725
 }
 
 basis=cc-pvtz
 {rhf;maxit,200}
 {uccsd(t);maxit,200}

 Variables initialized (661), CPU time= 0.01 sec
 Commands  initialized (458), CPU time= 0.01 sec, 486 directives.
 Default parameters read. Elapsed time= 0.07 sec

 Checking input...
 Passed
1


                                         ***  PROGRAM SYSTEM MOLPRO  ***
                         Copyright, University College Cardiff Consultants Limited, 2008

                                    Version 2010.1 linked May 16 2016 07:17:05


 **********************************************************************************************************************************
 LABEL *   Optimization of min3                                                          
 Linux-4.4.3/n027(x86_64) 64 bit mpp version                                             DATE: 15-Jul-20          TIME: 08:11:57  
 **********************************************************************************************************************************

 SHA1:             9e8077add272b0f3cad6f7df79ec5211205f459d
 **********************************************************************************************************************************

 THRESHOLDS:

 ZERO    =  1.00D-12  ONEINT  =  1.00D-16  TWOINT  =  1.00D-16  PREFAC  =  1.00D-14  LOCALI  =  1.00D-09  EORDER  =  1.00D-04
 ENERGY  =  1.00D-10  ETEST   =  0.00D+00  EDENS   =  0.00D+00  THRDEDEF=  1.00D-06  GRADIENT=  1.00D-02  STEP    =  1.00D-03
 ORBITAL =  1.00D-10  CIVEC   =  1.00D-05  COEFF   =  1.00D-04  PRINTCI =  5.00D-02  PUNCHCI =  9.90D+01  OPTGRAD =  1.00D-06
 OPTENERG=  1.00D-06  OPTSTEP =  3.00D-04  THRGRAD =  1.00D-10  COMPRESS=  1.00D-13  VARMIN  =  1.00D-07  VARMAX  =  1.00D-03
 THRDOUB =  0.00D+00  THRDIV  =  1.00D-05  THRRED  =  1.00D-07  THRPSP  =  1.00D+00  THRDC   =  1.00D-10  THRCS   =  1.00D-10
 THRNRM  =  1.00D-08  THREQ   =  0.00D+00  THRDE   =  1.00D+00  THRREF  =  1.00D-05  SPARFAC =  1.00D+00  THRDLP  =  1.00D-07
 THRDIA  =  1.00D-10  THRDLS  =  1.00D-07  THRGPS  =  0.00D+00  THRKEX  =  0.00D+00  THRDIS  =  2.00D-01  THRVAR  =  1.00D-10
 THRLOC  =  1.00D-06  THRGAP  =  1.00D-06  THRLOCT = -1.00D+00  THRGAPT = -1.00D+00  THRORB  =  1.00D-06  THRMLTP =  0.00D+00
 THRCPQCI=  1.00D-10  KEXTA   =  0.00D+00  THRCOARS=  0.00D+00  SYMTOL  =  1.00D-06  GRADTOL =  1.00D-06  THROVL  =  1.00D-08
 THRORTH =  1.00D-08  GRID    =  1.00D-06  GRIDMAX =  1.00D-03  DTMAX   =  0.00D+00

 SETTING GEOMTYP        =    XYZ
 ZUNIT=BOHR
 

 Variable memory set to 1000000000 words,  buffer space   230000 words

 SETTING BASIS          =    CC-PVTZ


 Recomputing integrals since basis changed


 Using spherical harmonics

 Library entry C      S cc-pVTZ              selected for orbital group  1
 Library entry C      P cc-pVTZ              selected for orbital group  1
 Library entry C      D cc-pVTZ              selected for orbital group  1
 Library entry C      F cc-pVTZ              selected for orbital group  1
 Library entry O      S cc-pVTZ              selected for orbital group  2
 Library entry O      P cc-pVTZ              selected for orbital group  2
 Library entry O      D cc-pVTZ              selected for orbital group  2
 Library entry O      F cc-pVTZ              selected for orbital group  2
 Library entry H      S cc-pVTZ              selected for orbital group  3
 Library entry H      P cc-pVTZ              selected for orbital group  3
 Library entry H      D cc-pVTZ              selected for orbital group  3

1PROGRAM * SEWARD (Integral evaluation for generally contracted gaussian basis sets)     Author: Roland Lindh, 1990

 Geometry written to block  1 of record 700


 Point group  C1  



 ATOMIC COORDINATES

 NR  ATOM    CHARGE       X              Y              Z

   1  C       6.00   -3.100894802    1.587663412    0.018922617
   2  C       6.00   -0.863645651   -0.070140252   -0.656205444
   3  C       6.00   -1.119030761   -2.780236546    0.247625489
   4  O       8.00    1.311240900    1.104602697    0.588658334
   5  O       8.00    3.449140488    0.120154899   -0.251741339
   6  H       1.00   -4.804027365    0.843481630   -0.874141728
   7  H       1.00   -2.815034573    3.527835419   -0.613206956
   8  H       1.00   -3.387863900    1.589293414    2.062288129
   9  H       1.00   -0.455952949   -0.010896378   -2.676885431
  10  H       1.00   -2.695456691   -3.694356073   -0.720023497
  11  H       1.00   -1.469767185   -2.833538393    2.280763528
  12  H       1.00    0.606607065   -3.824699471   -0.166328073

 Bond lengths in Bohr (Angstrom)

 1-2  2.865204121  1-6  2.062045338  1-7  2.060478411  1-8  2.063418652  2-3  2.868231831
     ( 1.516200720)     ( 1.091187397)     ( 1.090358215)     ( 1.091914123)     ( 1.517802915)

  2- 4  2.767641294   2- 9  2.062248963   3-10  2.063268713   3-11  2.063857410   3-12  2.059146973
       ( 1.464572696)       ( 1.091295150)       ( 1.091834779)       ( 1.092146304)       ( 1.089653648)

 4-5  2.499204618
     ( 1.322522124)

 Bond angles

  1-2-3  113.76101059   1-2-4  105.19030198   1-2-9  111.63079017   2-1-6  109.51543776

  2- 1- 7  111.35826328   2- 1- 8  110.02263248   2- 3-10  109.80749392   2- 3-11  110.48495432

  2- 3-12  109.95602686   2- 4- 5  110.71843760   3- 2- 4  109.22547110   3- 2- 9  110.70229630

  4-2-9  105.85355115   6-1-7  108.75618318   6-1-8  108.31884578   7-1-8  108.80552313

 10- 3-11  108.70661739  10- 3-12  108.74081881  11- 3-12  109.10843243

 NUCLEAR CHARGE:                   41
 NUMBER OF PRIMITIVE AOS:         354
 NUMBER OF SYMMETRY AOS:          322
 NUMBER OF CONTRACTIONS:          248   ( 248A   )
 NUMBER OF CORE ORBITALS:           5   (   5A   )
 NUMBER OF VALENCE ORBITALS:       27   (  27A   )


 NUCLEAR REPULSION ENERGY  186.62671861


 Eigenvalues of metric

         1 0.809E-03 0.954E-03 0.110E-02 0.124E-02 0.136E-02 0.150E-02 0.160E-02 0.164E-02


 Contracted 2-electron integrals neglected if value below      1.0D-16
 AO integral compression algorithm  1   Integral accuracy      1.0D-16

     3371.958 MB (compressed) written to integral file ( 82.1%)

     Node minimum: 1099.956 MB, node maximum: 1137.443 MB


 NUMBER OF SORTED TWO-ELECTRON INTEGRALS:  158903334.     BUFFER LENGTH:  32768
 NUMBER OF SEGMENTS:  10  SEGMENT LENGTH:   15997437      RECORD LENGTH: 524288

 Memory used in sort:      16.55 MW

 SORT1 READ   513519977. AND WROTE   152626042. INTEGRALS IN    442 RECORDS. CPU TIME:    17.41 SEC, REAL TIME:    21.33 SEC
 SORT2 READ   459376163. AND WROTE   476679126. INTEGRALS IN  13017 RECORDS. CPU TIME:     1.43 SEC, REAL TIME:    11.34 SEC

 Node minimum:   158882750.  Node maximum:   158903334. integrals

 OPERATOR DM      FOR CENTER  0  COORDINATES:    0.000000    0.000000    0.000000


 **********************************************************************************************************************************
 DATASETS  * FILE   NREC   LENGTH (MB)   RECORD NAMES
              1      18        5.04       500      610      700      900      950      970     1000      129      960     1100   
                                          VAR    BASINP    GEOM    SYMINP    ZMAT    AOBASIS   BASIS     P2S    ABASIS      S 
                                         1400     1410     1200     1210     1080     1600     1650     1700   
                                           T        V       H0       H01     AOSYM     SMH    MOLCAS    OPER   

 PROGRAMS   *        TOTAL       INT
 CPU TIMES  *        27.08     26.97
 REAL TIME  *        41.70 SEC
 DISK USED  *         8.83 GB      
 GA USED    *         0.01 MB       (max)       0.00 MB       (current)
 **********************************************************************************************************************************

1PROGRAM * RHF-SCF (OPEN SHELL)       Authors: W. Meyer, H.-J. Werner


 NUMBER OF ELECTRONS:      21+   20-    SPACE SYMMETRY=1    SPIN SYMMETRY: Doublet 
 CONVERGENCE THRESHOLDS:    1.00E-10 (Density)    1.00E-11 (Energy)
 MAX. NUMBER OF ITERATIONS:      200
 INTERPOLATION TYPE:            DIIS
 INTERPOLATION STEPS:              2 (START)      1 (STEP)
 LEVEL SHIFTS:                 -0.30 (CLOSED)  0.00 (OPEN) 



 Orbital guess generated from atomic densities. Full valence occupancy:   32

 Molecular orbital dump at record        2100.2

 ITERATION    DDIFF          GRAD             ENERGY        2-EL.EN.            DIPOLE MOMENTS         DIIS
    1      0.000D+00      0.000D+00      -267.26105532    559.794930   -1.77371   -0.07065   -0.09668    0
    2      0.000D+00      0.326D-02      -267.33463613    562.646597   -1.01418   -0.43140   -0.35842    1
    3      0.471D-02      0.230D-02      -267.36115708    561.599198   -1.18787   -0.24311   -0.21631    2
    4      0.211D-02      0.546D-03      -267.36939330    561.785960   -0.97651   -0.31594   -0.29727    3
    5      0.926D-03      0.484D-03      -267.37361723    561.828492   -0.92102   -0.31799   -0.30153    4
    6      0.583D-03      0.272D-03      -267.37554379    561.795643   -0.87964   -0.31135   -0.29945    5
    7      0.485D-03      0.133D-03      -267.37588063    561.781503   -0.88958   -0.29981   -0.29137    6
    8      0.258D-03      0.357D-04      -267.37590262    561.778732   -0.88916   -0.29651   -0.28987    7
    9      0.849D-04      0.190D-04      -267.37591362    561.778966   -0.89169   -0.29705   -0.28993    8
   10      0.449D-04      0.822D-05      -267.37591544    561.778865   -0.89285   -0.29642   -0.28963    9
   11      0.199D-04      0.321D-05      -267.37591569    561.778810   -0.89348   -0.29626   -0.28947    9
   12      0.785D-05      0.148D-05      -267.37591575    561.779035   -0.89363   -0.29635   -0.28951    9
   13      0.370D-05      0.527D-06      -267.37591576    561.779088   -0.89364   -0.29641   -0.28954    9
   14      0.148D-05      0.298D-06      -267.37591576    561.779088   -0.89363   -0.29643   -0.28955    9
   15      0.813D-06      0.145D-06      -267.37591576    561.779094   -0.89362   -0.29643   -0.28955    9
   16      0.410D-06      0.721D-07      -267.37591576    561.779097   -0.89362   -0.29644   -0.28955    9
   17      0.166D-06      0.321D-07      -267.37591576    561.779092   -0.89361   -0.29644   -0.28955    9
   18      0.996D-07      0.175D-07      -267.37591576    561.779089   -0.89362   -0.29644   -0.28955    9
   19      0.510D-07      0.789D-08      -267.37591576    561.779091   -0.89362   -0.29644   -0.28955    9
   20      0.258D-07      0.405D-08      -267.37591576    561.779091   -0.89362   -0.29644   -0.28955    9
   21      0.163D-07      0.323D-08      -267.37591576    561.779091   -0.89362   -0.29644   -0.28955    9
   22      0.155D-07      0.275D-08      -267.37591576    561.779091   -0.89362   -0.29644   -0.28955    9
   23      0.203D-07      0.220D-08      -267.37591576    561.779091   -0.89362   -0.29644   -0.28955    9
   24      0.281D-07      0.168D-08      -267.37591576    561.779091   -0.89362   -0.29644   -0.28955    9
   25      0.325D-07      0.946D-09      -267.37591576    561.779091   -0.89362   -0.29644   -0.28955    9
   26      0.219D-07      0.404D-09      -267.37591576    561.779091   -0.89362   -0.29644   -0.28955    9
   27      0.529D-08      0.196D-09      -267.37591576    561.779091   -0.89362   -0.29644   -0.28955    9
   28      0.158D-08      0.893D-10      -267.37591576    561.779091   -0.89362   -0.29644   -0.28955    9
   29      0.672D-09      0.430D-10      -267.37591576    561.779091   -0.89362   -0.29644   -0.28955    9
   30      0.113D-09      0.203D-10      -267.37591576    561.779091   -0.89362   -0.29644   -0.28955    9
   31      0.578D-10      0.149D-10      -267.37591576    561.779091   -0.89362   -0.29644   -0.28955    0

 Final alpha occupancy:  21
 Final beta  occupancy:  20

 !RHF STATE 1.1 Energy               -267.375915758239
 Nuclear energy                       186.62671861
 One-electron energy                 -734.89218002
 Two-electron energy                  280.88954565
 Virial quotient                       -1.00116875
 !RHF STATE 1.1 Dipole moment          -0.89361527    -0.29643535    -0.28954690
 Dipole moment /Debye                  -2.27119470    -0.75341416    -0.73590661

 Orbital energies:

         1.1          2.1          3.1          4.1          5.1          6.1          7.1          8.1          9.1         10.1
    -20.648727   -20.640419   -11.297492   -11.229091   -11.225505    -1.523747    -1.170989    -1.034420    -0.952799    -0.819534

        11.1         12.1         13.1         14.1         15.1         16.1         17.1         18.1         19.1         20.1
     -0.695308    -0.668087    -0.652478    -0.595481    -0.562850    -0.557536    -0.544421    -0.501334    -0.489600    -0.465283

        21.1         22.1         23.1
     -0.562886     0.137691     0.174865


 **********************************************************************************************************************************
 DATASETS  * FILE   NREC   LENGTH (MB)   RECORD NAMES
              1      18        5.04       500      610      700      900      950      970     1000      129      960     1100   
                                          VAR    BASINP    GEOM    SYMINP    ZMAT    AOBASIS   BASIS     P2S    ABASIS      S 
                                         1400     1410     1200     1210     1080     1600     1650     1700   
                                           T        V       H0       H01     AOSYM     SMH    MOLCAS    OPER   

              2       3        2.21       700     1000     2100   
                                         GEOM     BASIS     RHF  

 PROGRAMS   *        TOTAL       RHF       INT
 CPU TIMES  *        94.15     67.06     26.97
 REAL TIME  *       112.50 SEC
 DISK USED  *         8.87 GB      
 SF USED    *         0.25 MB      
 GA USED    *         0.01 MB       (max)       0.00 MB       (current)
 **********************************************************************************************************************************


1PROGRAM * CCSD (Unrestricted open-shell coupled cluster)     Authors: C. Hampel, H.-J. Werner, 1991, M. Deegan, P.J. Knowles, 1992


 Convergence thresholds:  THRVAR = 1.00D-08  THRDEN = 1.00D-10

 CCSD(T)     terms to be evaluated (factor= 1.000)


 Number of core orbitals:           5 (   5 )
 Number of closed-shell orbitals:  15 (  15 )
 Number of active  orbitals:        1 (   1 )
 Number of external orbitals:     227 ( 227 )

 Memory could be reduced to 332.02 Mwords without degradation in triples

 Number of N-1 electron functions:              31
 Number of N-2 electron functions:             465
 Number of singly external CSFs:              7068
 Number of doubly external CSFs:          18353430
 Total number of CSFs:                    18360498

 Molecular orbitals read from record     2100.2  Type=RHF/CANONICAL (state 1.1)

 Integral transformation finished. Total CPU:  41.94 sec, npass=  1  Memory used: 145.25 MW

 Starting RMP2 calculation

 ITER.      SQ.NORM     CORR.ENERGY   TOTAL ENERGY   ENERGY CHANGE        DEN1      VAR(S)    VAR(P)  DIIS     TIME
   1      1.26536892    -0.96760784  -268.34352360    -0.96760784    -0.00323696  0.26D-04  0.11D-02  1  1    47.79
   2      1.26815439    -0.97109802  -268.34701378    -0.00349018    -0.00000666  0.10D-05  0.23D-05  2  2    51.85
   3      1.26823435    -0.97115095  -268.34706671    -0.00005293    -0.00000008  0.54D-07  0.11D-07  3  3    56.55
   4      1.26823607    -0.97115076  -268.34706652     0.00000019    -0.00000000  0.16D-08  0.12D-09  4  4    60.94
   5      1.26823633    -0.97115085  -268.34706660    -0.00000009    -0.00000000  0.19D-10  0.46D-11  5  5    66.76
   6      1.26823638    -0.97115088  -268.34706664    -0.00000003    -0.00000000  0.50D-13  0.56D-13  6  6    71.74
   7      1.26823638    -0.97115088  -268.34706664     0.00000000    -0.00000000  0.15D-14  0.86D-15  6  1    76.03
   8      1.26823638    -0.97115088  -268.34706664     0.00000000    -0.00000000  0.16D-16  0.80D-17  6  2    81.07
   9      1.26823638    -0.97115088  -268.34706664    -0.00000000    -0.00000000  0.32D-18  0.10D-18  6  3    85.78

 Norm of t1 vector:      0.04589885      S-energy:    -0.00446828      T1 diagnostic:  0.00074438
 Norm of t2 vector:      0.51587758      P-energy:    -0.96668260
                                         Alpha-Beta:  -0.73708285
                                         Alpha-Alpha: -0.11898910
                                         Beta-Beta:   -0.11061065

 Spin contamination <S**2-Sz**2-Sz>     0.00145459
  Reference energy                   -267.375915758241
  RHF-RMP2 correlation energy          -0.971150879163
 !RHF-RMP2 energy                    -268.347066637404

 Starting UCCSD calculation

 ITER.      SQ.NORM     CORR.ENERGY   TOTAL ENERGY   ENERGY CHANGE        DEN1      VAR(S)    VAR(P)  DIIS     TIME
   1      1.27984400    -0.97926953  -268.35518529    -0.97926953    -0.02933115  0.65D-02  0.54D-02  1  1   207.86
   2      1.30624754    -1.00589316  -268.38180891    -0.02662362    -0.00363504  0.62D-03  0.97D-03  2  2   369.80
   3      1.32289669    -1.01271714  -268.38863289    -0.00682398    -0.00091215  0.75D-03  0.76D-04  3  3   533.86
   4      1.33413448    -1.01537594  -268.39129170    -0.00265881    -0.00038531  0.31D-03  0.33D-04  4  4   698.02
   5      1.34920988    -1.01737332  -268.39328908    -0.00199738    -0.00011804  0.10D-03  0.90D-05  5  5   854.53
   6      1.36074268    -1.01839622  -268.39431198    -0.00102290    -0.00001817  0.93D-05  0.32D-05  6  6  1002.96
   7      1.36444222    -1.01863741  -268.39455317    -0.00024119    -0.00000317  0.16D-05  0.61D-06  6  1  1122.57
   8      1.36504786    -1.01867969  -268.39459545    -0.00004227    -0.00000067  0.27D-06  0.15D-06  6  2  1232.06
   9      1.36536915    -1.01869820  -268.39461396    -0.00001852    -0.00000015  0.66D-07  0.32D-07  6  4  1342.74
  10      1.36535552    -1.01869693  -268.39461268     0.00000128    -0.00000002  0.11D-07  0.43D-08  6  3  1452.27
  11      1.36541807    -1.01870202  -268.39461778    -0.00000509    -0.00000000  0.24D-08  0.94D-09  6  5  1561.75
  12      1.36541056    -1.01869953  -268.39461529     0.00000249    -0.00000000  0.10D-08  0.21D-09  6  6  1671.23
  13      1.36540623    -1.01869838  -268.39461414     0.00000115    -0.00000000  0.63D-09  0.56D-10  6  1  1780.81
  14      1.36539346    -1.01869689  -268.39461265     0.00000149    -0.00000000  0.42D-09  0.22D-10  6  2  1890.38
  15      1.36538752    -1.01869618  -268.39461194     0.00000071    -0.00000000  0.34D-09  0.17D-10  6  3  2000.64
  16      1.36538453    -1.01869602  -268.39461177     0.00000016    -0.00000000  0.25D-09  0.13D-10  6  4  2110.56
  17      1.36538391    -1.01869602  -268.39461178    -0.00000001    -0.00000000  0.13D-09  0.13D-10  6  5  2220.81
  18      1.36538654    -1.01869619  -268.39461195    -0.00000017    -0.00000000  0.28D-10  0.55D-11  6  6  2332.22
  19      1.36538969    -1.01869651  -268.39461227    -0.00000032    -0.00000000  0.26D-11  0.17D-11  6  2  2442.35
  20      1.36538913    -1.01869638  -268.39461214     0.00000013    -0.00000000  0.62D-12  0.17D-12  6  1  2553.80
  21      1.36538944    -1.01869642  -268.39461218    -0.00000004    -0.00000000  0.21D-12  0.60D-13  6  4  2663.49
  22      1.36538936    -1.01869641  -268.39461217     0.00000001    -0.00000000  0.75D-13  0.19D-13  6  2  2773.15
  23      1.36538945    -1.01869642  -268.39461218    -0.00000001    -0.00000000  0.21D-13  0.39D-14  6  3  2882.89
  24      1.36538939    -1.01869641  -268.39461217     0.00000001    -0.00000000  0.23D-14  0.72D-15  6  5  2992.47
  25      1.36538937    -1.01869641  -268.39461217     0.00000000    -0.00000000  0.64D-15  0.20D-15  6  6  3102.09
  26      1.36538936    -1.01869641  -268.39461217     0.00000000    -0.00000000  0.30D-15  0.73D-16  6  1  3211.86
  27      1.36538937    -1.01869641  -268.39461217    -0.00000000    -0.00000000  0.18D-15  0.17D-16  6  4  3321.34
  28      1.36538937    -1.01869641  -268.39461217    -0.00000000    -0.00000000  0.13D-15  0.75D-17  6  2  3431.08
  29      1.36538937    -1.01869641  -268.39461217    -0.00000000    -0.00000000  0.99D-16  0.53D-17  6  3  3541.65
  30      1.36538937    -1.01869641  -268.39461217     0.00000000    -0.00000000  0.59D-16  0.47D-17  6  5  3651.33

 Norm of t1 vector:      0.23122906      S-energy:    -0.00501545      T1 diagnostic:  0.02849324
                                                                       D1 diagnostic:  0.14602899
 Norm of t2 vector:      0.55850022      P-energy:    -1.01368096
                                         Alpha-Beta:  -0.80137718
                                         Alpha-Alpha: -0.10868317
                                         Beta-Beta:   -0.10362060

 Singles amplitudes (print threshold =  0.500E-01):

         I         SYM. A    A   T(IA) [Beta-Beta]

         8         1         1     -0.09654715
         9         1         1      0.09871706
        11         1         1     -0.05436257
        12         1         1     -0.07443528
        14         1         1     -0.11181099

 Spin contamination <S**2-Sz**2-Sz>     0.00176172

 Memory could be reduced to 360.52 Mwords without degradation in triples
 

 RESULTS
 =======

  Reference energy                   -267.375915758241
  UCCSD singles energy                 -0.005015452453
  UCCSD pair energy                    -1.013680959305
  UCCSD correlation energy             -1.018696411758
  Triples (T) contribution             -0.040835766960
  Total correlation energy             -1.059532178717
 
  RHF-UCCSD energy                   -268.394612169998
  RHF-UCCSD[T] energy                -268.438768754321
  RHF-UCCSD-T energy                 -268.434950746248
 !RHF-UCCSD(T) energy                -268.435447936958

 Program statistics:

 Available memory in ccsd:               999997692
 Min. memory needed in ccsd:              51505734
 Max. memory used in ccsd:                74803578
 Max. memory used in cckext:              59475747 (30 integral passes)
 Max. memory used in cckint:             145249478 ( 1 integral passes)



 **********************************************************************************************************************************
 DATASETS  * FILE   NREC   LENGTH (MB)   RECORD NAMES
              1      18        5.04       500      610      700      900      950      970     1000      129      960     1100   
                                          VAR    BASINP    GEOM    SYMINP    ZMAT    AOBASIS   BASIS     P2S    ABASIS      S 
                                         1400     1410     1200     1210     1080     1600     1650     1700   
                                           T        V       H0       H01     AOSYM     SMH    MOLCAS    OPER   

              2       3        2.21       700     1000     2100   
                                         GEOM     BASIS     RHF  

 PROGRAMS   *        TOTAL  UCCSD(T)       RHF       INT
 CPU TIMES  *      5807.09   5712.94     67.06     26.97
 REAL TIME  *      5929.79 SEC
 DISK USED  *        15.85 GB      
 SF USED    *         6.57 GB      
 GA USED    *         0.01 MB       (max)       0.00 MB       (current)
 **********************************************************************************************************************************

        UCCSD(T)        RHF-SCF 
   -268.43544794   -267.37591576
 **********************************************************************************************************************************
 Variable memory released
