
 Primary working directories    : /tmp/333988.19.gen4.q
 Secondary working directories  : /tmp/333988.19.gen4.q
 Wavefunction directory         : /home/vulcan/mel64643/wfu/
 Main file repository           : /tmp/333988.19.gen4.q/

 ARCHNAME  : Linux/x86_64
 FC        : /opt/intel/compilers_and_libraries_2016.1.150/linux/bin/intel64/ifort
 FCVERSION : 16.0.1
 BLASLIB   : -mkl
 id        : ccgc

 Nodes     nprocs
 n059         3
 Number of processes for MPI-2 version of Molpro:   nprocs(total)=    4   nprocs(compute)=    3   nprocs(helper)=    1
 ga_uses_ma=false, calling ma_init with nominal heap.
 GA-space will be limited to   8.0 MW (determined by -G option)

 Using customized tuning parameters: mindgm=10; mindgv=16; mindgc=4; mindgr=1; noblas=0; mincuda=1000; minvec=7
 default implementation of scratch files=sf  

 ***,Optimization of min3
 memory,1000,m
 gthresh,energy=1.0d-10,orbital=1.0d-10,oneint=1.0d-16,twoint=1.0d-16,optgrad=1.0d-6,compress=1.0d-13
 geomtyp=xyz
 
  bohr
  geometry = {
  12
  arbitrary comment
  C         -3.1000410713          1.5814482941          0.0183775624
  C         -0.8694634166         -0.0737503940         -0.6551286979
  C         -1.1198083403         -2.7743321057          0.2459906268
  O          1.3133818318          1.1064902509          0.5907612661
  O          3.4501440103          0.1197157414         -0.2521188038
  H         -4.8101681143          0.8536877359         -0.8741645118
  H         -2.7918303152          3.5161881948         -0.6200760800
  H         -3.3836011374          1.5953455689          2.0620184558
  H         -0.4625619044         -0.0122711012         -2.6756858012
  H         -2.6946217763         -3.6904976241         -0.7220639333
  H         -1.4686457475         -2.8286465767          2.2792377698
  H          0.6083930409         -3.8129886350         -0.1710490993
 }
 
 basis=cc-pvtz
 {rhf;maxit,200}
 {uccsd(t);maxit,200}

 Variables initialized (661), CPU time= 0.00 sec
 Commands  initialized (458), CPU time= 0.01 sec, 486 directives.
 Default parameters read. Elapsed time= 0.05 sec

 Checking input...
 Passed
1


                                         ***  PROGRAM SYSTEM MOLPRO  ***
                         Copyright, University College Cardiff Consultants Limited, 2008

                                    Version 2010.1 linked May 16 2016 07:17:05


 **********************************************************************************************************************************
 LABEL *   Optimization of min3                                                          
 Linux-4.4.3/n059(x86_64) 64 bit mpp version                                             DATE: 15-Jul-20          TIME: 07:49:23  
 **********************************************************************************************************************************

 SHA1:             9e8077add272b0f3cad6f7df79ec5211205f459d
 **********************************************************************************************************************************

 THRESHOLDS:

 ZERO    =  1.00D-12  ONEINT  =  1.00D-16  TWOINT  =  1.00D-16  PREFAC  =  1.00D-14  LOCALI  =  1.00D-09  EORDER  =  1.00D-04
 ENERGY  =  1.00D-10  ETEST   =  0.00D+00  EDENS   =  0.00D+00  THRDEDEF=  1.00D-06  GRADIENT=  1.00D-02  STEP    =  1.00D-03
 ORBITAL =  1.00D-10  CIVEC   =  1.00D-05  COEFF   =  1.00D-04  PRINTCI =  5.00D-02  PUNCHCI =  9.90D+01  OPTGRAD =  1.00D-06
 OPTENERG=  1.00D-06  OPTSTEP =  3.00D-04  THRGRAD =  1.00D-10  COMPRESS=  1.00D-13  VARMIN  =  1.00D-07  VARMAX  =  1.00D-03
 THRDOUB =  0.00D+00  THRDIV  =  1.00D-05  THRRED  =  1.00D-07  THRPSP  =  1.00D+00  THRDC   =  1.00D-10  THRCS   =  1.00D-10
 THRNRM  =  1.00D-08  THREQ   =  0.00D+00  THRDE   =  1.00D+00  THRREF  =  1.00D-05  SPARFAC =  1.00D+00  THRDLP  =  1.00D-07
 THRDIA  =  1.00D-10  THRDLS  =  1.00D-07  THRGPS  =  0.00D+00  THRKEX  =  0.00D+00  THRDIS  =  2.00D-01  THRVAR  =  1.00D-10
 THRLOC  =  1.00D-06  THRGAP  =  1.00D-06  THRLOCT = -1.00D+00  THRGAPT = -1.00D+00  THRORB  =  1.00D-06  THRMLTP =  0.00D+00
 THRCPQCI=  1.00D-10  KEXTA   =  0.00D+00  THRCOARS=  0.00D+00  SYMTOL  =  1.00D-06  GRADTOL =  1.00D-06  THROVL  =  1.00D-08
 THRORTH =  1.00D-08  GRID    =  1.00D-06  GRIDMAX =  1.00D-03  DTMAX   =  0.00D+00

 SETTING GEOMTYP        =    XYZ
 ZUNIT=BOHR
 

 Variable memory set to 1000000000 words,  buffer space   230000 words

 SETTING BASIS          =    CC-PVTZ


 Recomputing integrals since basis changed


 Using spherical harmonics

 Library entry C      S cc-pVTZ              selected for orbital group  1
 Library entry C      P cc-pVTZ              selected for orbital group  1
 Library entry C      D cc-pVTZ              selected for orbital group  1
 Library entry C      F cc-pVTZ              selected for orbital group  1
 Library entry O      S cc-pVTZ              selected for orbital group  2
 Library entry O      P cc-pVTZ              selected for orbital group  2
 Library entry O      D cc-pVTZ              selected for orbital group  2
 Library entry O      F cc-pVTZ              selected for orbital group  2
 Library entry H      S cc-pVTZ              selected for orbital group  3
 Library entry H      P cc-pVTZ              selected for orbital group  3
 Library entry H      D cc-pVTZ              selected for orbital group  3

1PROGRAM * SEWARD (Integral evaluation for generally contracted gaussian basis sets)     Author: Roland Lindh, 1990

 Geometry written to block  1 of record 700


 Point group  C1  



 ATOMIC COORDINATES

 NR  ATOM    CHARGE       X              Y              Z

   1  C       6.00   -3.100041071    1.581448294    0.018377562
   2  C       6.00   -0.869463417   -0.073750394   -0.655128698
   3  C       6.00   -1.119808340   -2.774332106    0.245990627
   4  O       8.00    1.313381832    1.106490251    0.590761266
   5  O       8.00    3.450144010    0.119715741   -0.252118804
   6  H       1.00   -4.810168114    0.853687736   -0.874164512
   7  H       1.00   -2.791830315    3.516188195   -0.620076080
   8  H       1.00   -3.383601137    1.595345569    2.062018456
   9  H       1.00   -0.462561904   -0.012271101   -2.675685801
  10  H       1.00   -2.694621776   -3.690497624   -0.722063933
  11  H       1.00   -1.468645748   -2.828646577    2.279237770
  12  H       1.00    0.608393041   -3.812988635   -0.171049099

 Bond lengths in Bohr (Angstrom)

 1-2  2.858106026  1-6  2.061747144  1-7  2.060542503  1-8  2.063266233  2-3  2.857941602
     ( 1.512444570)     ( 1.091029600)     ( 1.090392131)     ( 1.091833466)     ( 1.512357560)

  2- 4  2.776692846   2- 9  2.062037718   3-10  2.063135053   3-11  2.063669436   3-12  2.058982645
       ( 1.469362570)       ( 1.091183365)       ( 1.091764049)       ( 1.092046833)       ( 1.089566690)

 4-5  2.499984670
     ( 1.322934910)

 Bond angles

  1-2-3  113.86438973   1-2-4  105.16711001   1-2-9  111.57043872   2-1-6  109.93204212

  2- 1- 7  110.73314977   2- 1- 8  110.15523402   2- 3-10  109.78746998   2- 3-11  110.50766653

  2- 3-12  109.83354071   2- 4- 5  110.66242844   3- 2- 4  109.21026259   3- 2- 9  110.75786616

  4-2-9  105.77554413   6-1-7  108.74548882   6-1-8  108.49194434   7-1-8  108.73143566

 10- 3-11  108.75866033  10- 3-12  108.76188673  11- 3-12  109.15742785

 NUCLEAR CHARGE:                   41
 NUMBER OF PRIMITIVE AOS:         354
 NUMBER OF SYMMETRY AOS:          322
 NUMBER OF CONTRACTIONS:          248   ( 248A   )
 NUMBER OF CORE ORBITALS:           5   (   5A   )
 NUMBER OF VALENCE ORBITALS:       27   (  27A   )


 NUCLEAR REPULSION ENERGY  186.69483020


 Eigenvalues of metric

         1 0.801E-03 0.950E-03 0.110E-02 0.124E-02 0.136E-02 0.150E-02 0.159E-02 0.164E-02


 Contracted 2-electron integrals neglected if value below      1.0D-16
 AO integral compression algorithm  1   Integral accuracy      1.0D-16

     3374.055 MB (compressed) written to integral file ( 82.1%)

     Node minimum: 1103.888 MB, node maximum: 1148.453 MB


 NUMBER OF SORTED TWO-ELECTRON INTEGRALS:  158903334.     BUFFER LENGTH:  32768
 NUMBER OF SEGMENTS:  10  SEGMENT LENGTH:   15997437      RECORD LENGTH: 524288

 Memory used in sort:      16.55 MW

 SORT1 READ   513526452. AND WROTE   152666365. INTEGRALS IN    442 RECORDS. CPU TIME:    20.17 SEC, REAL TIME:    21.42 SEC
 SORT2 READ   459493846. AND WROTE   476679126. INTEGRALS IN  12633 RECORDS. CPU TIME:     1.41 SEC, REAL TIME:    12.53 SEC

 Node minimum:   158882750.  Node maximum:   158903334. integrals

 OPERATOR DM      FOR CENTER  0  COORDINATES:    0.000000    0.000000    0.000000


 **********************************************************************************************************************************
 DATASETS  * FILE   NREC   LENGTH (MB)   RECORD NAMES
              1      18        5.04       500      610      700      900      950      970     1000      129      960     1100   
                                          VAR    BASINP    GEOM    SYMINP    ZMAT    AOBASIS   BASIS     P2S    ABASIS      S 
                                         1400     1410     1200     1210     1080     1600     1650     1700   
                                           T        V       H0       H01     AOSYM     SMH    MOLCAS    OPER   

 PROGRAMS   *        TOTAL       INT
 CPU TIMES  *        28.27     28.22
 REAL TIME  *        41.46 SEC
 DISK USED  *         8.83 GB      
 GA USED    *         0.01 MB       (max)       0.00 MB       (current)
 **********************************************************************************************************************************

1PROGRAM * RHF-SCF (OPEN SHELL)       Authors: W. Meyer, H.-J. Werner


 NUMBER OF ELECTRONS:      21+   20-    SPACE SYMMETRY=1    SPIN SYMMETRY: Doublet 
 CONVERGENCE THRESHOLDS:    1.00E-10 (Density)    1.00E-11 (Energy)
 MAX. NUMBER OF ITERATIONS:      200
 INTERPOLATION TYPE:            DIIS
 INTERPOLATION STEPS:              2 (START)      1 (STEP)
 LEVEL SHIFTS:                 -0.30 (CLOSED)  0.00 (OPEN) 



 Orbital guess generated from atomic densities. Full valence occupancy:   32

 Molecular orbital dump at record        2100.2

 ITERATION    DDIFF          GRAD             ENERGY        2-EL.EN.            DIPOLE MOMENTS         DIIS
    1      0.000D+00      0.000D+00      -267.26099762    559.961885   -1.77319   -0.06895   -0.09726    0
    2      0.000D+00      0.326D-02      -267.33445684    562.783958   -1.02040   -0.43403   -0.36148    1
    3      0.471D-02      0.230D-02      -267.36098303    561.738995   -1.19316   -0.24479   -0.21832    2
    4      0.211D-02      0.547D-03      -267.36922601    561.927007   -0.98212   -0.31819   -0.29956    3
    5      0.927D-03      0.485D-03      -267.37344712    561.968919   -0.92689   -0.32040   -0.30378    4
    6      0.583D-03      0.271D-03      -267.37536787    561.936656   -0.88573   -0.31399   -0.30174    5
    7      0.484D-03      0.133D-03      -267.37570639    561.922374   -0.89544   -0.30242   -0.29359    6
    8      0.258D-03      0.354D-04      -267.37572795    561.919679   -0.89515   -0.29917   -0.29208    7
    9      0.841D-04      0.188D-04      -267.37573873    561.919914   -0.89763   -0.29970   -0.29213    8
   10      0.446D-04      0.821D-05      -267.37574055    561.919807   -0.89877   -0.29907   -0.29184    9
   11      0.200D-04      0.321D-05      -267.37574080    561.919739   -0.89940   -0.29891   -0.29167    9
   12      0.784D-05      0.148D-05      -267.37574086    561.919964   -0.89954   -0.29900   -0.29171    9
   13      0.370D-05      0.525D-06      -267.37574087    561.920018   -0.89955   -0.29906   -0.29174    9
   14      0.148D-05      0.297D-06      -267.37574087    561.920016   -0.89954   -0.29908   -0.29174    9
   15      0.813D-06      0.144D-06      -267.37574087    561.920023   -0.89954   -0.29909   -0.29175    9
   16      0.409D-06      0.729D-07      -267.37574087    561.920026   -0.89953   -0.29909   -0.29175    9
   17      0.170D-06      0.334D-07      -267.37574087    561.920021   -0.89953   -0.29909   -0.29175    9
   18      0.112D-06      0.195D-07      -267.37574087    561.920019   -0.89953   -0.29909   -0.29175    9
   19      0.619D-07      0.106D-07      -267.37574087    561.920021   -0.89953   -0.29909   -0.29175    9
   20      0.495D-07      0.776D-08      -267.37574087    561.920020   -0.89953   -0.29909   -0.29175    9
   21      0.445D-07      0.655D-08      -267.37574087    561.920020   -0.89953   -0.29909   -0.29175    9
   22      0.570D-07      0.539D-08      -267.37574087    561.920021   -0.89953   -0.29909   -0.29175    9
   23      0.804D-07      0.357D-08      -267.37574087    561.920022   -0.89953   -0.29909   -0.29175    9
   24      0.711D-07      0.223D-08      -267.37574087    561.920022   -0.89953   -0.29909   -0.29175    9
   25      0.403D-07      0.973D-09      -267.37574087    561.920022   -0.89953   -0.29909   -0.29175    9
   26      0.165D-07      0.413D-09      -267.37574087    561.920022   -0.89953   -0.29909   -0.29175    9
   27      0.185D-08      0.198D-09      -267.37574087    561.920022   -0.89953   -0.29909   -0.29175    9
   28      0.799D-09      0.913D-10      -267.37574087    561.920022   -0.89953   -0.29909   -0.29175    9
   29      0.545D-09      0.480D-10      -267.37574087    561.920022   -0.89953   -0.29909   -0.29175    9
   30      0.165D-09      0.236D-10      -267.37574087    561.920022   -0.89953   -0.29909   -0.29175    9
   31      0.674D-10      0.190D-10      -267.37574087    561.920022   -0.89953   -0.29909   -0.29175    0

 Final alpha occupancy:  21
 Final beta  occupancy:  20

 !RHF STATE 1.1 Energy               -267.375740871787
 Nuclear energy                       186.69483020
 One-electron energy                 -735.03058205
 Two-electron energy                  280.96001098
 Virial quotient                       -1.00113208
 !RHF STATE 1.1 Dipole moment          -0.89952965    -0.29908676    -0.29174558
 Dipole moment /Debye                  -2.28622658    -0.76015292    -0.74149474

 Orbital energies:

         1.1          2.1          3.1          4.1          5.1          6.1          7.1          8.1          9.1         10.1
    -20.648527   -20.640180   -11.297114   -11.228814   -11.225125    -1.522625    -1.170350    -1.035674    -0.953499    -0.818899

        11.1         12.1         13.1         14.1         15.1         16.1         17.1         18.1         19.1         20.1
     -0.695042    -0.667776    -0.652270    -0.595649    -0.563386    -0.558036    -0.544670    -0.501470    -0.490239    -0.464580

        21.1         22.1         23.1
     -0.562710     0.137616     0.174801


 **********************************************************************************************************************************
 DATASETS  * FILE   NREC   LENGTH (MB)   RECORD NAMES
              1      18        5.04       500      610      700      900      950      970     1000      129      960     1100   
                                          VAR    BASINP    GEOM    SYMINP    ZMAT    AOBASIS   BASIS     P2S    ABASIS      S 
                                         1400     1410     1200     1210     1080     1600     1650     1700   
                                           T        V       H0       H01     AOSYM     SMH    MOLCAS    OPER   

              2       3        2.21       700     1000     2100   
                                         GEOM     BASIS     RHF  

 PROGRAMS   *        TOTAL       RHF       INT
 CPU TIMES  *        76.55     48.28     28.22
 REAL TIME  *        93.69 SEC
 DISK USED  *         8.88 GB      
 SF USED    *         0.25 MB      
 GA USED    *         0.01 MB       (max)       0.00 MB       (current)
 **********************************************************************************************************************************


1PROGRAM * CCSD (Unrestricted open-shell coupled cluster)     Authors: C. Hampel, H.-J. Werner, 1991, M. Deegan, P.J. Knowles, 1992


 Convergence thresholds:  THRVAR = 1.00D-08  THRDEN = 1.00D-10

 CCSD(T)     terms to be evaluated (factor= 1.000)


 Number of core orbitals:           5 (   5 )
 Number of closed-shell orbitals:  15 (  15 )
 Number of active  orbitals:        1 (   1 )
 Number of external orbitals:     227 ( 227 )

 Memory could be reduced to 332.02 Mwords without degradation in triples

 Number of N-1 electron functions:              31
 Number of N-2 electron functions:             465
 Number of singly external CSFs:              7068
 Number of doubly external CSFs:          18353430
 Total number of CSFs:                    18360498

 Molecular orbitals read from record     2100.2  Type=RHF/CANONICAL (state 1.1)

 Integral transformation finished. Total CPU:  27.77 sec, npass=  1  Memory used: 145.25 MW

 Starting RMP2 calculation

 ITER.      SQ.NORM     CORR.ENERGY   TOTAL ENERGY   ENERGY CHANGE        DEN1      VAR(S)    VAR(P)  DIIS     TIME
   1      1.26539365    -0.96778220  -268.34352307    -0.96778220    -0.00323752  0.26D-04  0.11D-02  1  1    31.76
   2      1.26817971    -0.97127307  -268.34701394    -0.00349087    -0.00000668  0.10D-05  0.23D-05  2  2    34.86
   3      1.26825979    -0.97132605  -268.34706693    -0.00005299    -0.00000008  0.53D-07  0.11D-07  3  3    38.68
   4      1.26826149    -0.97132586  -268.34706673     0.00000019    -0.00000000  0.16D-08  0.12D-09  4  4    42.56
   5      1.26826175    -0.97132595  -268.34706682    -0.00000009    -0.00000000  0.19D-10  0.46D-11  5  5    46.46
   6      1.26826181    -0.97132598  -268.34706685    -0.00000003    -0.00000000  0.50D-13  0.56D-13  6  6    50.34
   7      1.26826181    -0.97132598  -268.34706685     0.00000000    -0.00000000  0.15D-14  0.86D-15  6  1    54.31
   8      1.26826181    -0.97132598  -268.34706685     0.00000000    -0.00000000  0.16D-16  0.79D-17  6  2    58.27
   9      1.26826181    -0.97132598  -268.34706685    -0.00000000    -0.00000000  0.31D-18  0.10D-18  6  3    62.42

 Norm of t1 vector:      0.04589908      S-energy:    -0.00446845      T1 diagnostic:  0.00074377
 Norm of t2 vector:      0.51590220      P-energy:    -0.96685753
                                         Alpha-Beta:  -0.73717891
                                         Alpha-Alpha: -0.11902632
                                         Beta-Beta:   -0.11065229

 Spin contamination <S**2-Sz**2-Sz>     0.00145428
  Reference energy                   -267.375740871785
  RHF-RMP2 correlation energy          -0.971325977842
 !RHF-RMP2 energy                    -268.347066849628

 Starting UCCSD calculation

 ITER.      SQ.NORM     CORR.ENERGY   TOTAL ENERGY   ENERGY CHANGE        DEN1      VAR(S)    VAR(P)  DIIS     TIME
   1      1.27981660    -0.97937134  -268.35511221    -0.97937134    -0.02935150  0.65D-02  0.54D-02  1  1   147.15
   2      1.30623499    -1.00600449  -268.38174536    -0.02663315    -0.00364078  0.62D-03  0.97D-03  2  2   228.32
   3      1.32291530    -1.01283486  -268.38857573    -0.00683037    -0.00091394  0.75D-03  0.76D-04  3  3   309.73
   4      1.33418827    -1.01550021  -268.39124108    -0.00266535    -0.00038581  0.31D-03  0.33D-04  4  4   391.22
   5      1.34929856    -1.01750180  -268.39324267    -0.00200159    -0.00011796  0.10D-03  0.90D-05  5  5   472.97
   6      1.36084767    -1.01852628  -268.39426716    -0.00102448    -0.00001810  0.92D-05  0.32D-05  6  6   555.09
   7      1.36452620    -1.01876612  -268.39450700    -0.00023984    -0.00000316  0.16D-05  0.61D-06  6  1   637.12
   8      1.36513053    -1.01880828  -268.39454915    -0.00004216    -0.00000067  0.27D-06  0.15D-06  6  2   718.98
   9      1.36545139    -1.01882676  -268.39456763    -0.00001848    -0.00000015  0.66D-07  0.32D-07  6  4   801.11
  10      1.36543783    -1.01882549  -268.39456636     0.00000127    -0.00000002  0.11D-07  0.43D-08  6  3   883.89
  11      1.36550059    -1.01883062  -268.39457149    -0.00000512    -0.00000000  0.26D-08  0.96D-09  6  5   966.62
  12      1.36549310    -1.01882812  -268.39456899     0.00000249    -0.00000000  0.12D-08  0.22D-09  6  6  1048.57
  13      1.36548866    -1.01882696  -268.39456783     0.00000117    -0.00000000  0.75D-09  0.61D-10  6  1  1130.54
  14      1.36547553    -1.01882542  -268.39456630     0.00000153    -0.00000000  0.51D-09  0.26D-10  6  2  1213.10
  15      1.36546913    -1.01882466  -268.39456553     0.00000077    -0.00000000  0.42D-09  0.20D-10  6  3  1295.27
  16      1.36546586    -1.01882449  -268.39456536     0.00000017    -0.00000000  0.30D-09  0.17D-10  6  4  1377.94
  17      1.36546541    -1.01882451  -268.39456538    -0.00000002    -0.00000000  0.14D-09  0.16D-10  6  5  1460.26
  18      1.36546872    -1.01882473  -268.39456560    -0.00000022    -0.00000000  0.29D-10  0.62D-11  6  6  1542.16
  19      1.36547210    -1.01882507  -268.39456594    -0.00000034    -0.00000000  0.26D-11  0.18D-11  6  2  1624.55
  20      1.36547153    -1.01882493  -268.39456580     0.00000013    -0.00000000  0.63D-12  0.17D-12  6  1  1706.65
  21      1.36547183    -1.01882498  -268.39456585    -0.00000004    -0.00000000  0.22D-12  0.61D-13  6  4  1788.96
  22      1.36547176    -1.01882497  -268.39456584     0.00000001    -0.00000000  0.62D-13  0.14D-13  6  3  1870.73
  23      1.36547177    -1.01882497  -268.39456584    -0.00000001    -0.00000000  0.18D-13  0.59D-14  6  6  1952.48
  24      1.36547176    -1.01882497  -268.39456584     0.00000000    -0.00000000  0.17D-14  0.58D-15  6  1  2034.71
  25      1.36547176    -1.01882497  -268.39456584     0.00000000    -0.00000000  0.65D-15  0.17D-15  6  5  2116.49
  26      1.36547177    -1.01882497  -268.39456584    -0.00000000    -0.00000000  0.18D-15  0.69D-16  6  2  2198.46
  27      1.36547178    -1.01882497  -268.39456584    -0.00000000    -0.00000000  0.46D-16  0.94D-17  6  4  2280.51
  28      1.36547179    -1.01882497  -268.39456584    -0.00000000    -0.00000000  0.11D-16  0.39D-17  6  3  2362.75
  29      1.36547179    -1.01882497  -268.39456584    -0.00000000    -0.00000000  0.46D-17  0.75D-18  6  6  2444.68
  30      1.36547179    -1.01882497  -268.39456584     0.00000000    -0.00000000  0.32D-17  0.28D-18  6  1  2526.99

 Norm of t1 vector:      0.23142457      S-energy:    -0.00501607      T1 diagnostic:  0.02851851
                                                                       D1 diagnostic:  0.14607146
 Norm of t2 vector:      0.55849302      P-energy:    -1.01380890
                                         Alpha-Beta:  -0.80144129
                                         Alpha-Alpha: -0.10870979
                                         Beta-Beta:   -0.10365782

 Singles amplitudes (print threshold =  0.500E-01):

         I         SYM. A    A   T(IA) [Beta-Beta]

         8         1         1     -0.09552144
         9         1         1      0.09944897
        11         1         1     -0.05533292
        12         1         1     -0.07657710
        14         1         1     -0.11049690

 Spin contamination <S**2-Sz**2-Sz>     0.00176218

 Memory could be reduced to 360.52 Mwords without degradation in triples
 

 RESULTS
 =======

  Reference energy                   -267.375740871785
  UCCSD singles energy                 -0.005016072315
  UCCSD pair energy                    -1.013808898203
  UCCSD correlation energy             -1.018824970518
  Triples (T) contribution             -0.040854063413
  Total correlation energy             -1.059679033931
 
  RHF-UCCSD energy                   -268.394565842304
  RHF-UCCSD[T] energy                -268.438751470026
  RHF-UCCSD-T energy                 -268.434921487162
 !RHF-UCCSD(T) energy                -268.435419905716

 Program statistics:

 Available memory in ccsd:               999997692
 Min. memory needed in ccsd:              51505734
 Max. memory used in ccsd:                74803578
 Max. memory used in cckext:              59475747 (30 integral passes)
 Max. memory used in cckint:             145249478 ( 1 integral passes)



 **********************************************************************************************************************************
 DATASETS  * FILE   NREC   LENGTH (MB)   RECORD NAMES
              1      18        5.04       500      610      700      900      950      970     1000      129      960     1100   
                                          VAR    BASINP    GEOM    SYMINP    ZMAT    AOBASIS   BASIS     P2S    ABASIS      S 
                                         1400     1410     1200     1210     1080     1600     1650     1700   
                                           T        V       H0       H01     AOSYM     SMH    MOLCAS    OPER   

              2       3        2.21       700     1000     2100   
                                         GEOM     BASIS     RHF  

 PROGRAMS   *        TOTAL  UCCSD(T)       RHF       INT
 CPU TIMES  *      4181.92   4105.37     48.28     28.22
 REAL TIME  *      4308.07 SEC
 DISK USED  *        15.85 GB      
 SF USED    *         6.57 GB      
 GA USED    *         0.01 MB       (max)       0.00 MB       (current)
 **********************************************************************************************************************************

        UCCSD(T)        RHF-SCF 
   -268.43541991   -267.37574087
 **********************************************************************************************************************************
 Variable memory released
