
    -----------------------------------------------------------------------
          Psi4: An Open-Source Ab Initio Electronic Structure Package
                               Psi4 1.4a2.dev629 

                         Git: Rev {master} 2938fc2 dirty


    D. G. A. Smith, L. A. Burns, A. C. Simmonett, R. M. Parrish,
    M. C. Schieber, R. Galvelis, P. Kraus, H. Kruse, R. Di Remigio,
    A. Alenaizan, A. M. James, S. Lehtola, J. P. Misiewicz, M. Scheurer,
    R. A. Shaw, J. B. Schriber, Y. Xie, Z. L. Glick, D. A. Sirianni,
    J. S. O'Brien, J. M. Waldrop, A. Kumar, E. G. Hohenstein,
    B. P. Pritchard, B. R. Brooks, H. F. Schaefer III, A. Yu. Sokolov,
    K. Patkowski, A. E. DePrince III, U. Bozkaya, R. A. King,
    F. A. Evangelista, J. M. Turney, T. D. Crawford, C. D. Sherrill,
    J. Chem. Phys. 152(18) 184108 (2020). https://doi.org/10.1063/5.0006002

                            Additional Code Authors
    E. T. Seidl, C. L. Janssen, E. F. Valeev, M. L. Leininger,
    J. F. Gonthier, R. M. Richard, H. R. McAlexander, M. Saitow, X. Wang,
    P. Verma, and M. H. Lechner

             Previous Authors, Complete List of Code Contributors,
                       and Citations for Specific Modules
    https://github.com/psi4/psi4/blob/master/codemeta.json
    https://github.com/psi4/psi4/graphs/contributors
    http://psicode.org/psi4manual/master/introduction.html#citing-psifour

    -----------------------------------------------------------------------


    Psi4 started on: Wednesday, 21 September 2022 04:30PM

    Process ID: 117374
    Host:       n073
    PSIDATADIR: /opt/psi/4/master/share/psi4
    Memory:     500.0 MiB
    Threads:    1
    
  ==> Input File <==

--------------------------------------------------------------------------
# o-Benzyne preliminary computations

memory 14 gb

molecule {
  0 1
  units bohr
 C   -1.3758877784   -0.0257410908   -0.0000031460
 O    1.3053926116    0.1194403538   -0.0000014442
 H   -2.0805018239    1.9076739472   -0.0000695356
 H   -2.1070637048   -0.9764712124    1.6853301354
 H   -2.1070449384   -0.9766181764   -1.6852603522
 H    1.9413814740   -1.5784159414   -0.0000040675
}

set {
  basis cc-pvtz
  reference rhf
  e_convergence 10 
  d_convergence 10
  r_convergence 8
  maxiter 300
  freeze_core True
}

e, wfn = energy('ccsd(t)', return_wfn = True)
psi4.print_out('Giraffe The Energy is %.12f \n'%(e))
--------------------------------------------------------------------------

  Memory set to  13.039 GiB by Python driver.

Scratch directory: /tmp/

*** tstart() called on n073
*** at Wed Sep 21 16:30:52 2022

   => Loading Basis Set <=

    Name: CC-PVTZ
    Role: ORBITAL
    Keyword: BASIS
    atoms 1   entry C          line   186 file /opt/psi/4/master/share/psi4/basis/cc-pvtz.gbs 
    atoms 2   entry O          line   262 file /opt/psi/4/master/share/psi4/basis/cc-pvtz.gbs 
    atoms 3-6 entry H          line    23 file /opt/psi/4/master/share/psi4/basis/cc-pvtz.gbs 


         ---------------------------------------------------------
                                   SCF
               by Justin Turney, Rob Parrish, Andy Simmonett
                          and Daniel G. A. Smith
                              RHF Reference
                        1 Threads,  13351 MiB Core
         ---------------------------------------------------------

  ==> Geometry <==

    Molecular point group: c1
    Full point group: C1

    Geometry (in Bohr), charge = 0, multiplicity = 1:

       Center              X                  Y                   Z               Mass       
    ------------   -----------------  -----------------  -----------------  -----------------
         C           -1.375316273973    -0.024648462632    -0.000001125729    12.000000000000
         O            1.305964116027     0.120532981968     0.000000576071    15.994914619570
         H           -2.079930319473     1.908766575368    -0.000067515329     1.007825032230
         H           -2.106492200373    -0.975378584232     1.685332155671     1.007825032230
         H           -2.106473433973    -0.975525548232    -1.685258331929     1.007825032230
         H            1.941952978427    -1.577323313232    -0.000002047229     1.007825032230

  Running in c1 symmetry.

  Rotational constants: A =      4.28109  B =      0.82683  C =      0.79820 [cm^-1]
  Rotational constants: A = 128343.80883  B =  24787.85578  C =  23929.38167 [MHz]
  Nuclear repulsion =   40.307382878134860

  Charge       = 0
  Multiplicity = 1
  Electrons    = 18
  Nalpha       = 9
  Nbeta        = 9

  ==> Algorithm <==

  SCF Algorithm Type is PK.
  DIIS enabled.
  MOM disabled.
  Fractional occupation disabled.
  Guess Type is SAD.
  Energy threshold   = 1.00e-10
  Density threshold  = 1.00e-10
  Integral threshold = 0.00e+00

  ==> Primary Basis <==

  Basis Set: CC-PVTZ
    Blend: CC-PVTZ
    Number of shells: 44
    Number of basis function: 116
    Number of Cartesian functions: 130
    Spherical Harmonics?: true
    Max angular momentum: 3

  ==> Integral Setup <==

  Using in-core PK algorithm.
   Calculation information:
      Number of atoms:                   6
      Number of AO shells:              44
      Number of primitives:             84
      Number of atomic orbitals:       130
      Number of basis functions:       116

      Integral cutoff                 1.00e-12
      Number of threads:                 1

  Performing in-core PK
  Using 46056582 doubles for integral storage.
  We computed 490473 shell quartets total.
  Whereas there are 490545 unique shell quartets.

  ==> DiskJK: Disk-Based J/K Matrices <==

    J tasked:                  Yes
    K tasked:                  Yes
    wK tasked:                  No
    Memory [MiB]:            10013
    Schwarz Cutoff:          1E-12

    OpenMP threads:              1

  Minimum eigenvalue in the overlap matrix is 1.8515186581E-03.
  Reciprocal condition number of the overlap matrix is 2.7999412461E-04.
    Using symmetric orthogonalization.

  ==> Pre-Iterations <==

  SCF Guess: Superposition of Atomic Densities via on-the-fly atomic UHF (no occupation information).

   -------------------------
    Irrep   Nso     Nmo    
   -------------------------
     A        116     116 
   -------------------------
    Total     116     116
   -------------------------

  ==> Iterations <==

                        Total Energy        Delta E     RMS |[F,P]|

   @RHF iter SAD:  -114.41423700970847   -1.14414e+02   0.00000e+00 
   @RHF iter   1:  -115.01448873633974   -6.00252e-01   3.41292e-03 DIIS
   @RHF iter   2:  -115.07131635587707   -5.68276e-02   1.95528e-03 DIIS
   @RHF iter   3:  -115.08815714762598   -1.68408e-02   3.00892e-04 DIIS
   @RHF iter   4:  -115.08904115131632   -8.84004e-04   8.77320e-05 DIIS
   @RHF iter   5:  -115.08911459624584   -7.34449e-05   2.14285e-05 DIIS
   @RHF iter   6:  -115.08911945390598   -4.85766e-06   4.73698e-06 DIIS
   @RHF iter   7:  -115.08911982133107   -3.67425e-07   1.09896e-06 DIIS
   @RHF iter   8:  -115.08911984288730   -2.15562e-08   2.26848e-07 DIIS
   @RHF iter   9:  -115.08911984379745   -9.10148e-10   4.21611e-08 DIIS
   @RHF iter  10:  -115.08911984382718   -2.97291e-11   1.08714e-08 DIIS
   @RHF iter  11:  -115.08911984382922   -2.04636e-12   2.22886e-09 DIIS
   @RHF iter  12:  -115.08911984382938   -1.56319e-13   3.99150e-10 DIIS
   @RHF iter  13:  -115.08911984382937    1.42109e-14   7.36549e-11 DIIS
  Energy and wave function converged.


  ==> Post-Iterations <==

    Orbital Energies [Eh]
    ---------------------

    Doubly Occupied:                                                      

       1A    -20.552510     2A    -11.269734     3A     -1.354000  
       4A     -0.923071     5A     -0.687539     6A     -0.618097  
       7A     -0.590048     8A     -0.501628     9A     -0.449304  

    Virtual:                                                              

      10A      0.138459    11A      0.178609    12A      0.220021  
      13A      0.223855    14A      0.290337    15A      0.386580  
      16A      0.404830    17A      0.544595    18A      0.582873  
      19A      0.623382    20A      0.624829    21A      0.637885  
      22A      0.689673    23A      0.704447    24A      0.720613  
      25A      0.833258    26A      0.864522    27A      0.871982  
      28A      0.927909    29A      1.067721    30A      1.100392  
      31A      1.177614    32A      1.188744    33A      1.261599  
      34A      1.272859    35A      1.282591    36A      1.363115  
      37A      1.446656    38A      1.491802    39A      1.521701  
      40A      1.545205    41A      1.582894    42A      1.619103  
      43A      1.773132    44A      2.092354    45A      2.179732  
      46A      2.197253    47A      2.299187    48A      2.322580  
      49A      2.489720    50A      2.511373    51A      2.578476  
      52A      2.805203    53A      2.949904    54A      3.054785  
      55A      3.108624    56A      3.115218    57A      3.145607  
      58A      3.222086    59A      3.242458    60A      3.312378  
      61A      3.313318    62A      3.342126    63A      3.383455  
      64A      3.500154    65A      3.612390    66A      3.633183  
      67A      3.697467    68A      3.706123    69A      3.744852  
      70A      3.759212    71A      3.814367    72A      3.835640  
      73A      3.904156    74A      4.011885    75A      4.027640  
      76A      4.118023    77A      4.159394    78A      4.168248  
      79A      4.246174    80A      4.254526    81A      4.284567  
      82A      4.396868    83A      4.435089    84A      4.463514  
      85A      4.554572    86A      4.579665    87A      4.709950  
      88A      4.779321    89A      4.991007    90A      5.030008  
      91A      5.052530    92A      5.197415    93A      5.263916  
      94A      5.309411    95A      5.365188    96A      5.437029  
      97A      5.539117    98A      5.541062    99A      5.557871  
     100A      5.785884   101A      5.942849   102A      6.189129  
     103A      6.205439   104A      6.240947   105A      6.424027  
     106A      6.635961   107A      6.994480   108A      7.125541  
     109A      7.175913   110A      7.235797   111A      7.353029  
     112A      7.428059   113A      7.594319   114A      7.907724  
     115A     12.127518   116A     13.688307  

    Final Occupation by Irrep:
              A 
    DOCC [     9 ]

  @RHF Final Energy:  -115.08911984382937

   => Energetics <=

    Nuclear Repulsion Energy =             40.3073828781348595
    One-Electron Energy =                -236.9011409261651124
    Two-Electron Energy =                  81.5046382042008872
    Total Energy =                       -115.0891198438293657

Computation Completed


Properties will be evaluated at   0.000000,   0.000000,   0.000000 [a0]

Properties computed using the SCF density matrix

  Nuclear Dipole Moment: [e a0]
     X:    -2.1551      Y:    -0.8031      Z:     0.0000

  Electronic Dipole Moment: [e a0]
     X:     1.7677      Y:     0.2154      Z:    -0.0000

  Dipole Moment: [e a0]
     X:    -0.3874      Y:    -0.5877      Z:    -0.0000     Total:     0.7039

  Dipole Moment: [D]
     X:    -0.9847      Y:    -1.4938      Z:    -0.0000     Total:     1.7891


*** tstop() called on n073 at Wed Sep 21 16:30:56 2022
Module time:
	user time   =       3.36 seconds =       0.06 minutes
	system time =       0.04 seconds =       0.00 minutes
	total time  =          4 seconds =       0.07 minutes
Total time:
	user time   =       3.36 seconds =       0.06 minutes
	system time =       0.04 seconds =       0.00 minutes
	total time  =          4 seconds =       0.07 minutes
 MINTS: Wrapper to libmints.
   by Justin Turney

   Calculation information:
      Number of threads:                 1
      Number of atoms:                   6
      Number of AO shells:              44
      Number of SO shells:              44
      Number of primitives:             84
      Number of atomic orbitals:       130
      Number of basis functions:       116

      Number of irreps:                  1
      Integral cutoff                 0.00e+00
      Number of functions per irrep: [ 116 ]

 OEINTS: Overlap, kinetic, potential, dipole, and quadrupole integrals
         stored in file 35.

      Computing two-electron integrals...done
      Computed 22872195 non-zero two-electron integrals.
        Stored in file 33.


*** tstart() called on n073
*** at Wed Sep 21 16:30:57 2022


	Wfn Parameters:
	--------------------
	Wavefunction         = CCSD_T
	Number of irreps     = 1
	Number of MOs        = 116
	Number of active MOs = 114
	AO-Basis             = NONE
	Semicanonical        = false
	Reference            = RHF
	Print Level          = 1

	IRREP	# MOs	# FZDC	# DOCC	# SOCC	# VIRT	# FZVR
	-----	-----	------	------	------	------	------
	 A	   116	    2	    7	    0	    107	    0
	Transforming integrals...
	IWL integrals will be deleted.
	(OO|OO)...
	Presorting SO-basis two-electron integrals.
	Sorting File: SO Ints (nn|nn) nbuckets = 1
	Transforming the one-electron integrals and constructing Fock matrices
	Starting first half-transformation.
	Sorting half-transformed integrals.
	First half integral transformation complete.
	Starting second half-transformation.
	Two-electron integral transformation complete.
	(OO|OV)...
	Starting second half-transformation.
	Two-electron integral transformation complete.
	(OO|VV)...
	Starting second half-transformation.
	Two-electron integral transformation complete.
	(OV|OO)...
	Starting first half-transformation.
	Sorting half-transformed integrals.
	First half integral transformation complete.
	Starting second half-transformation.
	Two-electron integral transformation complete.
	(OV|OV)...
	Starting second half-transformation.
	Two-electron integral transformation complete.
	(OV|VV)...
	Starting second half-transformation.
	Two-electron integral transformation complete.
	(VV|OO)...
	Starting first half-transformation.
	Sorting half-transformed integrals.
	First half integral transformation complete.
	Starting second half-transformation.
	Two-electron integral transformation complete.
	(VV|OV)...
	Starting second half-transformation.
	Two-electron integral transformation complete.
	(VV|VV)...
	Starting second half-transformation.
	Two-electron integral transformation complete.
	Frozen core energy     =   -106.48947078387444

	Size of irrep 0 of <ab|cd> integrals:    131.080 (MW) /   1048.637 (MB)
	Total:                                   131.080 (MW) /   1048.637 (MB)

	Size of irrep 0 of <ia|bc> integrals:      8.575 (MW) /     68.602 (MB)
	Total:                                     8.575 (MW) /     68.602 (MB)

	Size of irrep 0 of tijab amplitudes:       0.561 (MW) /      4.488 (MB)
	Total:                                     0.561 (MW) /      4.488 (MB)

	Nuclear Rep. energy          =     40.30738287813486
	SCF energy                   =   -115.08911984382937
	One-electron energy          =    -87.56668801028449
	Two-electron energy          =     38.65965607219543
	Reference energy             =   -115.08911984382864

*** tstop() called on n073 at Wed Sep 21 16:31:08 2022
Module time:
	user time   =       7.81 seconds =       0.13 minutes
	system time =       3.10 seconds =       0.05 minutes
	total time  =         11 seconds =       0.18 minutes
Total time:
	user time   =      12.71 seconds =       0.21 minutes
	system time =       3.34 seconds =       0.06 minutes
	total time  =         16 seconds =       0.27 minutes
            **************************
            *                        *
            *        CCENERGY        *
            *                        *
            **************************

    Nuclear Rep. energy (wfn)     =   40.307382878134860
    SCF energy          (wfn)     = -115.089119843829366
    Reference energy    (file100) = -115.089119843828641

    Input parameters:
    -----------------
    Wave function   =     CCSD_T
    Reference wfn   =     RHF
    Brueckner       =     No
    Memory (Mbytes) =     14000.0
    Maxiter         =    300
    R_Convergence   =     1.0e-08
    E_Convergence   =     1.0e-10
    Restart         =     Yes
    DIIS            =     Yes
    AO Basis        =     NONE
    ABCD            =     NEW
    Cache Level     =     2
    Cache Type      =     LOW
    Print Level     =     1
    Num. of threads =     1
    # Amps to Print =     10
    Print MP2 Amps? =     No
    Analyze T2 Amps =     No
    Print Pair Ener =     No
    Local CC        =     No
    SCS-MP2         =     False
    SCSN-MP2        =     False
    SCS-CCSD        =     False

MP2 correlation energy -0.4283252528819396
                Solving CC Amplitude Equations
                ------------------------------
  Iter             Energy              RMS        T1Diag      D1Diag    New D1Diag    D2Diag
  ----     ---------------------    ---------   ----------  ----------  ----------   --------
     0        -0.428325252881940    0.000e+00    0.000000    0.000000    0.000000    0.128389
     1        -0.435613702892206    4.784e-02    0.007305    0.014795    0.014795    0.129726
     2        -0.445448358803299    1.576e-02    0.007422    0.014730    0.014730    0.135518
     3        -0.446918446633170    5.529e-03    0.008327    0.016851    0.016851    0.136963
     4        -0.446826807877919    1.220e-03    0.008387    0.016996    0.016996    0.137200
     5        -0.446869722810796    4.458e-04    0.008426    0.017143    0.017143    0.137303
     6        -0.446877222663237    1.284e-04    0.008438    0.017200    0.017200    0.137311
     7        -0.446874728027396    4.764e-05    0.008440    0.017217    0.017217    0.137308
     8        -0.446874756705642    1.755e-05    0.008442    0.017227    0.017227    0.137308
     9        -0.446874838994466    4.966e-06    0.008442    0.017229    0.017229    0.137308
    10        -0.446874588938708    1.573e-06    0.008442    0.017229    0.017229    0.137308
    11        -0.446874654404661    4.896e-07    0.008442    0.017229    0.017229    0.137308
    12        -0.446874639633722    1.200e-07    0.008442    0.017229    0.017229    0.137308
    13        -0.446874643138500    4.347e-08    0.008442    0.017229    0.017229    0.137308
    14        -0.446874644351356    1.231e-08    0.008442    0.017229    0.017229    0.137308
    15        -0.446874644390918    5.123e-09    0.008442    0.017229    0.017229    0.137308
    16        -0.446874644413842    1.575e-09    0.008442    0.017229    0.017229    0.137308

    Iterations converged.


    Largest TIA Amplitudes:
              3   6        -0.0081137454
              3  14         0.0076018161
              6  14        -0.0067497771
              3   9         0.0066936743
              4   7         0.0058751012
              5   8         0.0058474761
              4   3        -0.0057865246
              6   6         0.0054801485
              3   2         0.0054340970
              4   5        -0.0051575977

    Largest TIjAb Amplitudes:
      3   3   9   9        -0.0231621011
      4   4   7   7        -0.0215539827
      6   6  14  14        -0.0211244062
      5   5  12  12        -0.0203653538
      2   2   7   7        -0.0190810282
      4   4   8   8        -0.0160709404
      3   3  14  14        -0.0151891959
      3   3   2   9        -0.0151119595
      3   3   9   2        -0.0151119595
      5   5   7   7        -0.0149956953

    SCF energy       (wfn)                    = -115.089119843829366
    Reference energy (file100)                = -115.089119843828641

    Opposite-spin MP2 correlation energy      =   -0.330125973662104
    Same-spin MP2 correlation energy          =   -0.098199279219835
    Singles MP2 correlation energy            =   -0.000000000000000
    MP2 correlation energy                    =   -0.428325252881940
      * MP2 total energy                      = -115.517445096710574

    Opposite-spin CCSD correlation energy     =   -0.357714293908919
    Same-spin CCSD correlation energy         =   -0.089160350504923
    Singles CCSD correlation energy           =    0.000000000000000
    CCSD correlation energy                   =   -0.446874644413842
      * CCSD total energy                     = -115.535994488242480

            **************************
            *                        *
            *        CCTRIPLES       *
            *                        *
            **************************


    Wave function   =    CCSD_T
    Reference wfn   =      RHF

    Nuclear Rep. energy (wfn)                =   40.307382878134860
    SCF energy          (wfn)                = -115.089119843829366
    Reference energy    (file100)            = -115.089119843828641
    CCSD energy         (file100)            =   -0.446874644413842
    Total CCSD energy   (file100)            = -115.535994488242480

    Number of ijk index combinations:               84
    Memory available in words        :      1750000000
    ~Words needed per explicit thread:         4900172
    Number of threads for explicit ijk threading:    1

    MKL num_threads set to 1 for explicit threading.

    (T) energy                                =   -0.014788837646978
      * CCSD(T) total energy                  = -115.550783325889455

Giraffe The Energy is -115.550783325889 

    Psi4 stopped on: Wednesday, 21 September 2022 04:31PM
    Psi4 wall time for execution: 0:00:44.37

*** Psi4 exiting successfully. Buy a developer a beer!
