
 Primary working directories    : /tmp/601555.136.gen6.q
 Secondary working directories  : /tmp/601555.136.gen6.q
 Wavefunction directory         : /home/vulcan/mel64643/wfu/
 Main file repository           : /tmp/601555.136.gen6.q/

 ARCHNAME  : Linux/x86_64
 FC        : /opt/intel/compilers_and_libraries_2016.1.150/linux/bin/intel64/ifort
 FCVERSION : 16.0.1
 BLASLIB   : -mkl
 id        : ccgc

 Nodes     nprocs
 n083         1
 ga_uses_ma=false, calling ma_init with nominal heap.
 GA-space will be limited to   8.0 MW (determined by -G option)

 Using customized tuning parameters: mindgm=10; mindgv=16; mindgc=4; mindgr=1; noblas=0; mincuda=1000; minvec=7
 default implementation of scratch files=df  

 ***,Optimization of min3
 memory,1000,m
 gthresh,energy=1.0d-12,orbital=1.0d-10,oneint=1.0d-16,twoint=1.0d-16,optgrad=1.0d-6,compress=1.0d-13
 geomtyp=xyz
 
  bohr
  geometry = {
  6
  arbitrary comment
  C   -1.3783301827   -0.0259745607    0.0000003756
  O    1.3068575872    0.1175408018    0.0000003073
  H   -2.0781918401    1.9173046467   -0.0000802830
  H   -2.1146797774   -0.9807207002    1.6781230094
  H   -2.1146730418   -0.9808514441   -1.6780505171
  H    1.9552930948   -1.5774308634   -0.0000013023
 }
 
 basis=cc-pvdz
 {rhf;maxit,200}
 {ccsd(t);maxit,200}

 Variables initialized (661), CPU time= 0.00 sec
 Commands  initialized (458), CPU time= 0.00 sec, 486 directives.
 Default parameters read. Elapsed time= 0.05 sec

 Checking input...
 Passed
1


                                         ***  PROGRAM SYSTEM MOLPRO  ***
                         Copyright, University College Cardiff Consultants Limited, 2008

                                    Version 2010.1 linked May 16 2016 07:17:05


 **********************************************************************************************************************************
 LABEL *   Optimization of min3                                                          
 Linux-4.4.3/n083(x86_64) 64 bit mpp version                                             DATE: 06-Nov-21          TIME: 15:40:16  
 **********************************************************************************************************************************

 SHA1:             9e8077add272b0f3cad6f7df79ec5211205f459d
 **********************************************************************************************************************************

 THRESHOLDS:

 ZERO    =  1.00D-12  ONEINT  =  1.00D-16  TWOINT  =  1.00D-16  PREFAC  =  1.00D-14  LOCALI  =  1.00D-09  EORDER  =  1.00D-04
 ENERGY  =  1.00D-12  ETEST   =  0.00D+00  EDENS   =  0.00D+00  THRDEDEF=  1.00D-06  GRADIENT=  1.00D-02  STEP    =  1.00D-03
 ORBITAL =  1.00D-10  CIVEC   =  1.00D-05  COEFF   =  1.00D-04  PRINTCI =  5.00D-02  PUNCHCI =  9.90D+01  OPTGRAD =  1.00D-06
 OPTENERG=  1.00D-06  OPTSTEP =  3.00D-04  THRGRAD =  1.00D-10  COMPRESS=  1.00D-13  VARMIN  =  1.00D-07  VARMAX  =  1.00D-03
 THRDOUB =  0.00D+00  THRDIV  =  1.00D-05  THRRED  =  1.00D-07  THRPSP  =  1.00D+00  THRDC   =  1.00D-10  THRCS   =  1.00D-10
 THRNRM  =  1.00D-08  THREQ   =  0.00D+00  THRDE   =  1.00D+00  THRREF  =  1.00D-05  SPARFAC =  1.00D+00  THRDLP  =  1.00D-07
 THRDIA  =  1.00D-10  THRDLS  =  1.00D-07  THRGPS  =  0.00D+00  THRKEX  =  0.00D+00  THRDIS  =  2.00D-01  THRVAR  =  1.00D-10
 THRLOC  =  1.00D-06  THRGAP  =  1.00D-06  THRLOCT = -1.00D+00  THRGAPT = -1.00D+00  THRORB  =  1.00D-06  THRMLTP =  0.00D+00
 THRCPQCI=  1.00D-10  KEXTA   =  0.00D+00  THRCOARS=  0.00D+00  SYMTOL  =  1.00D-06  GRADTOL =  1.00D-06  THROVL  =  1.00D-08
 THRORTH =  1.00D-08  GRID    =  1.00D-06  GRIDMAX =  1.00D-03  DTMAX   =  0.00D+00

 SETTING GEOMTYP        =    XYZ
 ZUNIT=BOHR
 

 Variable memory set to 1000000000 words,  buffer space   230000 words

 SETTING BASIS          =    CC-PVDZ


 Recomputing integrals since basis changed


 Using spherical harmonics

 Library entry C      S cc-pVDZ              selected for orbital group  1
 Library entry C      P cc-pVDZ              selected for orbital group  1
 Library entry C      D cc-pVDZ              selected for orbital group  1
 Library entry O      S cc-pVDZ              selected for orbital group  2
 Library entry O      P cc-pVDZ              selected for orbital group  2
 Library entry O      D cc-pVDZ              selected for orbital group  2
 Library entry H      S cc-pVDZ              selected for orbital group  3
 Library entry H      P cc-pVDZ              selected for orbital group  3

1PROGRAM * SEWARD (Integral evaluation for generally contracted gaussian basis sets)     Author: Roland Lindh, 1990

 Geometry written to block  1 of record 700


 Point group  C1  



 ATOMIC COORDINATES

 NR  ATOM    CHARGE       X              Y              Z

   1  C       6.00   -1.378330183   -0.025974561    0.000000376
   2  O       8.00    1.306857587    0.117540802    0.000000307
   3  H       1.00   -2.078191840    1.917304647   -0.000080283
   4  H       1.00   -2.114679777   -0.980720700    1.678123009
   5  H       1.00   -2.114673042   -0.980851444   -1.678050517
   6  H       1.00    1.955293095   -1.577430863   -0.000001302

 Bond lengths in Bohr (Angstrom)

 1-2  2.689020271  1-3  2.065463731  1-4  2.066360687  1-5  2.066360440  2-6  1.814772039
     ( 1.422968242)     ( 1.092996332)     ( 1.093470981)     ( 1.093470850)     ( 0.960336003)

 Bond angles

  1-2-6  107.87568279   2-1-3  106.74683478   2-1-4  112.36482384   2-1-5  112.36483166

  3-1-4  108.30018674   3-1-5  108.30002049   4-1-5  108.60279309

 NUCLEAR CHARGE:                   18
 NUMBER OF PRIMITIVE AOS:          82
 NUMBER OF SYMMETRY AOS:           80
 NUMBER OF CONTRACTIONS:           48   (  48A   )
 NUMBER OF CORE ORBITALS:           2   (   2A   )
 NUMBER OF VALENCE ORBITALS:       12   (  12A   )


 NUCLEAR REPULSION ENERGY   40.25635935


 Eigenvalues of metric

         1 0.968E-02 0.177E-01 0.370E-01 0.373E-01 0.383E-01 0.474E-01 0.478E-01 0.522E-01


 Contracted 2-electron integrals neglected if value below      1.0D-16
 AO integral compression algorithm  1   Integral accuracy      1.0D-16

     6.291 MB (compressed) written to integral file ( 98.3%)

     Node minimum: 6.291 MB, node maximum: 6.291 MB


 NUMBER OF SORTED TWO-ELECTRON INTEGRALS:     692076.     BUFFER LENGTH:  32768
 NUMBER OF SEGMENTS:   1  SEGMENT LENGTH:     692076      RECORD LENGTH: 524288

 Memory used in sort:       1.25 MW

 SORT1 READ      832256. AND WROTE      682148. INTEGRALS IN      2 RECORDS. CPU TIME:     0.01 SEC, REAL TIME:     0.01 SEC
 SORT2 READ      682148. AND WROTE      692076. INTEGRALS IN     24 RECORDS. CPU TIME:     0.01 SEC, REAL TIME:     0.02 SEC

 FILE SIZES:   FILE 1:     8.0 MBYTE,  FILE 4:     8.4 MBYTE,   TOTAL:     16.4 MBYTE

 OPERATOR DM      FOR CENTER  0  COORDINATES:    0.000000    0.000000    0.000000


 **********************************************************************************************************************************
 DATASETS  * FILE   NREC   LENGTH (MB)   RECORD NAMES
              1      19        8.03       500      610      700      900      950      970     1000      129      960     1100   
                                          VAR    BASINP    GEOM    SYMINP    ZMAT    AOBASIS   BASIS     P2S    ABASIS      S 
                                         1400     1410     1200     1210     1080     1600     1650     1300     1700   
                                           T        V       H0       H01     AOSYM     SMH    MOLCAS    ERIS     OPER   

 PROGRAMS   *        TOTAL       INT
 CPU TIMES  *         0.18      0.14
 REAL TIME  *         0.39 SEC
 DISK USED  *        23.34 MB      
 GA USED    *         0.00 MB       (max)       0.00 MB       (current)
 **********************************************************************************************************************************

1PROGRAM * RHF-SCF (CLOSED SHELL)       Authors: W. Meyer, H.-J. Werner


 NUMBER OF ELECTRONS:       9+    9-    SPACE SYMMETRY=1    SPIN SYMMETRY: Singlet 
 CONVERGENCE THRESHOLDS:    1.00E-10 (Density)    1.00E-13 (Energy)
 MAX. NUMBER OF ITERATIONS:      200
 INTERPOLATION TYPE:            DIIS
 INTERPOLATION STEPS:              2 (START)      1 (STEP)
 LEVEL SHIFTS:                  0.00 (CLOSED)  0.00 (OPEN) 



 Orbital guess generated from atomic densities. Full valence occupancy:   14

 Molecular orbital dump at record        2100.2

 ITERATION    DDIFF          GRAD             ENERGY        2-EL.EN.            DIPOLE MOMENTS         DIIS
    1      0.000D+00      0.000D+00      -115.01418069    164.297325   -0.49301   -0.89928   -0.00000    0
    2      0.000D+00      0.110D-01      -115.04249140    162.078344   -0.31533   -0.53682   -0.00000    1
    3      0.205D-01      0.530D-02      -115.04853745    163.104082   -0.39907   -0.61197   -0.00000    2
    4      0.640D-02      0.112D-02      -115.04900116    162.948050   -0.38903   -0.60112   -0.00000    3
    5      0.204D-02      0.202D-03      -115.04902214    162.954380   -0.39185   -0.59692   -0.00000    4
    6      0.432D-03      0.354D-04      -115.04902293    162.954539   -0.39216   -0.59673   -0.00000    5
    7      0.930D-04      0.736D-05      -115.04902296    162.953348   -0.39229   -0.59657   -0.00000    6
    8      0.151D-04      0.238D-05      -115.04902297    162.953729   -0.39233   -0.59654   -0.00000    7
    9      0.508D-05      0.491D-06      -115.04902297    162.953689   -0.39234   -0.59654   -0.00000    6
   10      0.142D-05      0.875D-07      -115.04902297    162.953687   -0.39234   -0.59654   -0.00000    6
   11      0.235D-06      0.329D-07      -115.04902297    162.953693   -0.39234   -0.59654   -0.00000    6
   12      0.600D-07      0.137D-07      -115.04902297    162.953691   -0.39234   -0.59654   -0.00000    7
   13      0.252D-07      0.309D-08      -115.04902297    162.953691   -0.39234   -0.59654   -0.00000    7
   14      0.765D-08      0.648D-09      -115.04902297    162.953691   -0.39234   -0.59654   -0.00000    7
   15      0.164D-08      0.151D-09      -115.04902297    162.953691   -0.39234   -0.59654   -0.00000    7
   16      0.335D-09      0.450D-10      -115.04902297    162.953691   -0.39234   -0.59654   -0.00000    7
   17      0.862D-10      0.149D-10      -115.04902297    162.953691   -0.39234   -0.59654   -0.00000    0

 Final occupancy:   9

 !RHF STATE 1.1 Energy               -115.049022965921
 Nuclear energy                        40.25635935
 One-electron energy                 -236.78222798
 Two-electron energy                   81.47684567
 Virial quotient                       -1.00101014
 !RHF STATE 1.1 Dipole moment          -0.39234271    -0.59654376    -0.00000275
 Dipole moment /Debye                  -0.99717038    -1.51616369    -0.00000699

 Orbital energies:

         1.1          2.1          3.1          4.1          5.1          6.1          7.1          8.1          9.1         10.1
    -20.549847   -11.275106    -1.348575    -0.921272    -0.682367    -0.613282    -0.583892    -0.496675    -0.443252     0.184649

        11.1
      0.223976


 **********************************************************************************************************************************
 DATASETS  * FILE   NREC   LENGTH (MB)   RECORD NAMES
              1      19        8.03       500      610      700      900      950      970     1000      129      960     1100   
                                          VAR    BASINP    GEOM    SYMINP    ZMAT    AOBASIS   BASIS     P2S    ABASIS      S 
                                         1400     1410     1200     1210     1080     1600     1650     1300     1700   
                                           T        V       H0       H01     AOSYM     SMH    MOLCAS    ERIS     OPER   

              2       3        0.39       700     1000     2100   
                                         GEOM     BASIS     RHF  

 PROGRAMS   *        TOTAL       RHF       INT
 CPU TIMES  *         0.25      0.07      0.14
 REAL TIME  *         0.48 SEC
 DISK USED  *        23.34 MB      
 GA USED    *         0.00 MB       (max)       0.00 MB       (current)
 **********************************************************************************************************************************


1PROGRAM * CCSD (Closed-shell coupled cluster)     Authors: C. Hampel, H.-J. Werner, 1991, M. Deegan, P.J. Knowles, 1992


 Convergence thresholds:  THRVAR = 1.00D-08  THRDEN = 1.00D-12

 CCSD(T)     terms to be evaluated (factor= 1.000)


 Number of core orbitals:           2 (   2 )
 Number of closed-shell orbitals:   7 (   7 )
 Number of external orbitals:      39 (  39 )

 Molecular orbitals read from record     2100.2  Type=RHF/CANONICAL (state 1.1)

 Number of N-1 electron functions:               7
 Number of N-2 electron functions:              28
 Number of singly external CSFs:               273
 Number of doubly external CSFs:             37401
 Total number of CSFs:                       37675

 Length of J-op  integral file:               0.00 MB
 Length of K-op  integral file:               0.19 MB
 Length of 3-ext integral record:             0.00 MB

 Memory could be reduced to 0.96 Mwords without degradation in triples

 Integral transformation finished. Total CPU:   0.01 sec, npass=  1  Memory used:   0.66 MW

 Reference energy:                   -115.04902297

 MP2 singlet pair energy:              -0.21871745
 MP2 triplet pair energy:              -0.11983095
 MP2 correlation energy:               -0.33854840
 MP2 total energy:                   -115.38757137

 SCS-MP2 correlation energy:           -0.33702242   (PS=  1.200000  PT=  0.333333)
 SCS-MP2 total energy:               -115.38604539

 ITER.      SQ.NORM     CORR.ENERGY   TOTAL ENERGY   ENERGY CHANGE        DEN1      VAR(S)    VAR(P)  DIIS     TIME
   1      1.10743783    -0.36135445  -115.41037742    -0.02280605    -0.01411030  0.92D-03  0.17D-02  1  1     0.04
   2      1.11598849    -0.36330531  -115.41232828    -0.00195086    -0.00926493  0.20D-04  0.16D-03  2  2     0.08
   3      1.11788233    -0.36343373  -115.41245670    -0.00012842    -0.00121031  0.96D-05  0.87D-05  3  3     0.11
   4      1.11840166    -0.36343246  -115.41245542     0.00000127    -0.00025636  0.34D-06  0.68D-06  4  4     0.14
   5      1.11850114    -0.36343286  -115.41245583    -0.00000041    -0.00003641  0.10D-06  0.50D-07  5  5     0.17
   6      1.11852062    -0.36343149  -115.41245445     0.00000138    -0.00000442  0.16D-07  0.42D-08  6  6     0.21
   7      1.11852550    -0.36343106  -115.41245402     0.00000043    -0.00000036  0.21D-08  0.74D-09  6  1     0.24
   8      1.11852680    -0.36343116  -115.41245413    -0.00000010     0.00000076  0.26D-09  0.75D-10  6  3     0.27
   9      1.11852788    -0.36343104  -115.41245400     0.00000013    -0.00000039  0.13D-10  0.11D-10  6  2     0.30
  10      1.11852781    -0.36343104  -115.41245400    -0.00000000     0.00000007  0.11D-11  0.91D-12  6  5     0.34
  11      1.11852784    -0.36343104  -115.41245400     0.00000000    -0.00000000  0.20D-12  0.52D-13  6  4     0.37
  12      1.11852782    -0.36343104  -115.41245400    -0.00000000     0.00000001  0.20D-13  0.11D-13  6  1     0.40
  13      1.11852782    -0.36343104  -115.41245400    -0.00000000    -0.00000000  0.24D-14  0.98D-15  6  6     0.43
  14      1.11852782    -0.36343104  -115.41245400     0.00000000    -0.00000000  0.23D-15  0.13D-15  6  3     0.47
  15      1.11852782    -0.36343104  -115.41245400    -0.00000000    -0.00000000  0.26D-16  0.17D-16  6  2     0.50
  16      1.11852782    -0.36343104  -115.41245400    -0.00000000    -0.00000000  0.58D-17  0.17D-17  6  5     0.53
  17      1.11852782    -0.36343104  -115.41245400    -0.00000000    -0.00000000  0.56D-18  0.26D-18  6  4     0.56
  18      1.11852782    -0.36343104  -115.41245400     0.00000000    -0.00000000  0.86D-19  0.44D-19  6  1     0.59
  19      1.11852782    -0.36343104  -115.41245400    -0.00000000    -0.00000000  0.99D-20  0.45D-20  6  6     0.63
  20      1.11852782    -0.36343104  -115.41245400     0.00000000     0.00000000  0.14D-20  0.58D-21  6  3     0.66

 Norm of t1 vector:      0.04177101      S-energy:    -0.00000000      T1 diagnostic:  0.00789398
                                                                       D1 diagnostic:  0.01764349


 Total CPU time for triples:      0.17 sec


 RESULTS
 =======

  Reference energy                   -115.049022965921
  CCSD singlet pair energy             -0.254710502303
  CCSD triplet pair energy             -0.108720536277
  CCSD correlation energy              -0.363431038581

  Triples (T) contribution             -0.007747230195
  Total correlation energy             -0.371178268776

  CCSD total energy                  -115.412454004502
  CCSD[T] energy                     -115.420492333548
  CCSD-T energy                      -115.420050705439
 !CCSD(T) total energy               -115.420201234696

 Timing summary (sec):

 STEP                 CPU(USER)    SYS     CPU(TOT)    WALL
 Transformation          0.01      0.00      0.01      0.02
 CCSD iterations         0.65      0.04      0.69      0.71
 Triples                 0.17      0.01      0.18      0.17

 Program statistics:

 Available memory in ccsd:               999999704
 Min. memory needed in ccsd:                136801
 Max. memory used in ccsd:                  163198
 Max. memory used in cckext:                182024 (20 integral passes)



 **********************************************************************************************************************************
 DATASETS  * FILE   NREC   LENGTH (MB)   RECORD NAMES
              1      20       10.56       500      610      700      900      950      970     1000      129      960     1100   
                                          VAR    BASINP    GEOM    SYMINP    ZMAT    AOBASIS   BASIS     P2S    ABASIS      S 
                                         1400     1410     1200     1210     1080     1600     1650     1300     1700     1380   
                                           T        V       H0       H01     AOSYM     SMH    MOLCAS    ERIS     OPER     JKOP   

              2       3        0.39       700     1000     2100   
                                         GEOM     BASIS     RHF  

 PROGRAMS   *        TOTAL   CCSD(T)       RHF       INT
 CPU TIMES  *         1.08      0.83      0.07      0.14
 REAL TIME  *         1.41 SEC
 DISK USED  *        24.77 MB      
 GA USED    *         0.00 MB       (max)       0.00 MB       (current)
 **********************************************************************************************************************************

        CCSD(T)         RHF-SCF 
   -115.42020123   -115.04902297
 **********************************************************************************************************************************
 Variable memory released
