
 Primary working directories    : /tmp/333988.42.gen6.q
 Secondary working directories  : /tmp/333988.42.gen6.q
 Wavefunction directory         : /home/vulcan/mel64643/wfu/
 Main file repository           : /tmp/333988.42.gen6.q/

 ARCHNAME  : Linux/x86_64
 FC        : /opt/intel/compilers_and_libraries_2016.1.150/linux/bin/intel64/ifort
 FCVERSION : 16.0.1
 BLASLIB   : -mkl
 id        : ccgc

 Nodes     nprocs
 n082         3
 Number of processes for MPI-2 version of Molpro:   nprocs(total)=    4   nprocs(compute)=    3   nprocs(helper)=    1
 ga_uses_ma=false, calling ma_init with nominal heap.
 GA-space will be limited to   8.0 MW (determined by -G option)

 Using customized tuning parameters: mindgm=10; mindgv=16; mindgc=4; mindgr=1; noblas=0; mincuda=1000; minvec=7
 default implementation of scratch files=sf  

 ***,Optimization of min3
 memory,1000,m
 gthresh,energy=1.0d-10,orbital=1.0d-10,oneint=1.0d-16,twoint=1.0d-16,optgrad=1.0d-6,compress=1.0d-13
 geomtyp=xyz
 
  bohr
  geometry = {
  12
  arbitrary comment
  C         -3.1007834342          1.5865573954          0.0214044895
  C         -0.8646024501         -0.0708245827         -0.6556533258
  C         -1.1193623002         -2.7798050429          0.2456324040
  O          1.3115097122          1.1048625484          0.5888797220
  O          3.4493241036          0.1200743666         -0.2518081035
  H         -4.8065637250          0.8597286038         -0.8816292208
  H         -2.8150551156          3.5185929130         -0.6355137315
  H         -3.3899813821          1.5839006199          2.0638575584
  H         -0.4596087621         -0.0036372418         -2.6765202061
  H         -2.6953157215         -3.6879001698         -0.7274950715
  H         -1.4534831310         -2.8259983630          2.2820195503
  H          0.6053458634         -3.8342326229         -0.1471007977
 }
 
 basis=cc-pvtz
 {rhf;maxit,200}
 {uccsd(t);maxit,200}

 Variables initialized (661), CPU time= 0.00 sec
 Commands  initialized (458), CPU time= 0.01 sec, 486 directives.
 Default parameters read. Elapsed time= 0.06 sec

 Checking input...
 Passed
1


                                         ***  PROGRAM SYSTEM MOLPRO  ***
                         Copyright, University College Cardiff Consultants Limited, 2008

                                    Version 2010.1 linked May 16 2016 07:17:05


 **********************************************************************************************************************************
 LABEL *   Optimization of min3                                                          
 Linux-4.4.3/n082(x86_64) 64 bit mpp version                                             DATE: 15-Jul-20          TIME: 16:05:07  
 **********************************************************************************************************************************

 SHA1:             9e8077add272b0f3cad6f7df79ec5211205f459d
 **********************************************************************************************************************************

 THRESHOLDS:

 ZERO    =  1.00D-12  ONEINT  =  1.00D-16  TWOINT  =  1.00D-16  PREFAC  =  1.00D-14  LOCALI  =  1.00D-09  EORDER  =  1.00D-04
 ENERGY  =  1.00D-10  ETEST   =  0.00D+00  EDENS   =  0.00D+00  THRDEDEF=  1.00D-06  GRADIENT=  1.00D-02  STEP    =  1.00D-03
 ORBITAL =  1.00D-10  CIVEC   =  1.00D-05  COEFF   =  1.00D-04  PRINTCI =  5.00D-02  PUNCHCI =  9.90D+01  OPTGRAD =  1.00D-06
 OPTENERG=  1.00D-06  OPTSTEP =  3.00D-04  THRGRAD =  1.00D-10  COMPRESS=  1.00D-13  VARMIN  =  1.00D-07  VARMAX  =  1.00D-03
 THRDOUB =  0.00D+00  THRDIV  =  1.00D-05  THRRED  =  1.00D-07  THRPSP  =  1.00D+00  THRDC   =  1.00D-10  THRCS   =  1.00D-10
 THRNRM  =  1.00D-08  THREQ   =  0.00D+00  THRDE   =  1.00D+00  THRREF  =  1.00D-05  SPARFAC =  1.00D+00  THRDLP  =  1.00D-07
 THRDIA  =  1.00D-10  THRDLS  =  1.00D-07  THRGPS  =  0.00D+00  THRKEX  =  0.00D+00  THRDIS  =  2.00D-01  THRVAR  =  1.00D-10
 THRLOC  =  1.00D-06  THRGAP  =  1.00D-06  THRLOCT = -1.00D+00  THRGAPT = -1.00D+00  THRORB  =  1.00D-06  THRMLTP =  0.00D+00
 THRCPQCI=  1.00D-10  KEXTA   =  0.00D+00  THRCOARS=  0.00D+00  SYMTOL  =  1.00D-06  GRADTOL =  1.00D-06  THROVL  =  1.00D-08
 THRORTH =  1.00D-08  GRID    =  1.00D-06  GRIDMAX =  1.00D-03  DTMAX   =  0.00D+00

 SETTING GEOMTYP        =    XYZ
 ZUNIT=BOHR
 

 Variable memory set to 1000000000 words,  buffer space   230000 words

 SETTING BASIS          =    CC-PVTZ


 Recomputing integrals since basis changed


 Using spherical harmonics

 Library entry C      S cc-pVTZ              selected for orbital group  1
 Library entry C      P cc-pVTZ              selected for orbital group  1
 Library entry C      D cc-pVTZ              selected for orbital group  1
 Library entry C      F cc-pVTZ              selected for orbital group  1
 Library entry O      S cc-pVTZ              selected for orbital group  2
 Library entry O      P cc-pVTZ              selected for orbital group  2
 Library entry O      D cc-pVTZ              selected for orbital group  2
 Library entry O      F cc-pVTZ              selected for orbital group  2
 Library entry H      S cc-pVTZ              selected for orbital group  3
 Library entry H      P cc-pVTZ              selected for orbital group  3
 Library entry H      D cc-pVTZ              selected for orbital group  3

1PROGRAM * SEWARD (Integral evaluation for generally contracted gaussian basis sets)     Author: Roland Lindh, 1990

 Geometry written to block  1 of record 700


 Point group  C1  



 ATOMIC COORDINATES

 NR  ATOM    CHARGE       X              Y              Z

   1  C       6.00   -3.100783434    1.586557395    0.021404489
   2  C       6.00   -0.864602450   -0.070824583   -0.655653326
   3  C       6.00   -1.119362300   -2.779805043    0.245632404
   4  O       8.00    1.311509712    1.104862548    0.588879722
   5  O       8.00    3.449324104    0.120074367   -0.251808103
   6  H       1.00   -4.806563725    0.859728604   -0.881629221
   7  H       1.00   -2.815055116    3.518592913   -0.635513732
   8  H       1.00   -3.389981382    1.583900620    2.063857558
   9  H       1.00   -0.459608762   -0.003637242   -2.676520206
  10  H       1.00   -2.695315722   -3.687900170   -0.727495072
  11  H       1.00   -1.453483131   -2.825998363    2.282019550
  12  H       1.00    0.605345863   -3.834232623   -0.147100798

 Bond lengths in Bohr (Angstrom)

 1-2  2.864581593  1-6  2.062386088  1-7  2.060568723  1-8  2.062827441  2-3  2.866320583
     ( 1.515871292)     ( 1.091367714)     ( 1.090406006)     ( 1.091601268)     ( 1.516791526)

  2- 4  2.768856602   2- 9  2.062143781   3-10  2.062824042   3-11  2.064132545   3-12  2.059289960
       ( 1.465215809)       ( 1.091239491)       ( 1.091599469)       ( 1.092291899)       ( 1.089729313)

 4-5  2.499362750
     ( 1.322605804)

 Bond angles

  1-2-3  113.77308288   1-2-4  105.16566902   1-2-9  111.47435137   2-1-6  109.77087126

  2- 1- 7  111.03205063   2- 1- 8  110.04241864   2- 3-10  109.61035011   2- 3-11  110.22764791

  2- 3-12  110.45796841   2- 4- 5  110.71662356   3- 2- 4  109.25804969   3- 2- 9  110.87893025

  4-2-9  105.80075308   6-1-7  107.79036744   6-1-8  108.48921861   7-1-8  109.65180514

 10- 3-11  109.38337463  10- 3-12  108.93384546  11- 3-12  108.19552537

 NUCLEAR CHARGE:                   41
 NUMBER OF PRIMITIVE AOS:         354
 NUMBER OF SYMMETRY AOS:          322
 NUMBER OF CONTRACTIONS:          248   ( 248A   )
 NUMBER OF CORE ORBITALS:           5   (   5A   )
 NUMBER OF VALENCE ORBITALS:       27   (  27A   )


 NUCLEAR REPULSION ENERGY  186.63190730


 Eigenvalues of metric

         1 0.806E-03 0.957E-03 0.110E-02 0.124E-02 0.137E-02 0.150E-02 0.160E-02 0.164E-02


 Contracted 2-electron integrals neglected if value below      1.0D-16
 AO integral compression algorithm  1   Integral accuracy      1.0D-16

     3371.958 MB (compressed) written to integral file ( 82.1%)

     Node minimum: 823.132 MB, node maximum: 1277.690 MB


 NUMBER OF SORTED TWO-ELECTRON INTEGRALS:  158903334.     BUFFER LENGTH:  32768
 NUMBER OF SEGMENTS:  10  SEGMENT LENGTH:   15997437      RECORD LENGTH: 524288

 Memory used in sort:      16.55 MW

 SORT1 READ   513516447. AND WROTE   152635644. INTEGRALS IN    442 RECORDS. CPU TIME:     8.79 SEC, REAL TIME:     9.88 SEC
 SORT2 READ   459395224. AND WROTE   476679126. INTEGRALS IN   9420 RECORDS. CPU TIME:     1.65 SEC, REAL TIME:     2.65 SEC

 Node minimum:   158882750.  Node maximum:   158903334. integrals

 OPERATOR DM      FOR CENTER  0  COORDINATES:    0.000000    0.000000    0.000000


 **********************************************************************************************************************************
 DATASETS  * FILE   NREC   LENGTH (MB)   RECORD NAMES
              1      18        5.04       500      610      700      900      950      970     1000      129      960     1100   
                                          VAR    BASINP    GEOM    SYMINP    ZMAT    AOBASIS   BASIS     P2S    ABASIS      S 
                                         1400     1410     1200     1210     1080     1600     1650     1700   
                                           T        V       H0       H01     AOSYM     SMH    MOLCAS    OPER   

 PROGRAMS   *        TOTAL       INT
 CPU TIMES  *        17.11     17.05
 REAL TIME  *        19.93 SEC
 DISK USED  *         9.11 GB      
 GA USED    *         0.01 MB       (max)       0.00 MB       (current)
 **********************************************************************************************************************************

1PROGRAM * RHF-SCF (OPEN SHELL)       Authors: W. Meyer, H.-J. Werner


 NUMBER OF ELECTRONS:      21+   20-    SPACE SYMMETRY=1    SPIN SYMMETRY: Doublet 
 CONVERGENCE THRESHOLDS:    1.00E-10 (Density)    1.00E-11 (Energy)
 MAX. NUMBER OF ITERATIONS:      200
 INTERPOLATION TYPE:            DIIS
 INTERPOLATION STEPS:              2 (START)      1 (STEP)
 LEVEL SHIFTS:                 -0.30 (CLOSED)  0.00 (OPEN) 



 Orbital guess generated from atomic densities. Full valence occupancy:   32

 Molecular orbital dump at record        2100.2

 ITERATION    DDIFF          GRAD             ENERGY        2-EL.EN.            DIPOLE MOMENTS         DIIS
    1      0.000D+00      0.000D+00      -267.26100599    559.812396   -1.77347   -0.06854   -0.09961    0
    2      0.000D+00      0.326D-02      -267.33455885    562.658578   -1.01511   -0.43084   -0.36067    1
    3      0.471D-02      0.230D-02      -267.36109347    561.611485   -1.18864   -0.24268   -0.21827    2
    4      0.211D-02      0.546D-03      -267.36933353    561.798485   -0.97727   -0.31582   -0.29911    3
    5      0.926D-03      0.485D-03      -267.37355820    561.840739   -0.92175   -0.31802   -0.30326    4
    6      0.583D-03      0.272D-03      -267.37548418    561.807935   -0.88042   -0.31147   -0.30115    5
    7      0.486D-03      0.133D-03      -267.37582106    561.793705   -0.89033   -0.29992   -0.29305    6
    8      0.258D-03      0.356D-04      -267.37584298    561.790969   -0.88994   -0.29665   -0.29155    7
    9      0.846D-04      0.189D-04      -267.37585387    561.791193   -0.89246   -0.29718   -0.29161    8
   10      0.446D-04      0.818D-05      -267.37585566    561.791096   -0.89363   -0.29655   -0.29131    9
   11      0.198D-04      0.319D-05      -267.37585591    561.791038   -0.89426   -0.29639   -0.29115    9
   12      0.782D-05      0.148D-05      -267.37585597    561.791263   -0.89440   -0.29648   -0.29119    9
   13      0.369D-05      0.528D-06      -267.37585598    561.791317   -0.89441   -0.29654   -0.29122    9
   14      0.148D-05      0.298D-06      -267.37585598    561.791315   -0.89440   -0.29656   -0.29122    9
   15      0.801D-06      0.142D-06      -267.37585598    561.791322   -0.89439   -0.29657   -0.29123    9
   16      0.398D-06      0.696D-07      -267.37585598    561.791325   -0.89439   -0.29657   -0.29123    9
   17      0.158D-06      0.313D-07      -267.37585598    561.791319   -0.89439   -0.29657   -0.29123    9
   18      0.957D-07      0.167D-07      -267.37585598    561.791317   -0.89439   -0.29657   -0.29123    9
   19      0.467D-07      0.687D-08      -267.37585598    561.791318   -0.89439   -0.29657   -0.29123    9
   20      0.171D-07      0.224D-08      -267.37585598    561.791318   -0.89439   -0.29657   -0.29123    9
   21      0.605D-08      0.131D-08      -267.37585598    561.791318   -0.89439   -0.29657   -0.29123    9
   22      0.376D-08      0.822D-09      -267.37585598    561.791318   -0.89439   -0.29657   -0.29123    9
   23      0.253D-08      0.451D-09      -267.37585598    561.791318   -0.89439   -0.29657   -0.29123    9
   24      0.170D-08      0.361D-09      -267.37585598    561.791318   -0.89439   -0.29657   -0.29123    9
   25      0.195D-08      0.298D-09      -267.37585598    561.791318   -0.89439   -0.29657   -0.29123    9
   26      0.253D-08      0.230D-09      -267.37585598    561.791318   -0.89439   -0.29657   -0.29123    9
   27      0.408D-08      0.156D-09      -267.37585598    561.791318   -0.89439   -0.29657   -0.29123    9
   28      0.347D-08      0.794D-10      -267.37585598    561.791318   -0.89439   -0.29657   -0.29123    9
   29      0.125D-08      0.426D-10      -267.37585598    561.791318   -0.89439   -0.29657   -0.29123    9
   30      0.550D-09      0.209D-10      -267.37585598    561.791318   -0.89439   -0.29657   -0.29123    9
   31      0.163D-09      0.912D-11      -267.37585598    561.791318   -0.89439   -0.29657   -0.29123    9
   32      0.714D-10      0.813D-11      -267.37585598    561.791318   -0.89439   -0.29657   -0.29123    0

 Final alpha occupancy:  21
 Final beta  occupancy:  20

 !RHF STATE 1.1 Energy               -267.375855980544
 Nuclear energy                       186.63190730
 One-electron energy                 -734.90342220
 Two-electron energy                  280.89565892
 Virial quotient                       -1.00116336
 !RHF STATE 1.1 Dipole moment          -0.89438784    -0.29656600    -0.29122651
 Dipole moment /Debye                  -2.27315824    -0.75374621    -0.74017548

 Orbital energies:

         1.1          2.1          3.1          4.1          5.1          6.1          7.1          8.1          9.1         10.1
    -20.648651   -20.640316   -11.297419   -11.229112   -11.225455    -1.523514    -1.170891    -1.034568    -0.952939    -0.819371

        11.1         12.1         13.1         14.1         15.1         16.1         17.1         18.1         19.1         20.1
     -0.695445    -0.668045    -0.652400    -0.595016    -0.563172    -0.557703    -0.544561    -0.501033    -0.489910    -0.465112

        21.1         22.1         23.1
     -0.562837     0.137677     0.174543


 **********************************************************************************************************************************
 DATASETS  * FILE   NREC   LENGTH (MB)   RECORD NAMES
              1      18        5.04       500      610      700      900      950      970     1000      129      960     1100   
                                          VAR    BASINP    GEOM    SYMINP    ZMAT    AOBASIS   BASIS     P2S    ABASIS      S 
                                         1400     1410     1200     1210     1080     1600     1650     1700   
                                           T        V       H0       H01     AOSYM     SMH    MOLCAS    OPER   

              2       3        2.21       700     1000     2100   
                                         GEOM     BASIS     RHF  

 PROGRAMS   *        TOTAL       RHF       INT
 CPU TIMES  *        68.12     51.01     17.05
 REAL TIME  *        74.47 SEC
 DISK USED  *         9.15 GB      
 SF USED    *         0.25 MB      
 GA USED    *         0.01 MB       (max)       0.00 MB       (current)
 **********************************************************************************************************************************


1PROGRAM * CCSD (Unrestricted open-shell coupled cluster)     Authors: C. Hampel, H.-J. Werner, 1991, M. Deegan, P.J. Knowles, 1992


 Convergence thresholds:  THRVAR = 1.00D-08  THRDEN = 1.00D-10

 CCSD(T)     terms to be evaluated (factor= 1.000)


 Number of core orbitals:           5 (   5 )
 Number of closed-shell orbitals:  15 (  15 )
 Number of active  orbitals:        1 (   1 )
 Number of external orbitals:     227 ( 227 )

 Memory could be reduced to 332.02 Mwords without degradation in triples

 Number of N-1 electron functions:              31
 Number of N-2 electron functions:             465
 Number of singly external CSFs:              7068
 Number of doubly external CSFs:          18353430
 Total number of CSFs:                    18360498

 Molecular orbitals read from record     2100.2  Type=RHF/CANONICAL (state 1.1)

 Integral transformation finished. Total CPU:  26.47 sec, npass=  1  Memory used: 145.25 MW

 Starting RMP2 calculation

 ITER.      SQ.NORM     CORR.ENERGY   TOTAL ENERGY   ENERGY CHANGE        DEN1      VAR(S)    VAR(P)  DIIS     TIME
   1      1.26536697    -0.96761975  -268.34347573    -0.96761975    -0.00323661  0.26D-04  0.11D-02  1  1    30.93
   2      1.26815210    -0.97110957  -268.34696555    -0.00348981    -0.00000666  0.10D-05  0.23D-05  2  2    34.03
   3      1.26823204    -0.97116247  -268.34701846    -0.00005291    -0.00000008  0.54D-07  0.11D-07  3  3    37.33
   4      1.26823375    -0.97116229  -268.34701827     0.00000019    -0.00000000  0.16D-08  0.12D-09  4  4    40.81
   5      1.26823401    -0.97116237  -268.34701835    -0.00000009    -0.00000000  0.19D-10  0.46D-11  5  5    44.44
   6      1.26823407    -0.97116241  -268.34701839    -0.00000003    -0.00000000  0.51D-13  0.56D-13  6  6    48.23
   7      1.26823407    -0.97116240  -268.34701838     0.00000000    -0.00000000  0.15D-14  0.85D-15  6  1    51.49
   8      1.26823407    -0.97116240  -268.34701838     0.00000000    -0.00000000  0.16D-16  0.79D-17  6  2    54.77
   9      1.26823407    -0.97116240  -268.34701838    -0.00000000    -0.00000000  0.31D-18  0.10D-18  6  3    58.01

 Norm of t1 vector:      0.04589623      S-energy:    -0.00446799      T1 diagnostic:  0.00074421
 Norm of t2 vector:      0.51587557      P-energy:    -0.96669442
                                         Alpha-Beta:  -0.73708944
                                         Alpha-Alpha: -0.11899239
                                         Beta-Beta:   -0.11061259

 Spin contamination <S**2-Sz**2-Sz>     0.00145441
  Reference energy                   -267.375855980544
  RHF-RMP2 correlation energy          -0.971162404137
 !RHF-RMP2 energy                    -268.347018384681

 Starting UCCSD calculation

 ITER.      SQ.NORM     CORR.ENERGY   TOTAL ENERGY   ENERGY CHANGE        DEN1      VAR(S)    VAR(P)  DIIS     TIME
   1      1.27983640    -0.97927365  -268.35512963    -0.97927365    -0.02933385  0.65D-02  0.54D-02  1  1   150.39
   2      1.30624114    -1.00589859  -268.38175457    -0.02662493    -0.00363580  0.62D-03  0.97D-03  2  2   234.86
   3      1.32289389    -1.01272320  -268.38857918    -0.00682461    -0.00091227  0.75D-03  0.76D-04  3  3   311.49
   4      1.33413475    -1.01538267  -268.39123865    -0.00265947    -0.00038528  0.31D-03  0.33D-04  4  4   388.08
   5      1.34921349    -1.01738024  -268.39323622    -0.00199757    -0.00011796  0.10D-03  0.90D-05  5  5   465.10
   6      1.36075178    -1.01840355  -268.39425953    -0.00102330    -0.00001811  0.93D-05  0.32D-05  6  6   542.46
   7      1.36444094    -1.01864398  -268.39449996    -0.00024043    -0.00000316  0.16D-05  0.61D-06  6  1   619.47
   8      1.36504590    -1.01868614  -268.39454212    -0.00004216    -0.00000067  0.27D-06  0.15D-06  6  2   696.41
   9      1.36536669    -1.01870458  -268.39456056    -0.00001844    -0.00000015  0.66D-07  0.32D-07  6  4   773.70
  10      1.36535324    -1.01870331  -268.39455929     0.00000127    -0.00000002  0.11D-07  0.43D-08  6  3   850.88
  11      1.36541607    -1.01870844  -268.39456442    -0.00000513    -0.00000000  0.24D-08  0.94D-09  6  5   928.03
  12      1.36540843    -1.01870594  -268.39456192     0.00000250    -0.00000000  0.10D-08  0.21D-09  6  6  1005.06
  13      1.36540393    -1.01870478  -268.39456076     0.00000116    -0.00000000  0.60D-09  0.54D-10  6  1  1081.80
  14      1.36539113    -1.01870329  -268.39455927     0.00000149    -0.00000000  0.39D-09  0.21D-10  6  2  1159.06
  15      1.36538530    -1.01870259  -268.39455857     0.00000070    -0.00000000  0.32D-09  0.16D-10  6  3  1236.28
  16      1.36538243    -1.01870243  -268.39455841     0.00000015    -0.00000000  0.24D-09  0.12D-10  6  4  1313.53
  17      1.36538181    -1.01870244  -268.39455842    -0.00000000    -0.00000000  0.12D-09  0.12D-10  6  5  1390.76
  18      1.36538442    -1.01870261  -268.39455859    -0.00000017    -0.00000000  0.27D-10  0.52D-11  6  6  1468.12
  19      1.36538748    -1.01870292  -268.39455890    -0.00000031    -0.00000000  0.25D-11  0.16D-11  6  2  1544.98
  20      1.36538686    -1.01870278  -268.39455876     0.00000014    -0.00000000  0.57D-12  0.16D-12  6  1  1621.97
  21      1.36538714    -1.01870282  -268.39455880    -0.00000004    -0.00000000  0.19D-12  0.56D-13  6  4  1698.94
  22      1.36538704    -1.01870281  -268.39455879     0.00000001    -0.00000000  0.66D-13  0.18D-13  6  2  1775.83
  23      1.36538711    -1.01870282  -268.39455880    -0.00000001    -0.00000000  0.19D-13  0.36D-14  6  3  1853.00
  24      1.36538704    -1.01870281  -268.39455879     0.00000001    -0.00000000  0.21D-14  0.65D-15  6  5  1930.29
  25      1.36538702    -1.01870281  -268.39455879     0.00000000    -0.00000000  0.62D-15  0.19D-15  6  6  2007.15
  26      1.36538702    -1.01870281  -268.39455879     0.00000000    -0.00000000  0.30D-15  0.69D-16  6  1  2084.29
  27      1.36538702    -1.01870281  -268.39455879    -0.00000000    -0.00000000  0.17D-15  0.16D-16  6  4  2161.68
  28      1.36538702    -1.01870281  -268.39455879    -0.00000000    -0.00000000  0.13D-15  0.72D-17  6  2  2239.17
  29      1.36538702    -1.01870281  -268.39455879    -0.00000000    -0.00000000  0.98D-16  0.52D-17  6  3  2316.62
  30      1.36538702    -1.01870281  -268.39455879     0.00000000    -0.00000000  0.56D-16  0.47D-17  6  5  2394.20

 Norm of t1 vector:      0.23123945      S-energy:    -0.00501532      T1 diagnostic:  0.02849459
                                                                       D1 diagnostic:  0.14602751
 Norm of t2 vector:      0.55849381      P-energy:    -1.01368749
                                         Alpha-Beta:  -0.80138106
                                         Alpha-Alpha: -0.10868502
                                         Beta-Beta:   -0.10362141

 Singles amplitudes (print threshold =  0.500E-01):

         I         SYM. A    A   T(IA) [Beta-Beta]

         8         1         1     -0.09573019
         9         1         1      0.10168653
        12         1         1     -0.07355075
        14         1         1     -0.11160906

 Spin contamination <S**2-Sz**2-Sz>     0.00176163

 Memory could be reduced to 360.52 Mwords without degradation in triples
 

 RESULTS
 =======

  Reference energy                   -267.375855980544
  UCCSD singles energy                 -0.005015315964
  UCCSD pair energy                    -1.013687491811
  UCCSD correlation energy             -1.018702807775
  Triples (T) contribution             -0.040835232511
  Total correlation energy             -1.059538040286
 
  RHF-UCCSD energy                   -268.394558788318
  RHF-UCCSD[T] energy                -268.438716292838
  RHF-UCCSD-T energy                 -268.434896523801
 !RHF-UCCSD(T) energy                -268.435394020830

 Program statistics:

 Available memory in ccsd:               999997692
 Min. memory needed in ccsd:              51505734
 Max. memory used in ccsd:                74803578
 Max. memory used in cckext:              59475747 (30 integral passes)
 Max. memory used in cckint:             145249478 ( 1 integral passes)



 **********************************************************************************************************************************
 DATASETS  * FILE   NREC   LENGTH (MB)   RECORD NAMES
              1      18        5.04       500      610      700      900      950      970     1000      129      960     1100   
                                          VAR    BASINP    GEOM    SYMINP    ZMAT    AOBASIS   BASIS     P2S    ABASIS      S 
                                         1400     1410     1200     1210     1080     1600     1650     1700   
                                           T        V       H0       H01     AOSYM     SMH    MOLCAS    OPER   

              2       3        2.21       700     1000     2100   
                                         GEOM     BASIS     RHF  

 PROGRAMS   *        TOTAL  UCCSD(T)       RHF       INT
 CPU TIMES  *      3873.92   3805.80     51.01     17.05
 REAL TIME  *      3957.48 SEC
 DISK USED  *        16.13 GB      
 SF USED    *         6.57 GB      
 GA USED    *         0.01 MB       (max)       0.00 MB       (current)
 **********************************************************************************************************************************

        UCCSD(T)        RHF-SCF 
   -268.43539402   -267.37585598
 **********************************************************************************************************************************
 Variable memory released
