
    -----------------------------------------------------------------------
          Psi4: An Open-Source Ab Initio Electronic Structure Package
                               Psi4 1.4a2.dev629 

                         Git: Rev {master} 2938fc2 dirty


    D. G. A. Smith, L. A. Burns, A. C. Simmonett, R. M. Parrish,
    M. C. Schieber, R. Galvelis, P. Kraus, H. Kruse, R. Di Remigio,
    A. Alenaizan, A. M. James, S. Lehtola, J. P. Misiewicz, M. Scheurer,
    R. A. Shaw, J. B. Schriber, Y. Xie, Z. L. Glick, D. A. Sirianni,
    J. S. O'Brien, J. M. Waldrop, A. Kumar, E. G. Hohenstein,
    B. P. Pritchard, B. R. Brooks, H. F. Schaefer III, A. Yu. Sokolov,
    K. Patkowski, A. E. DePrince III, U. Bozkaya, R. A. King,
    F. A. Evangelista, J. M. Turney, T. D. Crawford, C. D. Sherrill,
    J. Chem. Phys. 152(18) 184108 (2020). https://doi.org/10.1063/5.0006002

                            Additional Code Authors
    E. T. Seidl, C. L. Janssen, E. F. Valeev, M. L. Leininger,
    J. F. Gonthier, R. M. Richard, H. R. McAlexander, M. Saitow, X. Wang,
    P. Verma, and M. H. Lechner

             Previous Authors, Complete List of Code Contributors,
                       and Citations for Specific Modules
    https://github.com/psi4/psi4/blob/master/codemeta.json
    https://github.com/psi4/psi4/graphs/contributors
    http://psicode.org/psi4manual/master/introduction.html#citing-psifour

    -----------------------------------------------------------------------


    Psi4 started on: Wednesday, 21 September 2022 04:11PM

    Process ID: 111436
    Host:       n073
    PSIDATADIR: /opt/psi/4/master/share/psi4
    Memory:     500.0 MiB
    Threads:    1
    
  ==> Input File <==

--------------------------------------------------------------------------
# o-Benzyne preliminary computations

memory 14 gb

molecule {
  0 1
  units bohr
 C   -1.3751154942   -0.0253424423    0.0000002461
 O    1.3077465371    0.1160882278    0.0000003609
 H   -2.0792252513    1.9099399226   -0.0000798705
 H   -2.1086591295   -0.9784583339    1.6820920610
 H   -2.1086521466   -0.9785896093   -1.6820199174
 H    1.9401813246   -1.5737698850   -0.0000012901
  no_reorient
  no_com
}

set {
  basis 6-31g*
  reference rhf
  e_convergence 10 
  d_convergence 10
  r_convergence 8
  maxiter 300
  dft_spherical_points 1202
  dft_radial_points 99
  freeze_core True
}


#gradient('ccsd(t)')
gradient('b3lyp')
--------------------------------------------------------------------------

  Memory set to  13.039 GiB by Python driver.

Scratch directory: /tmp/
gradient() will perform analytic gradient computation.

*** tstart() called on n073
*** at Wed Sep 21 16:11:22 2022

   => Loading Basis Set <=

    Name: 6-31G*
    Role: ORBITAL
    Keyword: BASIS
    atoms 1   entry C          line   111 file /opt/psi/4/master/share/psi4/basis/6-31gs.gbs 
    atoms 2   entry O          line   145 file /opt/psi/4/master/share/psi4/basis/6-31gs.gbs 
    atoms 3-6 entry H          line    44 file /opt/psi/4/master/share/psi4/basis/6-31gs.gbs 


         ---------------------------------------------------------
                                   SCF
               by Justin Turney, Rob Parrish, Andy Simmonett
                          and Daniel G. A. Smith
                              RKS Reference
                        1 Threads,  13351 MiB Core
         ---------------------------------------------------------

  ==> Geometry <==

    Molecular point group: c1
    Full point group: C1

    Geometry (in Bohr), charge = 0, multiplicity = 1:

       Center              X                  Y                   Z               Mass       
    ------------   -----------------  -----------------  -----------------  -----------------
         C           -1.375115494200    -0.025342442300     0.000000246100    12.000000000000
         O            1.307746537100     0.116088227800     0.000000360900    15.994914619570
         H           -2.079225251300     1.909939922600    -0.000079870500     1.007825032230
         H           -2.108659129500    -0.978458333900     1.682092061000     1.007825032230
         H           -2.108652146600    -0.978589609300    -1.682019917400     1.007825032230
         H            1.940181324600    -1.573769885000    -0.000001290100     1.007825032230

  Running in c1 symmetry.

  Rotational constants: A =      4.29120  B =      0.82621  C =      0.79751 [cm^-1]
  Rotational constants: A = 128647.06499  B =  24769.29364  C =  23908.65345 [MHz]
  Nuclear repulsion =   40.317772954634933

  Charge       = 0
  Multiplicity = 1
  Electrons    = 18
  Nalpha       = 9
  Nbeta        = 9

  ==> Algorithm <==

  SCF Algorithm Type is DF.
  DIIS enabled.
  MOM disabled.
  Fractional occupation disabled.
  Guess Type is SAD.
  Energy threshold   = 1.00e-10
  Density threshold  = 1.00e-10
  Integral threshold = 0.00e+00

  ==> Primary Basis <==

  Basis Set: 6-31G*
    Blend: 6-31G*
    Number of shells: 20
    Number of basis function: 38
    Number of Cartesian functions: 38
    Spherical Harmonics?: false
    Max angular momentum: 2

  ==> DFT Potential <==

   => Composite Functional: B3LYP <= 

    B3LYP Hyb-GGA Exchange-Correlation Functional

    P. J. Stephens, F. J. Devlin, C. F. Chabalowski, and M. J. Frisch, J. Phys. Chem. 98, 11623 (1994)

    Deriv               =              1
    GGA                 =           TRUE
    Meta                =          FALSE

    Exchange Hybrid     =           TRUE
    MP2 Hybrid          =          FALSE

   => Exchange Functionals <=

    0.0800   Slater exchange
    0.7200         Becke 88

   => Exact (HF) Exchange <=

    0.2000               HF 

   => Correlation Functionals <=

    0.1900   Vosko, Wilk & Nusair (VWN5_RPA)
    0.8100   Lee, Yang & Parr

   => Molecular Quadrature <=

    Radial Scheme          =       TREUTLER
    Pruning Scheme         =           NONE
    Nuclear Scheme         =       TREUTLER

    BS radius alpha        =              1
    Pruning alpha          =              1
    Radial Points          =             99
    Spherical Points       =           1202
    Total Points           =         678826
    Total Blocks           =           4712
    Max Points             =            256
    Max Functions          =             38
    Weights Tolerance      =       1.00E-15

   => Loading Basis Set <=

    Name: (6-31G* AUX)
    Role: JKFIT
    Keyword: DF_BASIS_SCF
    atoms 1   entry C          line   121 file /opt/psi/4/master/share/psi4/basis/cc-pvdz-jkfit.gbs 
    atoms 2   entry O          line   221 file /opt/psi/4/master/share/psi4/basis/cc-pvdz-jkfit.gbs 
    atoms 3-6 entry H          line    51 file /opt/psi/4/master/share/psi4/basis/cc-pvdz-jkfit.gbs 

  ==> Integral Setup <==

  DFHelper Memory: AOs need 0.004 GiB; user supplied 9.070 GiB. Using in-core AOs.

  ==> MemDFJK: Density-Fitted J/K Matrices <==

    J tasked:                   Yes
    K tasked:                   Yes
    wK tasked:                   No
    OpenMP threads:               1
    Memory [MiB]:              9287
    Algorithm:                 Core
    Schwarz Cutoff:           1E-12
    Mask sparsity (%):       0.0000
    Fitting Condition:        1E-10

   => Auxiliary Basis Set <=

  Basis Set: (6-31G* AUX)
    Blend: CC-PVDZ-JKFIT
    Number of shells: 84
    Number of basis function: 262
    Number of Cartesian functions: 262
    Spherical Harmonics?: false
    Max angular momentum: 3

  Cached 100.0% of DFT collocation blocks in 0.709 [GiB].

  Minimum eigenvalue in the overlap matrix is 9.7568870177E-03.
  Reciprocal condition number of the overlap matrix is 1.6262849683E-03.
    Using symmetric orthogonalization.

  ==> Pre-Iterations <==

  SCF Guess: Superposition of Atomic Densities via on-the-fly atomic UHF (no occupation information).

   -------------------------
    Irrep   Nso     Nmo    
   -------------------------
     A         38      38 
   -------------------------
    Total      38      38
   -------------------------

  ==> Iterations <==

                           Total Energy        Delta E     RMS |[F,P]|

   @DF-RKS iter SAD:  -115.27713378412291   -1.15277e+02   0.00000e+00 
   @DF-RKS iter   1:  -115.54952993741547   -2.72396e-01   1.60958e-02 DIIS
   @DF-RKS iter   2:  -115.45193862690869    9.75913e-02   2.10220e-02 DIIS
   @DF-RKS iter   3:  -115.71148590721614   -2.59547e-01   2.12617e-03 DIIS
   @DF-RKS iter   4:  -115.71390642376511   -2.42052e-03   6.71118e-04 DIIS
   @DF-RKS iter   5:  -115.71417173965810   -2.65316e-04   8.09878e-05 DIIS
   @DF-RKS iter   6:  -115.71417560130224   -3.86164e-06   8.44415e-06 DIIS
   @DF-RKS iter   7:  -115.71417564658816   -4.52859e-08   7.61004e-07 DIIS
   @DF-RKS iter   8:  -115.71417564699128   -4.03119e-10   1.05347e-07 DIIS
   @DF-RKS iter   9:  -115.71417564699881   -7.53175e-12   2.02779e-08 DIIS
   @DF-RKS iter  10:  -115.71417564699935   -5.40012e-13   1.34820e-09 DIIS
   @DF-RKS iter  11:  -115.71417564699919    1.56319e-13   1.18024e-10 DIIS
   @DF-RKS iter  12:  -115.71417564699918    1.42109e-14   2.25169e-11 DIIS
  Energy and wave function converged.


  ==> Post-Iterations <==

    Orbital Energies [Eh]
    ---------------------

    Doubly Occupied:                                                      

       1A    -19.137926     2A    -10.223171     3A     -1.011846  
       4A     -0.680643     5A     -0.502870     6A     -0.435775  
       7A     -0.419742     8A     -0.330581     9A     -0.264545  

    Virtual:                                                              

      10A      0.078192    11A      0.132598    12A      0.168353  
      13A      0.176666    14A      0.205411    15A      0.533378  
      16A      0.566272    17A      0.575414    18A      0.793790  
      19A      0.854041    20A      0.873050    21A      0.907137  
      22A      0.956870    23A      0.976902    24A      1.026005  
      25A      1.115997    26A      1.461258    27A      1.501802  
      28A      1.586409    29A      1.744168    30A      2.041455  
      31A      2.113724    32A      2.137668    33A      2.350380  
      34A      2.400517    35A      2.462907    36A      2.794580  
      37A      3.700391    38A      4.217040  

    Final Occupation by Irrep:
              A 
    DOCC [     9 ]

  @DF-RKS Final Energy:  -115.71417564699918

   => Energetics <=

    Nuclear Repulsion Energy =             40.3177729546349326
    One-Electron Energy =                -237.0308392245738958
    Two-Electron Energy =                  93.5527313165302132
    DFT Exchange-Correlation Energy =     -12.5538406935904288
    Empirical Dispersion Energy =           0.0000000000000000
    VV10 Nonlocal Energy =                  0.0000000000000000
    Total Energy =                       -115.7141756469991805

Computation Completed


Properties will be evaluated at   0.000000,   0.000000,   0.000000 [a0]

Properties computed using the SCF density matrix

  Nuclear Dipole Moment: [e a0]
     X:    -2.1451      Y:    -0.8442      Z:    -0.0000

  Electronic Dipole Moment: [e a0]
     X:     1.8105      Y:     0.2611      Z:     0.0000

  Dipole Moment: [e a0]
     X:    -0.3346      Y:    -0.5831      Z:    -0.0000     Total:     0.6723

  Dipole Moment: [D]
     X:    -0.8504      Y:    -1.4822      Z:    -0.0000     Total:     1.7088


*** tstop() called on n073 at Wed Sep 21 16:11:39 2022
Module time:
	user time   =      16.68 seconds =       0.28 minutes
	system time =       0.29 seconds =       0.00 minutes
	total time  =         17 seconds =       0.28 minutes
Total time:
	user time   =      16.68 seconds =       0.28 minutes
	system time =       0.29 seconds =       0.00 minutes
	total time  =         17 seconds =       0.28 minutes

*** tstart() called on n073
*** at Wed Sep 21 16:11:39 2022


         ------------------------------------------------------------
                                   SCF GRAD                          
                          Rob Parrish, Justin Turney,                
                       Andy Simmonett, and Alex Sokolov              
         ------------------------------------------------------------

  ==> Geometry <==

    Molecular point group: c1
    Full point group: C1

    Geometry (in Bohr), charge = 0, multiplicity = 1:

       Center              X                  Y                   Z               Mass       
    ------------   -----------------  -----------------  -----------------  -----------------
         C           -1.375115494200    -0.025342442300     0.000000246100    12.000000000000
         O            1.307746537100     0.116088227800     0.000000360900    15.994914619570
         H           -2.079225251300     1.909939922600    -0.000079870500     1.007825032230
         H           -2.108659129500    -0.978458333900     1.682092061000     1.007825032230
         H           -2.108652146600    -0.978589609300    -1.682019917400     1.007825032230
         H            1.940181324600    -1.573769885000    -0.000001290100     1.007825032230

  Nuclear repulsion =   40.317772954634933

  ==> Basis Set <==

  Basis Set: 6-31G*
    Blend: 6-31G*
    Number of shells: 20
    Number of basis function: 38
    Number of Cartesian functions: 38
    Spherical Harmonics?: false
    Max angular momentum: 2

  ==> DFJKGrad: Density-Fitted SCF Gradients <==

    Gradient:                    1
    J tasked:                  Yes
    K tasked:                  Yes
    wK tasked:                  No
    OpenMP threads:              1
    Integrals threads:           1
    Memory [MiB]:            10013
    Schwarz Cutoff:          0E+00
    Fitting Condition:       1E-10

   => Auxiliary Basis Set <=

  Basis Set: (6-31G* AUX)
    Blend: CC-PVDZ-JKFIT
    Number of shells: 84
    Number of basis function: 262
    Number of Cartesian functions: 262
    Spherical Harmonics?: false
    Max angular momentum: 3

  ==> DFT Potential <==

   => Composite Functional: B3LYP <= 

    B3LYP Hyb-GGA Exchange-Correlation Functional

    P. J. Stephens, F. J. Devlin, C. F. Chabalowski, and M. J. Frisch, J. Phys. Chem. 98, 11623 (1994)

    Deriv               =              1
    GGA                 =           TRUE
    Meta                =          FALSE

    Exchange Hybrid     =           TRUE
    MP2 Hybrid          =          FALSE

   => Exchange Functionals <=

    0.0800   Slater exchange
    0.7200         Becke 88

   => Exact (HF) Exchange <=

    0.2000               HF 

   => Correlation Functionals <=

    0.1900   Vosko, Wilk & Nusair (VWN5_RPA)
    0.8100   Lee, Yang & Parr

   => Molecular Quadrature <=

    Radial Scheme          =       TREUTLER
    Pruning Scheme         =           NONE
    Nuclear Scheme         =       TREUTLER

    BS radius alpha        =              1
    Pruning alpha          =              1
    Radial Points          =             99
    Spherical Points       =           1202
    Total Points           =         678826
    Total Blocks           =           4712
    Max Points             =            256
    Max Functions          =             38
    Weights Tolerance      =       1.00E-15


  -Total Gradient:
     Atom            X                  Y                   Z
    ------   -----------------  -----------------  -----------------
       1       -0.005652896335    -0.001155208848     0.000000179630
       2        0.005994650476    -0.013525204631     0.000000258468
       3        0.000346065355    -0.002326951521    -0.000000099137
       4        0.002217906780     0.002039167447    -0.003109206105
       5        0.002217885587     0.002039420314     0.003109079104
       6       -0.005123693984     0.012928842098    -0.000000211965


*** tstop() called on n073 at Wed Sep 21 16:11:42 2022
Module time:
	user time   =       2.80 seconds =       0.05 minutes
	system time =       0.00 seconds =       0.00 minutes
	total time  =          3 seconds =       0.05 minutes
Total time:
	user time   =      19.48 seconds =       0.32 minutes
	system time =       0.29 seconds =       0.00 minutes
	total time  =         20 seconds =       0.33 minutes

    Psi4 stopped on: Wednesday, 21 September 2022 04:11PM
    Psi4 wall time for execution: 0:00:19.80

*** Psi4 exiting successfully. Buy a developer a beer!
