
    -----------------------------------------------------------------------
          Psi4: An Open-Source Ab Initio Electronic Structure Package
                               Psi4 1.4a2.dev629 

                         Git: Rev {master} 2938fc2 dirty


    D. G. A. Smith, L. A. Burns, A. C. Simmonett, R. M. Parrish,
    M. C. Schieber, R. Galvelis, P. Kraus, H. Kruse, R. Di Remigio,
    A. Alenaizan, A. M. James, S. Lehtola, J. P. Misiewicz, M. Scheurer,
    R. A. Shaw, J. B. Schriber, Y. Xie, Z. L. Glick, D. A. Sirianni,
    J. S. O'Brien, J. M. Waldrop, A. Kumar, E. G. Hohenstein,
    B. P. Pritchard, B. R. Brooks, H. F. Schaefer III, A. Yu. Sokolov,
    K. Patkowski, A. E. DePrince III, U. Bozkaya, R. A. King,
    F. A. Evangelista, J. M. Turney, T. D. Crawford, C. D. Sherrill,
    J. Chem. Phys. 152(18) 184108 (2020). https://doi.org/10.1063/5.0006002

                            Additional Code Authors
    E. T. Seidl, C. L. Janssen, E. F. Valeev, M. L. Leininger,
    J. F. Gonthier, R. M. Richard, H. R. McAlexander, M. Saitow, X. Wang,
    P. Verma, and M. H. Lechner

             Previous Authors, Complete List of Code Contributors,
                       and Citations for Specific Modules
    https://github.com/psi4/psi4/blob/master/codemeta.json
    https://github.com/psi4/psi4/graphs/contributors
    http://psicode.org/psi4manual/master/introduction.html#citing-psifour

    -----------------------------------------------------------------------


    Psi4 started on: Monday, 06 September 2021 06:16PM

    Process ID: 16777
    Host:       n004
    PSIDATADIR: /opt/psi/4/master/share/psi4
    Memory:     500.0 MiB
    Threads:    1
    
  ==> Input File <==

--------------------------------------------------------------------------
# o-Benzyne preliminary computations

memory 14 gb

molecule {
  0 1
  units bohr
 H    0.0000000000   -1.4236158228    0.9933245015
 O    0.0000000000    0.0000000000   -0.1203053830
 H    0.0000000000    1.4236158228    0.9933245015
}

set {
  basis cc-pvdz
  reference rhf
  e_convergence 10 
  d_convergence 10
  r_convergence 8
  maxiter 300
  freeze_core True
}

e, wfn = energy('ccsd(t)', return_wfn = True)
psi4.print_out('Giraffe The Energy is %.12f \n'%(e))
--------------------------------------------------------------------------

  Memory set to  13.039 GiB by Python driver.

Scratch directory: /tmp/

*** tstart() called on n004
*** at Mon Sep  6 18:16:08 2021

   => Loading Basis Set <=

    Name: CC-PVDZ
    Role: ORBITAL
    Keyword: BASIS
    atoms 1, 3 entry H          line    22 file /opt/psi/4/master/share/psi4/basis/cc-pvdz.gbs 
    atoms 2    entry O          line   198 file /opt/psi/4/master/share/psi4/basis/cc-pvdz.gbs 


         ---------------------------------------------------------
                                   SCF
               by Justin Turney, Rob Parrish, Andy Simmonett
                          and Daniel G. A. Smith
                              RHF Reference
                        1 Threads,  13351 MiB Core
         ---------------------------------------------------------

  ==> Geometry <==

    Molecular point group: c2v
    Full point group: C2v

    Geometry (in Bohr), charge = 0, multiplicity = 1:

       Center              X                  Y                   Z               Mass       
    ------------   -----------------  -----------------  -----------------  -----------------
         H            0.000000000000    -1.423615822800     0.988998137086     1.007825032230
         O            0.000000000000     0.000000000000    -0.124631747414    15.994914619570
         H           -0.000000000000     1.423615822800     0.988998137086     1.007825032230

  Running in c2v symmetry.

  Rotational constants: A =     27.11707  B =     14.73647  C =      9.54782 [cm^-1]
  Rotational constants: A = 812949.27236  B = 441788.27377  C = 286236.31835 [MHz]
  Nuclear repulsion =    9.203498526611725

  Charge       = 0
  Multiplicity = 1
  Electrons    = 10
  Nalpha       = 5
  Nbeta        = 5

  ==> Algorithm <==

  SCF Algorithm Type is PK.
  DIIS enabled.
  MOM disabled.
  Fractional occupation disabled.
  Guess Type is SAD.
  Energy threshold   = 1.00e-10
  Density threshold  = 1.00e-10
  Integral threshold = 0.00e+00

  ==> Primary Basis <==

  Basis Set: CC-PVDZ
    Blend: CC-PVDZ
    Number of shells: 12
    Number of basis function: 24
    Number of Cartesian functions: 25
    Spherical Harmonics?: true
    Max angular momentum: 2

  ==> Integral Setup <==

  Using in-core PK algorithm.
   Calculation information:
      Number of atoms:                   3
      Number of AO shells:              12
      Number of primitives:             32
      Number of atomic orbitals:        25
      Number of basis functions:        24

      Integral cutoff                 1.00e-12
      Number of threads:                 1

  Performing in-core PK
  Using 90300 doubles for integral storage.
  We computed 3081 shell quartets total.
  Whereas there are 3081 unique shell quartets.

  ==> DiskJK: Disk-Based J/K Matrices <==

    J tasked:                  Yes
    K tasked:                  Yes
    wK tasked:                  No
    Memory [MiB]:            10013
    Schwarz Cutoff:          1E-12

    OpenMP threads:              1

  Minimum eigenvalue in the overlap matrix is 3.2361862369E-02.
  Reciprocal condition number of the overlap matrix is 1.0265381066E-02.
    Using symmetric orthogonalization.

  ==> Pre-Iterations <==

  SCF Guess: Superposition of Atomic Densities via on-the-fly atomic UHF (no occupation information).

   -------------------------
    Irrep   Nso     Nmo    
   -------------------------
     A1        11      11 
     A2         2       2 
     B1         4       4 
     B2         7       7 
   -------------------------
    Total      24      24
   -------------------------

  ==> Iterations <==

                        Total Energy        Delta E     RMS |[F,P]|

   @RHF iter SAD:   -75.51329651598054   -7.55133e+01   0.00000e+00 
   @RHF iter   1:   -75.95406943676160   -4.40773e-01   3.03231e-02 DIIS
   @RHF iter   2:   -76.00739317276512   -5.33237e-02   1.73101e-02 DIIS
   @RHF iter   3:   -76.02642876450284   -1.90356e-02   1.57793e-03 DIIS
   @RHF iter   4:   -76.02681116707592   -3.82403e-04   3.61124e-04 DIIS
   @RHF iter   5:   -76.02683018621076   -1.90191e-05   6.62326e-05 DIIS
   @RHF iter   6:   -76.02683108604030   -8.99830e-07   1.04542e-05 DIIS
   @RHF iter   7:   -76.02683111073732   -2.46970e-08   1.41962e-06 DIIS
   @RHF iter   8:   -76.02683111120228   -4.64965e-10   3.29046e-07 DIIS
   @RHF iter   9:   -76.02683111123170   -2.94165e-11   5.83783e-08 DIIS
   @RHF iter  10:   -76.02683111123255   -8.52651e-13   4.78450e-09 DIIS
   @RHF iter  11:   -76.02683111123247    8.52651e-14   8.38800e-10 DIIS
   @RHF iter  12:   -76.02683111123245    1.42109e-14   4.83667e-11 DIIS
  Energy and wave function converged.


  ==> Post-Iterations <==

    Orbital Energies [Eh]
    ---------------------

    Doubly Occupied:                                                      

       1A1   -20.550606     2A1    -1.337561     1B2    -0.698608  
       3A1    -0.567916     1B1    -0.493415  

    Virtual:                                                              

       4A1     0.185582     2B2     0.256440     3B2     0.787891  
       5A1     0.857731     6A1     1.163923     2B1     1.200240  
       4B2     1.253861     7A1     1.439114     1A2     1.478397  
       3B1     1.671559     8A1     1.865851     5B2     1.939240  
       6B2     2.453188     9A1     2.493519     4B1     3.289447  
       2A2     3.337478    10A1     3.514113    11A1     3.862210  
       7B2     4.151786  

    Final Occupation by Irrep:
             A1    A2    B1    B2 
    DOCC [     3,    0,    1,    1 ]

  @RHF Final Energy:   -76.02683111123245

   => Energetics <=

    Nuclear Repulsion Energy =              9.2034985266117246
    One-Electron Energy =                -123.1644477795910291
    Two-Electron Energy =                  37.9341181417468505
    Total Energy =                        -76.0268311112324540

Computation Completed


Properties will be evaluated at   0.000000,   0.000000,   0.000000 [a0]

Properties computed using the SCF density matrix

  Nuclear Dipole Moment: [e a0]
     X:     0.0000      Y:     0.0000      Z:     0.9809

  Electronic Dipole Moment: [e a0]
     X:     0.0000      Y:     0.0000      Z:    -0.1687

  Dipole Moment: [e a0]
     X:     0.0000      Y:     0.0000      Z:     0.8122     Total:     0.8122

  Dipole Moment: [D]
     X:     0.0000      Y:     0.0000      Z:     2.0644     Total:     2.0644


*** tstop() called on n004 at Mon Sep  6 18:16:09 2021
Module time:
	user time   =       1.10 seconds =       0.02 minutes
	system time =       0.01 seconds =       0.00 minutes
	total time  =          1 seconds =       0.02 minutes
Total time:
	user time   =       1.10 seconds =       0.02 minutes
	system time =       0.01 seconds =       0.00 minutes
	total time  =          1 seconds =       0.02 minutes
 MINTS: Wrapper to libmints.
   by Justin Turney

   Calculation information:
      Number of threads:                 1
      Number of atoms:                   3
      Number of AO shells:              12
      Number of SO shells:               9
      Number of primitives:             32
      Number of atomic orbitals:        25
      Number of basis functions:        24

      Number of irreps:                  4
      Integral cutoff                 0.00e+00
      Number of functions per irrep: [  11    2    4    7 ]

 OEINTS: Overlap, kinetic, potential, dipole, and quadrupole integrals
         stored in file 35.

      Computing two-electron integrals...done
      Computed 11610 non-zero two-electron integrals.
        Stored in file 33.


*** tstart() called on n004
*** at Mon Sep  6 18:16:09 2021


	Wfn Parameters:
	--------------------
	Wavefunction         = CCSD_T
	Number of irreps     = 4
	Number of MOs        = 24
	Number of active MOs = 23
	AO-Basis             = NONE
	Semicanonical        = false
	Reference            = RHF
	Print Level          = 1

	IRREP	# MOs	# FZDC	# DOCC	# SOCC	# VIRT	# FZVR
	-----	-----	------	------	------	------	------
	 A1	   11	    1	    2	    0	    8	    0
	 A2	   2	    0	    0	    0	    2	    0
	 B1	   4	    0	    1	    0	    3	    0
	 B2	   7	    0	    1	    0	    6	    0
	Transforming integrals...
	IWL integrals will be deleted.
	(OO|OO)...
	Presorting SO-basis two-electron integrals.
	Sorting File: SO Ints (nn|nn) nbuckets = 1
	Transforming the one-electron integrals and constructing Fock matrices
	Starting first half-transformation.
	Sorting half-transformed integrals.
	First half integral transformation complete.
	Starting second half-transformation.
	Two-electron integral transformation complete.
	(OO|OV)...
	Starting second half-transformation.
	Two-electron integral transformation complete.
	(OO|VV)...
	Starting second half-transformation.
	Two-electron integral transformation complete.
	(OV|OO)...
	Starting first half-transformation.
	Sorting half-transformed integrals.
	First half integral transformation complete.
	Starting second half-transformation.
	Two-electron integral transformation complete.
	(OV|OV)...
	Starting second half-transformation.
	Two-electron integral transformation complete.
	(OV|VV)...
	Starting second half-transformation.
	Two-electron integral transformation complete.
	(VV|OO)...
	Starting first half-transformation.
	Sorting half-transformed integrals.
	First half integral transformation complete.
	Starting second half-transformation.
	Two-electron integral transformation complete.
	(VV|OV)...
	Starting second half-transformation.
	Two-electron integral transformation complete.
	(VV|VV)...
	Starting second half-transformation.
	Two-electron integral transformation complete.
	Frozen core energy     =    -61.31812695770217

	Size of irrep 0 of <ab|cd> integrals:      0.013 (MW) /      0.102 (MB)
	Size of irrep 1 of <ab|cd> integrals:      0.005 (MW) /      0.037 (MB)
	Size of irrep 2 of <ab|cd> integrals:      0.005 (MW) /      0.041 (MB)
	Size of irrep 3 of <ab|cd> integrals:      0.012 (MW) /      0.093 (MB)
	Total:                                     0.034 (MW) /      0.274 (MB)

	Size of irrep 0 of <ia|bc> integrals:      0.003 (MW) /      0.023 (MB)
	Size of irrep 1 of <ia|bc> integrals:      0.001 (MW) /      0.007 (MB)
	Size of irrep 2 of <ia|bc> integrals:      0.001 (MW) /      0.009 (MB)
	Size of irrep 3 of <ia|bc> integrals:      0.002 (MW) /      0.019 (MB)
	Total:                                     0.007 (MW) /      0.058 (MB)

	Size of irrep 0 of tijab amplitudes:       0.001 (MW) /      0.005 (MB)
	Size of irrep 1 of tijab amplitudes:       0.000 (MW) /      0.001 (MB)
	Size of irrep 2 of tijab amplitudes:       0.000 (MW) /      0.002 (MB)
	Size of irrep 3 of tijab amplitudes:       0.000 (MW) /      0.003 (MB)
	Total:                                     0.002 (MW) /      0.012 (MB)

	Nuclear Rep. energy          =      9.20349852661172
	SCF energy                   =    -76.02683111123245
	One-electron energy          =    -41.62940607454485
	Two-electron energy          =     17.71720339440284
	Reference energy             =    -76.02683111123244

*** tstop() called on n004 at Mon Sep  6 18:16:10 2021
Module time:
	user time   =       0.06 seconds =       0.00 minutes
	system time =       0.04 seconds =       0.00 minutes
	total time  =          1 seconds =       0.02 minutes
Total time:
	user time   =       1.22 seconds =       0.02 minutes
	system time =       0.06 seconds =       0.00 minutes
	total time  =          2 seconds =       0.03 minutes
            **************************
            *                        *
            *        CCENERGY        *
            *                        *
            **************************

    Nuclear Rep. energy (wfn)     =    9.203498526611725
    SCF energy          (wfn)     =  -76.026831111232454
    Reference energy    (file100) =  -76.026831111232440

    Input parameters:
    -----------------
    Wave function   =     CCSD_T
    Reference wfn   =     RHF
    Brueckner       =     No
    Memory (Mbytes) =     14000.0
    Maxiter         =    300
    R_Convergence   =     1.0e-08
    E_Convergence   =     1.0e-10
    Restart         =     Yes
    DIIS            =     Yes
    AO Basis        =     NONE
    ABCD            =     NEW
    Cache Level     =     2
    Cache Type      =     LOW
    Print Level     =     1
    Num. of threads =     1
    # Amps to Print =     10
    Print MP2 Amps? =     No
    Analyze T2 Amps =     No
    Print Pair Ener =     No
    Local CC        =     No
    SCS-MP2         =     False
    SCSN-MP2        =     False
    SCS-CCSD        =     False

MP2 correlation energy -0.2016280957176589
                Solving CC Amplitude Equations
                ------------------------------
  Iter             Energy              RMS        T1Diag      D1Diag    New D1Diag    D2Diag
  ----     ---------------------    ---------   ----------  ----------  ----------   --------
     0        -0.201628095717659    0.000e+00    0.000000    0.000000    0.000000    0.109422
     1        -0.206821570667776    2.656e-02    0.004489    0.008607    0.008607    0.116376
     2        -0.210760764102553    9.344e-03    0.005316    0.009912    0.009912    0.121690
     3        -0.211167663384928    2.411e-03    0.005792    0.010682    0.010682    0.122884
     4        -0.211178815707269    5.539e-04    0.005838    0.010896    0.010896    0.123079
     5        -0.211189801847703    1.633e-04    0.005863    0.011005    0.011005    0.123112
     6        -0.211187997110844    5.411e-05    0.005872    0.011049    0.011049    0.123106
     7        -0.211187778263552    1.467e-05    0.005875    0.011063    0.011063    0.123104
     8        -0.211187655586116    2.536e-06    0.005875    0.011065    0.011065    0.123104
     9        -0.211187609911804    6.099e-07    0.005875    0.011065    0.011065    0.123104
    10        -0.211187624034330    1.233e-07    0.005875    0.011065    0.011065    0.123104
    11        -0.211187622741005    2.622e-08    0.005875    0.011065    0.011065    0.123104
    12        -0.211187623145533    4.385e-09    0.005875    0.011065    0.011065    0.123104
    13        -0.211187623032455    9.530e-10    0.005875    0.011065    0.011065    0.123104
    14        -0.211187623024702    1.904e-10    0.005875    0.011065    0.011065    0.123104
    15        -0.211187623021884    5.253e-11    0.005875    0.011065    0.011065    0.123104

    Iterations converged.


    Largest TIA Amplitudes:
              1   0         0.0073995723
              3  17        -0.0073179705
              3  13         0.0060016481
              1   5        -0.0049815118
              3  15         0.0045392096
              0   2         0.0041959237
              0   0         0.0037920997
              2  11         0.0032837302
              2  10         0.0030301852
              1   1         0.0029875658

    Largest TIjAb Amplitudes:
      2   2  10  10        -0.0513949397
      3   3  14  14        -0.0361112689
      1   1   2   2        -0.0351759201
      3   3  13  13        -0.0292698704
      1   2   2  10         0.0284970684
      2   1  10   2         0.0284970684
      3   3   1   1        -0.0281244009
      1   1  14  14        -0.0257100990
      2   3  10  15         0.0228504138
      3   2  15  10         0.0228504138

    SCF energy       (wfn)                    =  -76.026831111232454
    Reference energy (file100)                =  -76.026831111232440

    Opposite-spin MP2 correlation energy      =   -0.150910639673479
    Same-spin MP2 correlation energy          =   -0.050717456044180
    Singles MP2 correlation energy            =   -0.000000000000000
    MP2 correlation energy                    =   -0.201628095717659
      * MP2 total energy                      =  -76.228459206950092

    Opposite-spin CCSD correlation energy     =   -0.165871542622346
    Same-spin CCSD correlation energy         =   -0.045316080399538
    Singles CCSD correlation energy           =    0.000000000000000
    CCSD correlation energy                   =   -0.211187623021884
      * CCSD total energy                     =  -76.238018734254325

            **************************
            *                        *
            *        CCTRIPLES       *
            *                        *
            **************************


    Wave function   =    CCSD_T
    Reference wfn   =      RHF

    Nuclear Rep. energy (wfn)                =    9.203498526611725
    SCF energy          (wfn)                =  -76.026831111232454
    Reference energy    (file100)            =  -76.026831111232440
    CCSD energy         (file100)            =   -0.211187623021884
    Total CCSD energy   (file100)            =  -76.238018734254325

    Number of ijk index combinations:               20
    Memory available in words        :      1750000000
    ~Words needed per explicit thread:            2048
    Number of threads for explicit ijk threading:    1

    MKL num_threads set to 1 for explicit threading.

    (T) energy                                =   -0.003036015240280
      * CCSD(T) total energy                  =  -76.241054749494609

Giraffe The Energy is -76.241054749495 

    Psi4 stopped on: Monday, 06 September 2021 06:16PM
    Psi4 wall time for execution: 0:00:05.57

*** Psi4 exiting successfully. Buy a developer a beer!
