
 Primary working directories    : /tmp/333988.59.gen6.q
 Secondary working directories  : /tmp/333988.59.gen6.q
 Wavefunction directory         : /home/vulcan/mel64643/wfu/
 Main file repository           : /tmp/333988.59.gen6.q/

 ARCHNAME  : Linux/x86_64
 FC        : /opt/intel/compilers_and_libraries_2016.1.150/linux/bin/intel64/ifort
 FCVERSION : 16.0.1
 BLASLIB   : -mkl
 id        : ccgc

 Nodes     nprocs
 n081         3
 Number of processes for MPI-2 version of Molpro:   nprocs(total)=    4   nprocs(compute)=    3   nprocs(helper)=    1
 ga_uses_ma=false, calling ma_init with nominal heap.
 GA-space will be limited to   8.0 MW (determined by -G option)

 Using customized tuning parameters: mindgm=10; mindgv=16; mindgc=4; mindgr=1; noblas=0; mincuda=1000; minvec=7
 default implementation of scratch files=sf  

 ***,Optimization of min3
 memory,1000,m
 gthresh,energy=1.0d-10,orbital=1.0d-10,oneint=1.0d-16,twoint=1.0d-16,optgrad=1.0d-6,compress=1.0d-13
 geomtyp=xyz
 
  bohr
  geometry = {
  12
  arbitrary comment
  C         -3.0997848277          1.5888839374          0.0195624899
  C         -0.8640049517         -0.0709606406         -0.6562635948
  C         -1.1182161664         -2.7797977597          0.2463354036
  O          1.3114867921          1.1049485606          0.5889850133
  O          3.4492776156          0.1200559370         -0.2518167785
  H         -4.8204518957          0.8407344036         -0.8851730156
  H         -2.8101709717          3.4970696683         -0.6099287470
  H         -3.3934177071          1.5977756332          2.0694329820
  H         -0.4603005135         -0.0044476201         -2.6761065587
  H         -2.6975021040         -3.6925510318         -0.7176738455
  H         -1.4714528291         -2.8237927843          2.2781204576
  H          0.6070842376         -3.8315755541         -0.1617583180
 }
 
 basis=cc-pvtz
 {rhf;maxit,200}
 {uccsd(t);maxit,200}

 Variables initialized (661), CPU time= 0.00 sec
 Commands  initialized (458), CPU time= 0.01 sec, 486 directives.
 Default parameters read. Elapsed time= 0.07 sec

 Checking input...
 Passed
1


                                         ***  PROGRAM SYSTEM MOLPRO  ***
                         Copyright, University College Cardiff Consultants Limited, 2008

                                    Version 2010.1 linked May 16 2016 07:17:05


 **********************************************************************************************************************************
 LABEL *   Optimization of min3                                                          
 Linux-4.4.3/n081(x86_64) 64 bit mpp version                                             DATE: 15-Jul-20          TIME: 21:50:09  
 **********************************************************************************************************************************

 SHA1:             9e8077add272b0f3cad6f7df79ec5211205f459d
 **********************************************************************************************************************************

 THRESHOLDS:

 ZERO    =  1.00D-12  ONEINT  =  1.00D-16  TWOINT  =  1.00D-16  PREFAC  =  1.00D-14  LOCALI  =  1.00D-09  EORDER  =  1.00D-04
 ENERGY  =  1.00D-10  ETEST   =  0.00D+00  EDENS   =  0.00D+00  THRDEDEF=  1.00D-06  GRADIENT=  1.00D-02  STEP    =  1.00D-03
 ORBITAL =  1.00D-10  CIVEC   =  1.00D-05  COEFF   =  1.00D-04  PRINTCI =  5.00D-02  PUNCHCI =  9.90D+01  OPTGRAD =  1.00D-06
 OPTENERG=  1.00D-06  OPTSTEP =  3.00D-04  THRGRAD =  1.00D-10  COMPRESS=  1.00D-13  VARMIN  =  1.00D-07  VARMAX  =  1.00D-03
 THRDOUB =  0.00D+00  THRDIV  =  1.00D-05  THRRED  =  1.00D-07  THRPSP  =  1.00D+00  THRDC   =  1.00D-10  THRCS   =  1.00D-10
 THRNRM  =  1.00D-08  THREQ   =  0.00D+00  THRDE   =  1.00D+00  THRREF  =  1.00D-05  SPARFAC =  1.00D+00  THRDLP  =  1.00D-07
 THRDIA  =  1.00D-10  THRDLS  =  1.00D-07  THRGPS  =  0.00D+00  THRKEX  =  0.00D+00  THRDIS  =  2.00D-01  THRVAR  =  1.00D-10
 THRLOC  =  1.00D-06  THRGAP  =  1.00D-06  THRLOCT = -1.00D+00  THRGAPT = -1.00D+00  THRORB  =  1.00D-06  THRMLTP =  0.00D+00
 THRCPQCI=  1.00D-10  KEXTA   =  0.00D+00  THRCOARS=  0.00D+00  SYMTOL  =  1.00D-06  GRADTOL =  1.00D-06  THROVL  =  1.00D-08
 THRORTH =  1.00D-08  GRID    =  1.00D-06  GRIDMAX =  1.00D-03  DTMAX   =  0.00D+00

 SETTING GEOMTYP        =    XYZ
 ZUNIT=BOHR
 

 Variable memory set to 1000000000 words,  buffer space   230000 words

 SETTING BASIS          =    CC-PVTZ


 Recomputing integrals since basis changed


 Using spherical harmonics

 Library entry C      S cc-pVTZ              selected for orbital group  1
 Library entry C      P cc-pVTZ              selected for orbital group  1
 Library entry C      D cc-pVTZ              selected for orbital group  1
 Library entry C      F cc-pVTZ              selected for orbital group  1
 Library entry O      S cc-pVTZ              selected for orbital group  2
 Library entry O      P cc-pVTZ              selected for orbital group  2
 Library entry O      D cc-pVTZ              selected for orbital group  2
 Library entry O      F cc-pVTZ              selected for orbital group  2
 Library entry H      S cc-pVTZ              selected for orbital group  3
 Library entry H      P cc-pVTZ              selected for orbital group  3
 Library entry H      D cc-pVTZ              selected for orbital group  3

1PROGRAM * SEWARD (Integral evaluation for generally contracted gaussian basis sets)     Author: Roland Lindh, 1990

 Geometry written to block  1 of record 700


 Point group  C1  



 ATOMIC COORDINATES

 NR  ATOM    CHARGE       X              Y              Z

   1  C       6.00   -3.099784828    1.588883937    0.019562490
   2  C       6.00   -0.864004952   -0.070960641   -0.656263595
   3  C       6.00   -1.118216166   -2.779797760    0.246335404
   4  O       8.00    1.311486792    1.104948561    0.588985013
   5  O       8.00    3.449277616    0.120055937   -0.251816779
   6  H       1.00   -4.820451896    0.840734404   -0.885173016
   7  H       1.00   -2.810170972    3.497069668   -0.609928747
   8  H       1.00   -3.393417707    1.597775633    2.069432982
   9  H       1.00   -0.460300514   -0.004447620   -2.676106559
  10  H       1.00   -2.697502104   -3.692551032   -0.717673846
  11  H       1.00   -1.471452829   -2.823792784    2.278120458
  12  H       1.00    0.607084238   -3.831575554   -0.161758318

 Bond lengths in Bohr (Angstrom)

 1-2  2.865403388  1-6  2.083019255  1-7  2.030100536  1-8  2.070813455  2-3  2.866549639
     ( 1.516306167)     ( 1.102286316)     ( 1.074282936)     ( 1.095827284)     ( 1.516912737)

  2- 4  2.768785090   2- 9  2.060865559   3-10  2.063147217   3-11  2.062731734   3-12  2.061416624
       ( 1.465177966)       ( 1.090563085)       ( 1.091770486)       ( 1.091550622)       ( 1.090854696)

 4-5  2.499422081
     ( 1.322637201)

 Bond angles

  1-2-3  113.82469981   1-2-4  105.12813932   1-2-9  111.42690011   2-1-6  109.51412712

  2- 1- 7  111.10243219   2- 1- 8  110.27936600   2- 3-10  109.80539260   2- 3-11  110.21174615

  2- 3-12  110.21796887   2- 4- 5  110.69487238   3- 2- 4  109.23250798   3- 2- 9  110.88392413

  4-2-9  105.85302994   6-1-7  108.70895067   6-1-8  108.32208007   7-1-8  108.85265444

 10- 3-11  108.64603135  10- 3-12  108.81031776  11- 3-12  109.11348537

 NUCLEAR CHARGE:                   41
 NUMBER OF PRIMITIVE AOS:         354
 NUMBER OF SYMMETRY AOS:          322
 NUMBER OF CONTRACTIONS:          248   ( 248A   )
 NUMBER OF CORE ORBITALS:           5   (   5A   )
 NUMBER OF VALENCE ORBITALS:       27   (  27A   )


 NUCLEAR REPULSION ENERGY  186.63329863


 Eigenvalues of metric

         1 0.808E-03 0.955E-03 0.110E-02 0.124E-02 0.135E-02 0.150E-02 0.161E-02 0.164E-02


 Contracted 2-electron integrals neglected if value below      1.0D-16
 AO integral compression algorithm  1   Integral accuracy      1.0D-16

     3372.745 MB (compressed) written to integral file ( 82.1%)

     Node minimum: 781.451 MB, node maximum: 1314.914 MB


 NUMBER OF SORTED TWO-ELECTRON INTEGRALS:  158903334.     BUFFER LENGTH:  32768
 NUMBER OF SEGMENTS:  10  SEGMENT LENGTH:   15997437      RECORD LENGTH: 524288

 Memory used in sort:      16.55 MW

 SORT1 READ   513506942. AND WROTE   152641940. INTEGRALS IN    442 RECORDS. CPU TIME:     7.17 SEC, REAL TIME:     8.14 SEC
 SORT2 READ   459430219. AND WROTE   476679126. INTEGRALS IN   8943 RECORDS. CPU TIME:     1.26 SEC, REAL TIME:     2.39 SEC

 Node minimum:   158882750.  Node maximum:   158903334. integrals

 OPERATOR DM      FOR CENTER  0  COORDINATES:    0.000000    0.000000    0.000000


 **********************************************************************************************************************************
 DATASETS  * FILE   NREC   LENGTH (MB)   RECORD NAMES
              1      18        5.04       500      610      700      900      950      970     1000      129      960     1100   
                                          VAR    BASINP    GEOM    SYMINP    ZMAT    AOBASIS   BASIS     P2S    ABASIS      S 
                                         1400     1410     1200     1210     1080     1600     1650     1700   
                                           T        V       H0       H01     AOSYM     SMH    MOLCAS    OPER   

 PROGRAMS   *        TOTAL       INT
 CPU TIMES  *        15.75     15.67
 REAL TIME  *        18.90 SEC
 DISK USED  *         9.15 GB      
 GA USED    *         0.01 MB       (max)       0.00 MB       (current)
 **********************************************************************************************************************************

1PROGRAM * RHF-SCF (OPEN SHELL)       Authors: W. Meyer, H.-J. Werner


 NUMBER OF ELECTRONS:      21+   20-    SPACE SYMMETRY=1    SPIN SYMMETRY: Doublet 
 CONVERGENCE THRESHOLDS:    1.00E-10 (Density)    1.00E-11 (Energy)
 MAX. NUMBER OF ITERATIONS:      200
 INTERPOLATION TYPE:            DIIS
 INTERPOLATION STEPS:              2 (START)      1 (STEP)
 LEVEL SHIFTS:                 -0.30 (CLOSED)  0.00 (OPEN) 



 Orbital guess generated from atomic densities. Full valence occupancy:   32

 Molecular orbital dump at record        2100.2

 ITERATION    DDIFF          GRAD             ENERGY        2-EL.EN.            DIPOLE MOMENTS         DIIS
    1      0.000D+00      0.000D+00      -267.26077726    559.814257   -1.78030   -0.07760   -0.09582    0
    2      0.000D+00      0.326D-02      -267.33439141    562.659286   -1.01561   -0.43026   -0.35930    1
    3      0.471D-02      0.230D-02      -267.36091943    561.611778   -1.18806   -0.24051   -0.21721    2
    4      0.211D-02      0.547D-03      -267.36916842    561.798856   -0.97557   -0.31191   -0.29849    3
    5      0.927D-03      0.485D-03      -267.37339674    561.841116   -0.91938   -0.31292   -0.30287    4
    6      0.583D-03      0.272D-03      -267.37532127    561.808096   -0.87784   -0.30589   -0.30082    5
    7      0.485D-03      0.133D-03      -267.37565658    561.793938   -0.88778   -0.29423   -0.29272    6
    8      0.258D-03      0.356D-04      -267.37567857    561.791203   -0.88733   -0.29099   -0.29124    7
    9      0.846D-04      0.189D-04      -267.37568943    561.791434   -0.88989   -0.29151   -0.29129    8
   10      0.446D-04      0.814D-05      -267.37569121    561.791321   -0.89106   -0.29087   -0.29099    9
   11      0.197D-04      0.315D-05      -267.37569144    561.791280   -0.89168   -0.29072   -0.29083    9
   12      0.777D-05      0.147D-05      -267.37569150    561.791502   -0.89182   -0.29081   -0.29087    9
   13      0.366D-05      0.524D-06      -267.37569151    561.791556   -0.89183   -0.29087   -0.29090    9
   14      0.148D-05      0.295D-06      -267.37569151    561.791554   -0.89182   -0.29089   -0.29091    9
   15      0.808D-06      0.144D-06      -267.37569151    561.791561   -0.89182   -0.29089   -0.29091    9
   16      0.406D-06      0.719D-07      -267.37569151    561.791564   -0.89181   -0.29090   -0.29091    9
   17      0.165D-06      0.318D-07      -267.37569151    561.791559   -0.89181   -0.29090   -0.29091    9
   18      0.967D-07      0.168D-07      -267.37569151    561.791556   -0.89181   -0.29090   -0.29091    9
   19      0.479D-07      0.707D-08      -267.37569151    561.791558   -0.89181   -0.29090   -0.29091    9
   20      0.171D-07      0.229D-08      -267.37569151    561.791557   -0.89181   -0.29090   -0.29091    9
   21      0.601D-08      0.129D-08      -267.37569151    561.791557   -0.89181   -0.29090   -0.29091    9
   22      0.363D-08      0.804D-09      -267.37569151    561.791557   -0.89181   -0.29090   -0.29091    9
   23      0.237D-08      0.422D-09      -267.37569151    561.791557   -0.89181   -0.29090   -0.29091    9
   24      0.152D-08      0.322D-09      -267.37569151    561.791557   -0.89181   -0.29090   -0.29091    9
   25      0.159D-08      0.263D-09      -267.37569151    561.791557   -0.89181   -0.29090   -0.29091    9
   26      0.190D-08      0.208D-09      -267.37569151    561.791557   -0.89181   -0.29090   -0.29091    9
   27      0.324D-08      0.149D-09      -267.37569151    561.791557   -0.89181   -0.29090   -0.29091    9
   28      0.307D-08      0.855D-10      -267.37569151    561.791557   -0.89181   -0.29090   -0.29091    9
   29      0.135D-08      0.469D-10      -267.37569151    561.791557   -0.89181   -0.29090   -0.29091    9
   30      0.713D-09      0.236D-10      -267.37569151    561.791557   -0.89181   -0.29090   -0.29091    9
   31      0.237D-09      0.107D-10      -267.37569151    561.791557   -0.89181   -0.29090   -0.29091    9
   32      0.898D-10      0.958D-11      -267.37569151    561.791557   -0.89181   -0.29090   -0.29091    0

 Final alpha occupancy:  21
 Final beta  occupancy:  20

 !RHF STATE 1.1 Energy               -267.375691513118
 Nuclear energy                       186.63329863
 One-electron energy                 -734.90476862
 Two-electron energy                  280.89577848
 Virial quotient                       -1.00115609
 !RHF STATE 1.1 Dipole moment          -0.89180978    -0.29089517    -0.29090780
 Dipole moment /Debye                  -2.26660591    -0.73933335    -0.73936545

 Orbital energies:

         1.1          2.1          3.1          4.1          5.1          6.1          7.1          8.1          9.1         10.1
    -20.648726   -20.640422   -11.297387   -11.228997   -11.225424    -1.523606    -1.170956    -1.034365    -0.953092    -0.819426

        11.1         12.1         13.1         14.1         15.1         16.1         17.1         18.1         19.1         20.1
     -0.695159    -0.668252    -0.652896    -0.596042    -0.562934    -0.556384    -0.544099    -0.501582    -0.490166    -0.465212

        21.1         22.1         23.1
     -0.562955     0.137754     0.174763


 **********************************************************************************************************************************
 DATASETS  * FILE   NREC   LENGTH (MB)   RECORD NAMES
              1      18        5.04       500      610      700      900      950      970     1000      129      960     1100   
                                          VAR    BASINP    GEOM    SYMINP    ZMAT    AOBASIS   BASIS     P2S    ABASIS      S 
                                         1400     1410     1200     1210     1080     1600     1650     1700   
                                           T        V       H0       H01     AOSYM     SMH    MOLCAS    OPER   

              2       3        2.21       700     1000     2100   
                                         GEOM     BASIS     RHF  

 PROGRAMS   *        TOTAL       RHF       INT
 CPU TIMES  *        53.63     37.88     15.67
 REAL TIME  *        60.29 SEC
 DISK USED  *         9.19 GB      
 SF USED    *         0.25 MB      
 GA USED    *         0.01 MB       (max)       0.00 MB       (current)
 **********************************************************************************************************************************


1PROGRAM * CCSD (Unrestricted open-shell coupled cluster)     Authors: C. Hampel, H.-J. Werner, 1991, M. Deegan, P.J. Knowles, 1992


 Convergence thresholds:  THRVAR = 1.00D-08  THRDEN = 1.00D-10

 CCSD(T)     terms to be evaluated (factor= 1.000)


 Number of core orbitals:           5 (   5 )
 Number of closed-shell orbitals:  15 (  15 )
 Number of active  orbitals:        1 (   1 )
 Number of external orbitals:     227 ( 227 )

 Memory could be reduced to 332.02 Mwords without degradation in triples

 Number of N-1 electron functions:              31
 Number of N-2 electron functions:             465
 Number of singly external CSFs:              7068
 Number of doubly external CSFs:          18353430
 Total number of CSFs:                    18360498

 Molecular orbitals read from record     2100.2  Type=RHF/CANONICAL (state 1.1)

 Integral transformation finished. Total CPU:  23.97 sec, npass=  1  Memory used: 145.25 MW

 Starting RMP2 calculation

 ITER.      SQ.NORM     CORR.ENERGY   TOTAL ENERGY   ENERGY CHANGE        DEN1      VAR(S)    VAR(P)  DIIS     TIME
   1      1.26535275    -0.96759527  -268.34328679    -0.96759527    -0.00323648  0.26D-04  0.11D-02  1  1    28.18
   2      1.26813772    -0.97108494  -268.34677645    -0.00348966    -0.00000666  0.10D-05  0.23D-05  2  2    30.98
   3      1.26821766    -0.97113785  -268.34682936    -0.00005291    -0.00000008  0.54D-07  0.11D-07  3  3    33.95
   4      1.26821937    -0.97113766  -268.34682917     0.00000019    -0.00000000  0.16D-08  0.12D-09  4  4    37.09
   5      1.26821963    -0.97113774  -268.34682926    -0.00000009    -0.00000000  0.19D-10  0.46D-11  5  5    40.37
   6      1.26821969    -0.97113778  -268.34682929    -0.00000003    -0.00000000  0.50D-13  0.56D-13  6  6    43.97
   7      1.26821969    -0.97113778  -268.34682929     0.00000000    -0.00000000  0.15D-14  0.86D-15  6  1    47.61
   8      1.26821969    -0.97113778  -268.34682929     0.00000000    -0.00000000  0.16D-16  0.79D-17  6  2    51.07
   9      1.26821969    -0.97113778  -268.34682929    -0.00000000    -0.00000000  0.31D-18  0.10D-18  6  3    54.54

 Norm of t1 vector:      0.04588972      S-energy:    -0.00446734      T1 diagnostic:  0.00074399
 Norm of t2 vector:      0.51586221      P-energy:    -0.96667044
                                         Alpha-Beta:  -0.73707696
                                         Alpha-Alpha: -0.11898848
                                         Beta-Beta:   -0.11060500

 Spin contamination <S**2-Sz**2-Sz>     0.00145405
  Reference energy                   -267.375691513120
  RHF-RMP2 correlation energy          -0.971137777390
 !RHF-RMP2 energy                    -268.346829290511

 Starting UCCSD calculation

 ITER.      SQ.NORM     CORR.ENERGY   TOTAL ENERGY   ENERGY CHANGE        DEN1      VAR(S)    VAR(P)  DIIS     TIME
   1      1.27982657    -0.97925891  -268.35495043    -0.97925891    -0.02933201  0.65D-02  0.54D-02  1  1   132.04
   2      1.30623068    -1.00588319  -268.38157471    -0.02662428    -0.00363512  0.62D-03  0.97D-03  2  2   208.90
   3      1.32287976    -1.01270675  -268.38839826    -0.00682356    -0.00091216  0.75D-03  0.76D-04  3  3   286.11
   4      1.33411866    -1.01536592  -268.39105743    -0.00265917    -0.00038524  0.31D-03  0.33D-04  4  4   363.40
   5      1.34919427    -1.01736337  -268.39305489    -0.00199745    -0.00011796  0.10D-03  0.90D-05  5  5   441.05
   6      1.36072993    -1.01838661  -268.39407813    -0.00102324    -0.00001812  0.93D-05  0.32D-05  6  6   518.66
   7      1.36442016    -1.01862714  -268.39431865    -0.00024053    -0.00000316  0.16D-05  0.61D-06  6  1   596.26
   8      1.36502501    -1.01866931  -268.39436082    -0.00004216    -0.00000067  0.27D-06  0.15D-06  6  2   673.79
   9      1.36534561    -1.01868774  -268.39437925    -0.00001843    -0.00000015  0.66D-07  0.32D-07  6  4   751.34
  10      1.36533205    -1.01868646  -268.39437797     0.00000128    -0.00000002  0.11D-07  0.43D-08  6  3   829.04
  11      1.36539464    -1.01869157  -268.39438308    -0.00000511    -0.00000000  0.24D-08  0.94D-09  6  5   906.62
  12      1.36538705    -1.01868907  -268.39438059     0.00000249    -0.00000000  0.10D-08  0.21D-09  6  6   984.52
  13      1.36538261    -1.01868792  -268.39437943     0.00000116    -0.00000000  0.60D-09  0.54D-10  6  1  1062.25
  14      1.36536986    -1.01868643  -268.39437794     0.00000149    -0.00000000  0.40D-09  0.21D-10  6  2  1139.98
  15      1.36536401    -1.01868573  -268.39437724     0.00000070    -0.00000000  0.32D-09  0.16D-10  6  3  1217.60
  16      1.36536111    -1.01868557  -268.39437709     0.00000016    -0.00000000  0.24D-09  0.13D-10  6  4  1295.58
  17      1.36536050    -1.01868558  -268.39437709    -0.00000001    -0.00000000  0.12D-09  0.13D-10  6  5  1373.20
  18      1.36536309    -1.01868575  -268.39437726    -0.00000017    -0.00000000  0.27D-10  0.53D-11  6  6  1450.68
  19      1.36536616    -1.01868606  -268.39437757    -0.00000031    -0.00000000  0.25D-11  0.16D-11  6  2  1528.19
  20      1.36536556    -1.01868592  -268.39437744     0.00000013    -0.00000000  0.57D-12  0.16D-12  6  1  1605.84
  21      1.36536585    -1.01868597  -268.39437748    -0.00000004    -0.00000000  0.19D-12  0.56D-13  6  4  1683.33
  22      1.36536575    -1.01868595  -268.39437747     0.00000001    -0.00000000  0.66D-13  0.18D-13  6  2  1761.14
  23      1.36536583    -1.01868596  -268.39437748    -0.00000001    -0.00000000  0.19D-13  0.36D-14  6  3  1838.68
  24      1.36536576    -1.01868596  -268.39437747     0.00000001    -0.00000000  0.21D-14  0.66D-15  6  5  1916.19
  25      1.36536575    -1.01868595  -268.39437747     0.00000000    -0.00000000  0.62D-15  0.19D-15  6  6  1993.83
  26      1.36536574    -1.01868595  -268.39437746     0.00000000    -0.00000000  0.30D-15  0.70D-16  6  1  2071.34
  27      1.36536574    -1.01868595  -268.39437747    -0.00000000    -0.00000000  0.17D-15  0.16D-16  6  4  2148.86
  28      1.36536575    -1.01868595  -268.39437747    -0.00000000    -0.00000000  0.13D-15  0.74D-17  6  2  2226.50
  29      1.36536575    -1.01868595  -268.39437747    -0.00000000    -0.00000000  0.98D-16  0.52D-17  6  3  2304.03
  30      1.36536575    -1.01868595  -268.39437747     0.00000000    -0.00000000  0.56D-16  0.47D-17  6  5  2381.77

 Norm of t1 vector:      0.23121551      S-energy:    -0.00501468      T1 diagnostic:  0.02849166
                                                                       D1 diagnostic:  0.14600966
 Norm of t2 vector:      0.55848468      P-energy:    -1.01367128
                                         Alpha-Beta:  -0.80137172
                                         Alpha-Alpha: -0.10868337
                                         Beta-Beta:   -0.10361619

 Singles amplitudes (print threshold =  0.500E-01):

         I         SYM. A    A   T(IA) [Beta-Beta]

         8         1         1     -0.09508543
         9         1         1      0.10102617
        11         1         1     -0.05928830
        12         1         1     -0.06684770
        14         1         1     -0.11197671

 Spin contamination <S**2-Sz**2-Sz>     0.00176096

 Memory could be reduced to 360.52 Mwords without degradation in triples
 

 RESULTS
 =======

  Reference energy                   -267.375691513120
  UCCSD singles energy                 -0.005014675633
  UCCSD pair energy                    -1.013671277025
  UCCSD correlation energy             -1.018685952658
  Triples (T) contribution             -0.040834310808
  Total correlation energy             -1.059520263466
 
  RHF-UCCSD energy                   -268.394377465778
  RHF-UCCSD[T] energy                -268.438533538787
  RHF-UCCSD-T energy                 -268.434714303876
 !RHF-UCCSD(T) energy                -268.435211776586

 Program statistics:

 Available memory in ccsd:               999997692
 Min. memory needed in ccsd:              51505734
 Max. memory used in ccsd:                74803578
 Max. memory used in cckext:              59475747 (30 integral passes)
 Max. memory used in cckint:             145249478 ( 1 integral passes)



 **********************************************************************************************************************************
 DATASETS  * FILE   NREC   LENGTH (MB)   RECORD NAMES
              1      18        5.04       500      610      700      900      950      970     1000      129      960     1100   
                                          VAR    BASINP    GEOM    SYMINP    ZMAT    AOBASIS   BASIS     P2S    ABASIS      S 
                                         1400     1410     1200     1210     1080     1600     1650     1700   
                                           T        V       H0       H01     AOSYM     SMH    MOLCAS    OPER   

              2       3        2.21       700     1000     2100   
                                         GEOM     BASIS     RHF  

 PROGRAMS   *        TOTAL  UCCSD(T)       RHF       INT
 CPU TIMES  *      3864.39   3810.76     37.88     15.67
 REAL TIME  *      3950.31 SEC
 DISK USED  *        16.17 GB      
 SF USED    *         6.57 GB      
 GA USED    *         0.01 MB       (max)       0.00 MB       (current)
 **********************************************************************************************************************************

        UCCSD(T)        RHF-SCF 
   -268.43521178   -267.37569151
 **********************************************************************************************************************************
 Variable memory released
