[Molden Format]                                                                 
[ATOMS] AU                                                                      
C        1    6       -1.3811192214       -0.0237873806        0.0000683699     
O        2    8        1.3112168915        0.1270090504        0.0030984386     
H        3    1       -2.1178387097       -1.0296712925        1.6669982345     
H        4    1       -2.0136787347       -0.9975373586       -1.7190296006     
H        5    1       -2.1774435164        1.8918028189       -0.0003725203     
H        6    1        1.9437473260       -1.5970876964        0.0024153486     
[Molden Format]                                                                 
[GTO]                                                                           
  1 0
s  10 1.00
   3047.52488000000       1.834700000000000E-003                                
   457.369518000000       1.403730000000000E-002                                
   103.948685000000       6.884260000000000E-002                                
   29.2101553000000       0.232184400000000                                     
   9.28666300000000       0.467941300000000                                     
   3.16392700000000       0.362312000000000                                     
   7.86827240000000       0.000000000000000E+000                                
   1.88128850000000       0.000000000000000E+000                                
  0.544249300000000       0.000000000000000E+000                                
  0.168714500000000       0.000000000000000E+000                                
s  10 1.00
   3047.52488000000       0.000000000000000E+000                                
   457.369518000000       0.000000000000000E+000                                
   103.948685000000       0.000000000000000E+000                                
   29.2101553000000       0.000000000000000E+000                                
   9.28666300000000       0.000000000000000E+000                                
   3.16392700000000       0.000000000000000E+000                                
   7.86827240000000      -0.119332400000000                                     
   1.88128850000000      -0.160854200000000                                     
  0.544249300000000        1.14345640000000                                     
  0.168714500000000       0.000000000000000E+000                                
s  10 1.00
   3047.52488000000       0.000000000000000E+000                                
   457.369518000000       0.000000000000000E+000                                
   103.948685000000       0.000000000000000E+000                                
   29.2101553000000       0.000000000000000E+000                                
   9.28666300000000       0.000000000000000E+000                                
   3.16392700000000       0.000000000000000E+000                                
   7.86827240000000       0.000000000000000E+000                                
   1.88128850000000       0.000000000000000E+000                                
  0.544249300000000       0.000000000000000E+000                                
  0.168714500000000        1.00000000000000                                     
p   4 1.00
   7.86827240000000       6.899909999999999E-002                                
   1.88128850000000       0.316424000000000                                     
  0.544249300000000       0.744308300000000                                     
  0.168714500000000       0.000000000000000E+000                                
p   4 1.00
   7.86827240000000       0.000000000000000E+000                                
   1.88128850000000       0.000000000000000E+000                                
  0.544249300000000       0.000000000000000E+000                                
  0.168714500000000        1.00000000000000                                     
d   1 1.00
  0.800000000000000        1.00000000000000                                     
 
  2 0
s  10 1.00
   5484.67166000000       1.831100000000000E-003                                
   825.234946000000       1.395020000000000E-002                                
   188.046958000000       6.844509999999999E-002                                
   52.9645000000000       0.232714300000000                                     
   16.8975704000000       0.470192900000000                                     
   5.79963530000000       0.358520900000000                                     
   15.5396162000000       0.000000000000000E+000                                
   3.59993360000000       0.000000000000000E+000                                
   1.01376180000000       0.000000000000000E+000                                
  0.270005800000000       0.000000000000000E+000                                
s  10 1.00
   5484.67166000000       0.000000000000000E+000                                
   825.234946000000       0.000000000000000E+000                                
   188.046958000000       0.000000000000000E+000                                
   52.9645000000000       0.000000000000000E+000                                
   16.8975704000000       0.000000000000000E+000                                
   5.79963530000000       0.000000000000000E+000                                
   15.5396162000000      -0.110777500000000                                     
   3.59993360000000      -0.148026300000000                                     
   1.01376180000000        1.13076700000000                                     
  0.270005800000000       0.000000000000000E+000                                
s  10 1.00
   5484.67166000000       0.000000000000000E+000                                
   825.234946000000       0.000000000000000E+000                                
   188.046958000000       0.000000000000000E+000                                
   52.9645000000000       0.000000000000000E+000                                
   16.8975704000000       0.000000000000000E+000                                
   5.79963530000000       0.000000000000000E+000                                
   15.5396162000000       0.000000000000000E+000                                
   3.59993360000000       0.000000000000000E+000                                
   1.01376180000000       0.000000000000000E+000                                
  0.270005800000000        1.00000000000000                                     
p   4 1.00
   15.5396162000000       7.087430000000000E-002                                
   3.59993360000000       0.339752800000000                                     
   1.01376180000000       0.727158600000000                                     
  0.270005800000000       0.000000000000000E+000                                
p   4 1.00
   15.5396162000000       0.000000000000000E+000                                
   3.59993360000000       0.000000000000000E+000                                
   1.01376180000000       0.000000000000000E+000                                
  0.270005800000000        1.00000000000000                                     
d   1 1.00
  0.800000000000000        1.00000000000000                                     
 
  3 0
s   4 1.00
   18.7311370000000       3.349460000000000E-002                                
   2.82539440000000       0.234727000000000                                     
  0.640121700000000       0.813757300000000                                     
  0.161277800000000       0.000000000000000E+000                                
s   4 1.00
   18.7311370000000       0.000000000000000E+000                                
   2.82539440000000       0.000000000000000E+000                                
  0.640121700000000       0.000000000000000E+000                                
  0.161277800000000        1.00000000000000                                     
 
  4 0
s   4 1.00
   18.7311370000000       3.349460000000000E-002                                
   2.82539440000000       0.234727000000000                                     
  0.640121700000000       0.813757300000000                                     
  0.161277800000000       0.000000000000000E+000                                
s   4 1.00
   18.7311370000000       0.000000000000000E+000                                
   2.82539440000000       0.000000000000000E+000                                
  0.640121700000000       0.000000000000000E+000                                
  0.161277800000000        1.00000000000000                                     
 
  5 0
s   4 1.00
   18.7311370000000       3.349460000000000E-002                                
   2.82539440000000       0.234727000000000                                     
  0.640121700000000       0.813757300000000                                     
  0.161277800000000       0.000000000000000E+000                                
s   4 1.00
   18.7311370000000       0.000000000000000E+000                                
   2.82539440000000       0.000000000000000E+000                                
  0.640121700000000       0.000000000000000E+000                                
  0.161277800000000        1.00000000000000                                     
 
  6 0
s   4 1.00
   18.7311370000000       3.349460000000000E-002                                
   2.82539440000000       0.234727000000000                                     
  0.640121700000000       0.813757300000000                                     
  0.161277800000000       0.000000000000000E+000                                
s   4 1.00
   18.7311370000000       0.000000000000000E+000                                
   2.82539440000000       0.000000000000000E+000                                
  0.640121700000000       0.000000000000000E+000                                
  0.161277800000000        1.00000000000000                                     
 
                                                                                
[MO]
 Sym= A
 Ene=  -20.5550339573420     
 Spin= Alpha
 Occup= 1.0
  1        0.0000448829
  2        0.0003510325
  3       -0.0048501435
  4       -0.0005881756
  5        0.0000444801
  6       -0.0000043156
  7       -0.0019467994
  8       -0.0000956535
  9        0.0000469914
 10       -0.0000028227
 11        0.0000109066
 12       -0.0000080839
 13        0.0000778117
 14        0.0000019350
 15       -0.0000079627
 16       -0.9958352210
 17       -0.0225518488
 18        0.0101252281
 19        0.0010455317
 20        0.0013210788
 21       -0.0000044497
 22       -0.0024181237
 23       -0.0015209623
 24       -0.0000084528
 25        0.0002492473
 26       -0.0000059190
 27       -0.0002433284
 28       -0.0000869337
 29        0.0000010795
 30       -0.0000012549
 31        0.0003126977
 32        0.0003692989
 33        0.0003365665
 34        0.0004227812
 35        0.0003189714
 36        0.0004443099
 37       -0.0004481467
 38       -0.0015301322
 Sym= A
 Ene=  -11.2709765992018     
 Spin= Alpha
 Occup= 1.0
  1        0.9962059003
  2        0.0247751097
  3       -0.0137186628
  4        0.0008311692
  5       -0.0000157588
  6        0.0000024540
  7        0.0008533645
  8        0.0000555069
  9        0.0000494723
 10        0.0001200906
 11       -0.0000528891
 12       -0.0000672016
 13       -0.0000052628
 14       -0.0000099805
 15        0.0000014953
 16       -0.0000529792
 17        0.0003089718
 18        0.0002629998
 19       -0.0000915217
 20       -0.0000702202
 21       -0.0000036387
 22        0.0004322772
 23        0.0002850337
 24        0.0000183509
 25       -0.0004694012
 26        0.0002140696
 27        0.0002553316
 28       -0.0000426454
 29       -0.0000073678
 30       -0.0000031704
 31       -0.0000692889
 32        0.0029148751
 33       -0.0000624258
 34        0.0029531059
 35       -0.0000661802
 36        0.0029084069
 37        0.0000359897
 38        0.0004874966
 Sym= A
 Ene=  -1.34645371892035     
 Spin= Alpha
 Occup= 1.0
  1        0.0698190483
  2       -0.1337632326
  3       -0.0420097935
  4       -0.0926466956
  5       -0.0008451904
  6        0.0003508597
  7        0.0066563646
  8        0.0055229456
  9       -0.0003623754
 10       -0.0113436909
 11        0.0055629782
 12        0.0057807128
 13       -0.0003815405
 14       -0.0000215968
 15       -0.0000886938
 16        0.2066922503
 17       -0.4513002125
 18       -0.4797125639
 19        0.0483956864
 20        0.0685812371
 21        0.0004079535
 22        0.0350942570
 23        0.0450339379
 24        0.0002858585
 25       -0.0030413040
 26       -0.0051729125
 27        0.0082142165
 28        0.0043174783
 29       -0.0000088094
 30       -0.0000363643
 31       -0.0244883391
 32       -0.0012870377
 33       -0.0257042516
 34       -0.0020625058
 35       -0.0244789021
 36       -0.0056875256
 37       -0.1203206437
 38        0.0092473850
 Sym= A
 Ene= -0.920189563710518     
 Spin= Alpha
 Occup= 1.0
  1        0.1795020832
  2       -0.3541988302
  3       -0.3455954801
  4        0.0725949508
  5       -0.0075932052
  6        0.0025090502
  7        0.0401061141
  8        0.0087928602
  9        0.0005949021
 10        0.0065699129
 11       -0.0037091546
 12       -0.0028607583
 13       -0.0002509302
 14        0.0007300895
 15       -0.0000994010
 16       -0.0598114143
 17        0.1351833728
 18        0.1867780639
 19        0.1753233799
 20       -0.0674815942
 21        0.0010662938
 22        0.0909219443
 23       -0.0384566054
 24        0.0006830509
 25       -0.0102925177
 26        0.0096363794
 27        0.0006561383
 28       -0.0111263305
 29       -0.0000459679
 30       -0.0000618562
 31       -0.1360839155
 32       -0.0347918103
 33       -0.1365466620
 34       -0.0349095972
 35       -0.1425131292
 36       -0.0420808988
 37        0.0983884225
 38        0.0252111541
 Sym= A
 Ene= -0.680265137679630     
 Spin= Alpha
 Occup= 1.0
  1        0.0183029900
  2       -0.0310265137
  3       -0.0698001473
  4        0.1734504026
  5        0.2125875036
  6       -0.0006391273
  7        0.0557247858
  8        0.1024409316
  9       -0.0002367027
 10        0.0119910819
 11       -0.0004712741
 12       -0.0115198078
 13        0.0043165366
 14        0.0008343108
 15        0.0002790595
 16       -0.0395084032
 17        0.0969593377
 18        0.1438055620
 19       -0.2007146890
 20        0.3819527453
 21        0.0000170112
 22       -0.1172193209
 23        0.2377057877
 24        0.0001565482
 25        0.0130933054
 26       -0.0191678867
 27        0.0060745813
 28        0.0027732077
 29       -0.0000436499
 30       -0.0000619319
 31       -0.1080555396
 32       -0.0645756755
 33       -0.1025979423
 34       -0.0609569528
 35        0.0519114915
 36        0.0299774262
 37       -0.2160547310
 38       -0.1034652628
 Sym= A
 Ene= -0.615852653314788     
 Spin= Alpha
 Occup= 1.0
  1        0.0008088174
  2       -0.0013832788
  3       -0.0064342752
  4        0.0248779853
  5       -0.0174774600
  6       -0.3779943646
  7        0.0093401279
  8       -0.0096035936
  9       -0.1737171479
 10        0.0005059222
 11       -0.0013747256
 12        0.0008688034
 13        0.0001347130
 14        0.0064111753
 15        0.0243485544
 16        0.0027088283
 17       -0.0066886039
 18       -0.0101657521
 19       -0.0261913628
 20       -0.0106700417
 21       -0.3354803384
 22       -0.0178253291
 23       -0.0073447160
 24       -0.2259751792
 25        0.0005316626
 26       -0.0001717410
 27       -0.0003599216
 28        0.0018902750
 29        0.0137778098
 30        0.0147341640
 31       -0.1819936268
 32       -0.1418099421
 33        0.1866545327
 34        0.1448913234
 35       -0.0161722030
 36       -0.0107689096
 37       -0.0020752425
 38       -0.0025427432
 Sym= A
 Ene= -0.588437103645968     
 Spin= Alpha
 Occup= 1.0
  1        0.0003691758
  2       -0.0021893436
  3        0.0469447531
  4       -0.2898681990
  5        0.2454983129
  6       -0.0278448577
  7       -0.1118312513
  8        0.1459069255
  9       -0.0138863469
 10       -0.0163555116
 11        0.0160491302
 12        0.0003063814
 13       -0.0125600405
 14        0.0000837061
 15        0.0015105216
 16       -0.0253109066
 17        0.0627635525
 18        0.0924901839
 19        0.3905685769
 20        0.1097704474
 21       -0.0287219108
 22        0.2709545453
 23        0.0747313633
 24       -0.0199873884
 25       -0.0087987965
 26        0.0039058254
 27        0.0048929711
 28       -0.0264763700
 29        0.0011888824
 30        0.0012533434
 31       -0.0236938997
 32       -0.0163598719
 33       -0.0001156862
 34        0.0035396089
 35        0.2115413398
 36        0.1458581002
 37        0.0483619102
 38        0.0460903725
 Sym= A
 Ene= -0.497524713825242     
 Spin= Alpha
 Occup= 1.0
  1        0.0079647525
  2       -0.0223232519
  3        0.0175740665
  4       -0.1044656376
  5       -0.3124720814
  6        0.0000220564
  7       -0.0231383251
  8       -0.1446978499
  9       -0.0007901585
 10       -0.0071743940
 11       -0.0071942577
 12        0.0143686517
 13        0.0299584306
 14       -0.0011970001
 15       -0.0003432047
 16       -0.0457277862
 17        0.1117724381
 18        0.1906040328
 19        0.1969820409
 20        0.3651770281
 21       -0.0079981993
 22        0.1624023869
 23        0.2866173746
 24       -0.0062799535
 25        0.0010134088
 26       -0.0111909726
 27        0.0101775637
 28       -0.0065395738
 29        0.0003141169
 30        0.0003373570
 31        0.1291166439
 32        0.1302601769
 33        0.1214224621
 34        0.1220986609
 35       -0.1937993722
 36       -0.1813928666
 37       -0.1343089136
 38       -0.0905783039
 Sym= A
 Ene= -0.444272546172084     
 Spin= Alpha
 Occup= 1.0
  1        0.0003763692
  2        0.0000757451
  3       -0.0050971283
  4        0.0011228333
  5        0.0033782760
  6        0.2385720530
  7        0.0011836243
  8        0.0026025206
  9        0.1033856575
 10        0.0009593917
 11        0.0000909632
 12       -0.0010503548
 13        0.0002699609
 14       -0.0353930205
 15       -0.0211365548
 16        0.0000617514
 17       -0.0000913518
 18        0.0005506254
 19       -0.0094446304
 20       -0.0054330220
 21       -0.5484812695
 22       -0.0075442209
 23       -0.0046204939
 24       -0.4567350157
 25        0.0000343108
 26        0.0001405845
 27       -0.0001748953
 28        0.0002792858
 29        0.0079955959
 30        0.0213315823
 31        0.1620397744
 32        0.1764987855
 33       -0.1683470627
 34       -0.1792431868
 35        0.0016415222
 36        0.0018543606
 37        0.0009462584
 38        0.0001840669
 Sym= A
 Ene=  0.223261790997826     
 Spin= Alpha
 Occup= 0.0
  1        0.0553812092
  2       -0.0194791291
  3       -1.1181170483
  4        0.1558032719
  5        0.0543287222
  6        0.0065301496
  7        0.5552213800
  8        0.1214149702
  9        0.0286404494
 10       -0.0053149598
 11        0.0042181602
 12        0.0010967996
 13        0.0038287685
 14        0.0000969680
 15        0.0001479959
 16        0.0675390256
 17       -0.0905287885
 18       -0.9001876844
 19       -0.0238560294
 20        0.1889477131
 21       -0.0006488175
 22       -0.0727251251
 23        0.4429110716
 24       -0.0023038202
 25        0.0014380864
 26       -0.0073230265
 27        0.0058849401
 28       -0.0018429789
 29       -0.0000796740
 30        0.0000891990
 31        0.0011798339
 32        0.6548318855
 33        0.0043466205
 34        0.6836954875
 35        0.0022872306
 36        0.4333552357
 37        0.0631112776
 38        1.1990823926
 Sym= A
 Ene=  0.276529719959777     
 Spin= Alpha
 Occup= 0.0
  1        0.1363928508
  2       -0.1172766393
  3       -2.3205031644
  4        0.0564702290
  5       -0.0314059473
  6       -0.0091480902
  7        0.2078152735
  8       -0.1052184248
  9       -0.0221901599
 10        0.0025294366
 11       -0.0026156054
 12        0.0000861689
 13       -0.0030351274
 14        0.0004150511
 15       -0.0002757279
 16       -0.0505350984
 17        0.0525519940
 18        0.7530735278
 19       -0.0489871777
 20       -0.1290552449
 21        0.0046534521
 22       -0.1552604329
 23       -0.2834123826
 24        0.0093417332
 25       -0.0031222107
 26        0.0053174420
 27       -0.0021952313
 28        0.0061671873
 29        0.0002269468
 30       -0.0003056400
 31       -0.0000339817
 32        1.0256609811
 33       -0.0022004790
 34        0.9572436343
 35        0.0042123573
 36        1.2100251904
 37       -0.0529268817
 38       -0.7777950065
 Sym= A
 Ene=  0.320227489740083     
 Spin= Alpha
 Occup= 0.0
  1        0.0133460007
  2        0.0004268534
  3       -0.2025194139
  4       -0.0426382465
  5        0.3390080481
  6       -0.0309502784
  7       -0.2951865160
  8        1.4594393531
  9       -0.1126359867
 10        0.0027751431
 11       -0.0085107519
 12        0.0057356088
 13        0.0035110723
 14        0.0000580074
 15       -0.0012065785
 16       -0.0103075506
 17        0.0062482344
 18        0.1919382486
 19       -0.0609774463
 20       -0.0659665477
 21        0.0092277548
 22       -0.1268130980
 23       -0.2320365400
 24        0.0233837641
 25        0.0006069744
 26       -0.0000414920
 27       -0.0005654824
 28       -0.0098669112
 29        0.0006746490
 30       -0.0010352508
 31        0.0282476279
 32        1.0721649366
 33        0.0226225192
 34        0.8002401155
 35       -0.0609100945
 36       -1.8467356006
 37        0.0174051857
 38        0.0090746668
 Sym= A
 Ene=  0.324771387592069     
 Spin= Alpha
 Occup= 0.0
  1        0.0008390425
  2        0.0035245881
  3       -0.0440412409
  4        0.0011994275
  5        0.0243127159
  6        0.3656871344
  7       -0.0042714809
  8        0.1265139764
  9        1.4811233367
 10       -0.0006088103
 11       -0.0006278262
 12        0.0012366364
 13       -0.0004723391
 14       -0.0019262874
 15        0.0110640695
 16       -0.0011114394
 17       -0.0017290604
 18        0.0359351660
 19        0.0118219826
 20       -0.0156646557
 21       -0.0765396901
 22        0.0235203420
 23       -0.0446249244
 24       -0.2426663076
 25       -0.0005567067
 26        0.0002735226
 27        0.0002831841
 28       -0.0008125684
 29       -0.0066175395
 30        0.0122648641
 31       -0.0279957029
 32       -1.5179068582
 33        0.0362061227
 34        1.7500409003
 35       -0.0050474192
 36       -0.1405851723
 37       -0.0043355427
 38       -0.0815082997
 Sym= A
 Ene=  0.377580589489919     
 Spin= Alpha
 Occup= 0.0
  1        0.0633956935
  2       -0.0562328927
  3       -0.8898007985
  4       -0.2046501045
  5       -0.0242694952
  6        0.0170036721
  7       -1.5417085856
  8       -0.3103860123
  9        0.0705873262
 10        0.0120908737
 11       -0.0029198160
 12       -0.0091710577
 13        0.0063896289
 14        0.0003235348
 15        0.0001760967
 16       -0.0468716861
 17        0.0574685188
 18        0.7624377494
 19       -0.3099165214
 20        0.1178138804
 21       -0.0024303111
 22       -0.9496686622
 23        0.3062867550
 24       -0.0101743756
 25        0.0138821441
 26       -0.0080821944
 27       -0.0057999497
 28        0.0095733898
 29       -0.0003358077
 30        0.0006127527
 31       -0.0600447646
 32       -0.3458340707
 33       -0.0667236586
 34       -0.1323435530
 35       -0.0405707137
 36        0.1476310890
 37        0.0268132216
 38        0.9315261102
 Sym= A
 Ene=  0.767813061380292     
 Spin= Alpha
 Occup= 0.0
  1        0.0145877585
  2       -0.1654441162
  3        0.2025272224
  4       -0.3321055178
  5       -0.6774396894
  6       -0.0535082269
  7        0.3189735098
  8        1.4719442891
  9        0.1092967856
 10        0.0183608491
 11       -0.0572409619
 12        0.0388801128
 13        0.0522933058
 14       -0.0016296410
 15        0.0045456685
 16        0.0075655747
 17       -0.0094279081
 18       -0.2827313962
 19       -0.1894856558
 20       -0.0540856422
 21       -0.0055666298
 22        0.0282718056
 23       -0.1260786381
 24       -0.0151713498
 25       -0.0370991468
 26        0.0211456535
 27        0.0159534933
 28       -0.0089478881
 29        0.0020709794
 30        0.0013200493
 31        0.2425186475
 32        0.0848379707
 33        0.2783712323
 34        0.1264348071
 35       -0.4514608193
 36       -0.2504391287
 37        0.1500418617
 38        0.0933574544
 Sym= A
 Ene=  0.775912589113870     
 Spin= Alpha
 Occup= 0.0
  1        0.0041898434
  2       -0.0513924405
  3        0.0745234881
  4       -0.1359897416
  5       -0.0051528086
  6        0.7162238554
  7        0.2305398109
  8        0.0039143994
  9       -1.6559062170
 10        0.0055899718
 11       -0.0011800099
 12       -0.0044099619
 13        0.0057160684
 14       -0.0294861952
 15       -0.1087998100
 16       -0.0015043038
 17        0.0244159483
 18       -0.1194840901
 19       -0.0386338229
 20       -0.0101077526
 21        0.1819303179
 22        0.0275806980
 23        0.0114299734
 24        0.1974213895
 25       -0.0124470835
 26        0.0071848493
 27        0.0052622341
 28       -0.0015397999
 29       -0.0071241548
 30       -0.0187865353
 31        0.4467053541
 32        0.3100282914
 33       -0.4104467463
 34       -0.3084410313
 35        0.0129605665
 36        0.0177111160
 37        0.0244275176
 38       -0.0437326774
 Sym= A
 Ene=  0.787663216834869     
 Spin= Alpha
 Occup= 0.0
  1        0.0362140095
  2       -0.4002366277
  3        0.3632158005
  4       -0.9300734873
  5        0.2671860744
  6       -0.1047216324
  7        1.1867979360
  8       -0.6593682783
  9        0.2138556586
 10        0.0289871527
 11        0.0056008635
 12       -0.0345880162
 13       -0.0086125020
 14        0.0032146916
 15        0.0128551633
 16       -0.0296968818
 17        0.2099717265
 18       -0.5328342906
 19       -0.2143100413
 20       -0.0109518301
 21       -0.0227651000
 22        0.0198427464
 23        0.1076978324
 24       -0.0237650750
 25       -0.0799074699
 26        0.0418221547
 27        0.0380853152
 28        0.0057716243
 29        0.0016007033
 30        0.0022472462
 31       -0.0449699984
 32       -0.0740898063
 33        0.0498655673
 34        0.0058687766
 35        0.2837102823
 36        0.2007702327
 37        0.0591222236
 38       -0.2880445354
 Sym= A
 Ene=   1.04474570934139     
 Spin= Alpha
 Occup= 0.0
  1        0.0014600988
  2        0.0073476825
  3        0.1733043626
  4       -0.0931888851
  5       -0.5803160342
  6       -0.0029800941
  7        0.0782175972
  8        1.0947244353
  9       -0.0121025126
 10        0.0495153817
 11       -0.0042682533
 12       -0.0452471285
 13       -0.1430085385
 14        0.0015025696
 15       -0.0029832125
 16       -0.0202373383
 17        0.0734380878
 18       -0.1348105372
 19       -0.1551293345
 20       -0.2132701972
 21        0.0059139164
 22        0.3813204785
 23       -0.2868295435
 24       -0.0009480355
 25        0.0004684401
 26       -0.0551230842
 27        0.0546546441
 28        0.1371360046
 29        0.0003633574
 30       -0.0006876412
 31       -0.2870971305
 32        0.5441891386
 33       -0.2944375811
 34        0.5193366256
 35        0.3725162236
 36       -1.0352956797
 37       -0.8694871580
 38        0.5454964675
 Sym= A
 Ene=   1.12097490488770     
 Spin= Alpha
 Occup= 0.0
  1        0.0052596435
  2        0.0269101631
  3       -0.0657711688
  4        0.0354868452
  5        0.0405884193
  6       -0.8817560713
  7       -0.0300674637
  8       -0.0607442951
  9        1.3600075844
 10        0.0022400810
 11       -0.0010606623
 12       -0.0011794187
 13        0.0078355967
 14       -0.1408744178
 15       -0.1487894808
 16       -0.0011809210
 17        0.0128154634
 18        0.0015091209
 19       -0.0142921796
 20       -0.0179491500
 21        0.2017190494
 22        0.0261351036
 23        0.0093538951
 24       -0.2831756886
 25        0.0044812795
 26       -0.0049197073
 27        0.0004384278
 28       -0.0016874197
 29        0.1032119374
 30        0.0161679434
 31        0.7054879898
 32       -1.3669084533
 33       -0.6114816471
 34        1.3052350605
 35        0.0081900732
 36        0.0551717305
 37       -0.0330147153
 38        0.0243110983
 Sym= A
 Ene=   1.15723687011966     
 Spin= Alpha
 Occup= 0.0
  1        0.0207679798
  2       -0.0358011271
  3       -0.3639700752
  4        0.0946551185
  5       -0.6276392858
  6       -0.0307258964
  7       -0.1815823746
  8        0.9616581624
  9        0.0628819715
 10       -0.0534664753
 11        0.0862272877
 12       -0.0327608123
 13       -0.0713959225
 14       -0.0056710170
 15       -0.0035668039
 16       -0.0071276108
 17        0.0587965661
 18        0.1377773439
 19        0.1936567034
 20        0.5578975417
 21        0.0250827226
 22       -0.4778964983
 23       -0.4190180034
 24       -0.0305606514
 25       -0.0142985610
 26        0.0476907513
 27       -0.0333921903
 28        0.0046408029
 29        0.0033640330
 30        0.0015654319
 31       -0.0515835999
 32        0.4485553165
 33       -0.0902276145
 34        0.5421777557
 35        0.7295007478
 36       -1.1447250404
 37        0.4837623318
 38       -0.2869807946
 Sym= A
 Ene=   1.19093935853562     
 Spin= Alpha
 Occup= 0.0
  1        0.0937342721
  2       -0.5516050276
  3        0.8491629679
  4        0.3753763419
  5        0.1312969085
  6        0.0581774567
  7       -0.2128428421
  8       -0.0906143816
  9       -0.0623526277
 10       -0.0182742308
 11       -0.0153939270
 12        0.0336681578
 13        0.0058550668
 14       -0.0016428619
 15        0.0136592327