
    -----------------------------------------------------------------------
          Psi4: An Open-Source Ab Initio Electronic Structure Package
                               Psi4 1.4a2.dev629 

                         Git: Rev {master} 2938fc2 dirty


    D. G. A. Smith, L. A. Burns, A. C. Simmonett, R. M. Parrish,
    M. C. Schieber, R. Galvelis, P. Kraus, H. Kruse, R. Di Remigio,
    A. Alenaizan, A. M. James, S. Lehtola, J. P. Misiewicz, M. Scheurer,
    R. A. Shaw, J. B. Schriber, Y. Xie, Z. L. Glick, D. A. Sirianni,
    J. S. O'Brien, J. M. Waldrop, A. Kumar, E. G. Hohenstein,
    B. P. Pritchard, B. R. Brooks, H. F. Schaefer III, A. Yu. Sokolov,
    K. Patkowski, A. E. DePrince III, U. Bozkaya, R. A. King,
    F. A. Evangelista, J. M. Turney, T. D. Crawford, C. D. Sherrill,
    J. Chem. Phys. 152(18) 184108 (2020). https://doi.org/10.1063/5.0006002

                            Additional Code Authors
    E. T. Seidl, C. L. Janssen, E. F. Valeev, M. L. Leininger,
    J. F. Gonthier, R. M. Richard, H. R. McAlexander, M. Saitow, X. Wang,
    P. Verma, and M. H. Lechner

             Previous Authors, Complete List of Code Contributors,
                       and Citations for Specific Modules
    https://github.com/psi4/psi4/blob/master/codemeta.json
    https://github.com/psi4/psi4/graphs/contributors
    http://psicode.org/psi4manual/master/introduction.html#citing-psifour

    -----------------------------------------------------------------------


    Psi4 started on: Wednesday, 21 September 2022 04:15PM

    Process ID: 111700
    Host:       n073
    PSIDATADIR: /opt/psi/4/master/share/psi4
    Memory:     500.0 MiB
    Threads:    1
    
  ==> Input File <==

--------------------------------------------------------------------------
# o-Benzyne preliminary computations

memory 14 gb

molecule {
  0 1
  units bohr
 C   -1.3759698094   -0.0243210196    0.0000003917
 O    1.3045737799    0.1202123437    0.0000002610
 H   -2.0781542727    1.9048097757   -0.0000797468
 H   -2.1081560499   -0.9763611435    1.6770458120
 H   -2.1081489293   -0.9764919247   -1.6769738157
 H    1.9421311214   -1.5779801516   -0.0000013122
  no_reorient
  no_com
}

set {
  basis 6-31g*
  reference rhf
  e_convergence 10 
  d_convergence 10
  r_convergence 8
  maxiter 300
  dft_spherical_points 1202
  dft_radial_points 99
  freeze_core True
}


#gradient('ccsd(t)')
gradient('b3lyp')
--------------------------------------------------------------------------

  Memory set to  13.039 GiB by Python driver.

Scratch directory: /tmp/
gradient() will perform analytic gradient computation.

*** tstart() called on n073
*** at Wed Sep 21 16:15:52 2022

   => Loading Basis Set <=

    Name: 6-31G*
    Role: ORBITAL
    Keyword: BASIS
    atoms 1   entry C          line   111 file /opt/psi/4/master/share/psi4/basis/6-31gs.gbs 
    atoms 2   entry O          line   145 file /opt/psi/4/master/share/psi4/basis/6-31gs.gbs 
    atoms 3-6 entry H          line    44 file /opt/psi/4/master/share/psi4/basis/6-31gs.gbs 


         ---------------------------------------------------------
                                   SCF
               by Justin Turney, Rob Parrish, Andy Simmonett
                          and Daniel G. A. Smith
                              RKS Reference
                        1 Threads,  13351 MiB Core
         ---------------------------------------------------------

  ==> Geometry <==

    Molecular point group: c1
    Full point group: C1

    Geometry (in Bohr), charge = 0, multiplicity = 1:

       Center              X                  Y                   Z               Mass       
    ------------   -----------------  -----------------  -----------------  -----------------
         C           -1.375969809400    -0.024321019600     0.000000391700    12.000000000000
         O            1.304573779900     0.120212343700     0.000000261000    15.994914619570
         H           -2.078154272700     1.904809775700    -0.000079746800     1.007825032230
         H           -2.108156049900    -0.976361143500     1.677045812000     1.007825032230
         H           -2.108148929300    -0.976491924700    -1.676973815700     1.007825032230
         H            1.942131121400    -1.577980151600    -0.000001312200     1.007825032230

  Running in c1 symmetry.

  Rotational constants: A =      4.30154  B =      0.82780  C =      0.79862 [cm^-1]
  Rotational constants: A = 128956.98662  B =  24816.89425  C =  23942.00050 [MHz]
  Nuclear repulsion =   40.341612536291187

  Charge       = 0
  Multiplicity = 1
  Electrons    = 18
  Nalpha       = 9
  Nbeta        = 9

  ==> Algorithm <==

  SCF Algorithm Type is DF.
  DIIS enabled.
  MOM disabled.
  Fractional occupation disabled.
  Guess Type is SAD.
  Energy threshold   = 1.00e-10
  Density threshold  = 1.00e-10
  Integral threshold = 0.00e+00

  ==> Primary Basis <==

  Basis Set: 6-31G*
    Blend: 6-31G*
    Number of shells: 20
    Number of basis function: 38
    Number of Cartesian functions: 38
    Spherical Harmonics?: false
    Max angular momentum: 2

  ==> DFT Potential <==

   => Composite Functional: B3LYP <= 

    B3LYP Hyb-GGA Exchange-Correlation Functional

    P. J. Stephens, F. J. Devlin, C. F. Chabalowski, and M. J. Frisch, J. Phys. Chem. 98, 11623 (1994)

    Deriv               =              1
    GGA                 =           TRUE
    Meta                =          FALSE

    Exchange Hybrid     =           TRUE
    MP2 Hybrid          =          FALSE

   => Exchange Functionals <=

    0.0800   Slater exchange
    0.7200         Becke 88

   => Exact (HF) Exchange <=

    0.2000               HF 

   => Correlation Functionals <=

    0.1900   Vosko, Wilk & Nusair (VWN5_RPA)
    0.8100   Lee, Yang & Parr

   => Molecular Quadrature <=

    Radial Scheme          =       TREUTLER
    Pruning Scheme         =           NONE
    Nuclear Scheme         =       TREUTLER

    BS radius alpha        =              1
    Pruning alpha          =              1
    Radial Points          =             99
    Spherical Points       =           1202
    Total Points           =         678799
    Total Blocks           =           4716
    Max Points             =            256
    Max Functions          =             38
    Weights Tolerance      =       1.00E-15

   => Loading Basis Set <=

    Name: (6-31G* AUX)
    Role: JKFIT
    Keyword: DF_BASIS_SCF
    atoms 1   entry C          line   121 file /opt/psi/4/master/share/psi4/basis/cc-pvdz-jkfit.gbs 
    atoms 2   entry O          line   221 file /opt/psi/4/master/share/psi4/basis/cc-pvdz-jkfit.gbs 
    atoms 3-6 entry H          line    51 file /opt/psi/4/master/share/psi4/basis/cc-pvdz-jkfit.gbs 

  ==> Integral Setup <==

  DFHelper Memory: AOs need 0.004 GiB; user supplied 9.070 GiB. Using in-core AOs.

  ==> MemDFJK: Density-Fitted J/K Matrices <==

    J tasked:                   Yes
    K tasked:                   Yes
    wK tasked:                   No
    OpenMP threads:               1
    Memory [MiB]:              9287
    Algorithm:                 Core
    Schwarz Cutoff:           1E-12
    Mask sparsity (%):       0.0000
    Fitting Condition:        1E-10

   => Auxiliary Basis Set <=

  Basis Set: (6-31G* AUX)
    Blend: CC-PVDZ-JKFIT
    Number of shells: 84
    Number of basis function: 262
    Number of Cartesian functions: 262
    Spherical Harmonics?: false
    Max angular momentum: 3

  Cached 100.0% of DFT collocation blocks in 0.709 [GiB].

  Minimum eigenvalue in the overlap matrix is 9.7097831108E-03.
  Reciprocal condition number of the overlap matrix is 1.6166644087E-03.
    Using symmetric orthogonalization.

  ==> Pre-Iterations <==

  SCF Guess: Superposition of Atomic Densities via on-the-fly atomic UHF (no occupation information).

   -------------------------
    Irrep   Nso     Nmo    
   -------------------------
     A         38      38 
   -------------------------
    Total      38      38
   -------------------------

  ==> Iterations <==

                           Total Energy        Delta E     RMS |[F,P]|

   @DF-RKS iter SAD:  -115.27897069215983   -1.15279e+02   0.00000e+00 
   @DF-RKS iter   1:  -115.54905722112429   -2.70087e-01   1.61041e-02 DIIS
   @DF-RKS iter   2:  -115.45122010359731    9.78371e-02   2.10388e-02 DIIS
   @DF-RKS iter   3:  -115.71146747712942   -2.60247e-01   2.15031e-03 DIIS
   @DF-RKS iter   4:  -115.71394511482531   -2.47764e-03   6.70289e-04 DIIS
   @DF-RKS iter   5:  -115.71420901038694   -2.63896e-04   8.10624e-05 DIIS
   @DF-RKS iter   6:  -115.71421287474431   -3.86436e-06   8.51689e-06 DIIS
   @DF-RKS iter   7:  -115.71421292061706   -4.58728e-08   7.69777e-07 DIIS
   @DF-RKS iter   8:  -115.71421292102430   -4.07240e-10   1.06673e-07 DIIS
   @DF-RKS iter   9:  -115.71421292103230   -8.00071e-12   2.04147e-08 DIIS
   @DF-RKS iter  10:  -115.71421292103258   -2.84217e-13   1.30513e-09 DIIS
   @DF-RKS iter  11:  -115.71421292103263   -4.26326e-14   1.14573e-10 DIIS
   @DF-RKS iter  12:  -115.71421292103280   -1.70530e-13   2.15957e-11 DIIS
  Energy and wave function converged.


  ==> Post-Iterations <==

    Orbital Energies [Eh]
    ---------------------

    Doubly Occupied:                                                      

       1A    -19.138240     2A    -10.222101     3A     -1.011083  
       4A     -0.680826     5A     -0.502748     6A     -0.436098  
       7A     -0.419982     8A     -0.330564     9A     -0.264332  

    Virtual:                                                              

      10A      0.077295    11A      0.133176    12A      0.169228  
      13A      0.177514    14A      0.205597    15A      0.533870  
      16A      0.565443    17A      0.574624    18A      0.792432  
      19A      0.855847    20A      0.873869    21A      0.909905  
      22A      0.956363    23A      0.976945    24A      1.026047  
      25A      1.115842    26A      1.462503    27A      1.501910  
      28A      1.586256    29A      1.744944    30A      2.043370  
      31A      2.116390    32A      2.139546    33A      2.353192  
      34A      2.403560    35A      2.457219    36A      2.794076  
      37A      3.699879    38A      4.218564  

    Final Occupation by Irrep:
              A 
    DOCC [     9 ]

  @DF-RKS Final Energy:  -115.71421292103280

   => Energetics <=

    Nuclear Repulsion Energy =             40.3416125362911870
    One-Electron Energy =                -237.0800659787641962
    Two-Electron Energy =                  93.5791881965946715
    DFT Exchange-Correlation Energy =     -12.5549476751544677
    Empirical Dispersion Energy =           0.0000000000000000
    VV10 Nonlocal Energy =                  0.0000000000000000
    Total Energy =                       -115.7142129210327965

Computation Completed


Properties will be evaluated at   0.000000,   0.000000,   0.000000 [a0]

Properties computed using the SCF density matrix

  Nuclear Dipole Moment: [e a0]
     X:    -2.1716      Y:    -0.8103      Z:    -0.0000

  Electronic Dipole Moment: [e a0]
     X:     1.8379      Y:     0.2258      Z:     0.0000

  Dipole Moment: [e a0]
     X:    -0.3337      Y:    -0.5844      Z:    -0.0000     Total:     0.6730

  Dipole Moment: [D]
     X:    -0.8481      Y:    -1.4855      Z:    -0.0000     Total:     1.7105


*** tstop() called on n073 at Wed Sep 21 16:16:09 2022
Module time:
	user time   =      16.72 seconds =       0.28 minutes
	system time =       0.29 seconds =       0.00 minutes
	total time  =         17 seconds =       0.28 minutes
Total time:
	user time   =      16.72 seconds =       0.28 minutes
	system time =       0.29 seconds =       0.00 minutes
	total time  =         17 seconds =       0.28 minutes

*** tstart() called on n073
*** at Wed Sep 21 16:16:09 2022


         ------------------------------------------------------------
                                   SCF GRAD                          
                          Rob Parrish, Justin Turney,                
                       Andy Simmonett, and Alex Sokolov              
         ------------------------------------------------------------

  ==> Geometry <==

    Molecular point group: c1
    Full point group: C1

    Geometry (in Bohr), charge = 0, multiplicity = 1:

       Center              X                  Y                   Z               Mass       
    ------------   -----------------  -----------------  -----------------  -----------------
         C           -1.375969809400    -0.024321019600     0.000000391700    12.000000000000
         O            1.304573779900     0.120212343700     0.000000261000    15.994914619570
         H           -2.078154272700     1.904809775700    -0.000079746800     1.007825032230
         H           -2.108156049900    -0.976361143500     1.677045812000     1.007825032230
         H           -2.108148929300    -0.976491924700    -1.676973815700     1.007825032230
         H            1.942131121400    -1.577980151600    -0.000001312200     1.007825032230

  Nuclear repulsion =   40.341612536291187

  ==> Basis Set <==

  Basis Set: 6-31G*
    Blend: 6-31G*
    Number of shells: 20
    Number of basis function: 38
    Number of Cartesian functions: 38
    Spherical Harmonics?: false
    Max angular momentum: 2

  ==> DFJKGrad: Density-Fitted SCF Gradients <==

    Gradient:                    1
    J tasked:                  Yes
    K tasked:                  Yes
    wK tasked:                  No
    OpenMP threads:              1
    Integrals threads:           1
    Memory [MiB]:            10013
    Schwarz Cutoff:          0E+00
    Fitting Condition:       1E-10

   => Auxiliary Basis Set <=

  Basis Set: (6-31G* AUX)
    Blend: CC-PVDZ-JKFIT
    Number of shells: 84
    Number of basis function: 262
    Number of Cartesian functions: 262
    Spherical Harmonics?: false
    Max angular momentum: 3

  ==> DFT Potential <==

   => Composite Functional: B3LYP <= 

    B3LYP Hyb-GGA Exchange-Correlation Functional

    P. J. Stephens, F. J. Devlin, C. F. Chabalowski, and M. J. Frisch, J. Phys. Chem. 98, 11623 (1994)

    Deriv               =              1
    GGA                 =           TRUE
    Meta                =          FALSE

    Exchange Hybrid     =           TRUE
    MP2 Hybrid          =          FALSE

   => Exchange Functionals <=

    0.0800   Slater exchange
    0.7200         Becke 88

   => Exact (HF) Exchange <=

    0.2000               HF 

   => Correlation Functionals <=

    0.1900   Vosko, Wilk & Nusair (VWN5_RPA)
    0.8100   Lee, Yang & Parr

   => Molecular Quadrature <=

    Radial Scheme          =       TREUTLER
    Pruning Scheme         =           NONE
    Nuclear Scheme         =       TREUTLER

    BS radius alpha        =              1
    Pruning alpha          =              1
    Radial Points          =             99
    Spherical Points       =           1202
    Total Points           =         678799
    Total Blocks           =           4716
    Max Points             =            256
    Max Functions          =             38
    Weights Tolerance      =       1.00E-15


  -Total Gradient:
     Atom            X                  Y                   Z
    ------   -----------------  -----------------  -----------------
       1       -0.006639404985    -0.000572646215     0.000000240431
       2        0.003126691800    -0.008510660361     0.000000247894
       3        0.001256769775    -0.004515167976    -0.000000024994
       4        0.002779718285     0.002809819638    -0.004678436541
       5        0.002779681349     0.002810177620     0.004678193006
       6       -0.003303543108     0.007978542218    -0.000000219799


*** tstop() called on n073 at Wed Sep 21 16:16:12 2022
Module time:
	user time   =       2.79 seconds =       0.05 minutes
	system time =       0.01 seconds =       0.00 minutes
	total time  =          3 seconds =       0.05 minutes
Total time:
	user time   =      19.52 seconds =       0.33 minutes
	system time =       0.30 seconds =       0.01 minutes
	total time  =         20 seconds =       0.33 minutes

    Psi4 stopped on: Wednesday, 21 September 2022 04:16PM
    Psi4 wall time for execution: 0:00:19.85

*** Psi4 exiting successfully. Buy a developer a beer!
