 --invoking executable--
/opt/vulcan/opt/vulcan/linux-x86_64/intel-13.0.0/cfour-2.0-yhj426etc3g7hslvbmpgvdymp2w76rob/bin/xjoda


   *************************************************************************
         <<<     CCCCCC     CCCCCC   |||     CCCCCC     CCCCCC   >>>
       <<<      CCC        CCC       |||    CCC        CCC         >>>
      <<<      CCC        CCC        |||   CCC        CCC            >>>
    <<<        CCC        CCC        |||   CCC        CCC              >>>
      <<<      CCC        CCC        |||   CCC        CCC            >>>
       <<<      CCC        CCC       |||    CCC        CCC         >>>
         <<<     CCCCCC     CCCCCC   |||     CCCCCC     CCCCCC   >>>
   *************************************************************************

     ****************************************************************
     * CFOUR Coupled-Cluster techniques for Computational Chemistry *
     ****************************************************************
 

   Department of Chemistry                Institut fuer Physikalische Chemie
   University of Texas at Austin          Universitaet Mainz
   Austin, TX  78712, USA                 D-55099 Mainz, Germany
 
                       Version 1.2
 
                     n044                                              
                     Fri Jul 31 10:53:32 EDT 2020                      
                     integer*8 version is running
 
********************************************************************************
*                          Input from ZMAT file                                *
********************************************************************************
MIN4                                                                            
C                                                                               
O 1 R1*                                                                         
H 1 R2* 2 A2*                                                                   
H 1 R3* 2 A3* 3 D3*                                                             
H 1 R3* 2 A3* 3 D4*                                                             
H 2 R5* 1 A5* 5 D5*                                                             
                                                                                
R1 =    2.74383                                                                 
R2 =    2.06679                                                                 
R3 =    2.06645                                                                 
R5 =    1.92595                                                                 
A2 =  110.599                                                                   
A3 =  110.205                                                                   
A5 =  109.412                                                                   
D3 = -121.010                                                                   
D4 =  119.786                                                                   
D5 =  180.000                                                                   
                                                                                
*CFOUR(REF=RHF                                                                  
       CALC=CCSD(T)                                                             
       ABCDTYPE=AOBASIS                                                         
       BASIS=6-31G*                                                             
       ORB=SEMICANONICAL                                                        
       UNITS=BOHR                                                               
       MEMORY=7                                                                 
       MEM_UNIT=GB                                                              
       SCF_CONV=9                                                               
       CC_CONV=6                                                                
       CHARGE=0                                                                 
       MULT=1)                                                                  
                                                                                
********************************************************************************
    -------------------------------------------------------------------
                    CFOUR Control Parameters 
    -------------------------------------------------------------------
        External           Internal           Value            Units
          Name               Name
    -------------------------------------------------------------------
       ABCDTYPE             IABCDT         AOBASIS      [  2]   ***   
       ANHARMONIC           IANHAR         OFF          [  0]   ***   
       ANH_ALGORIT          IANALG         STANDARD     [  0]   ***   
       ANH_DERIVAT          IANDER         SECOND       [  1]   ***   
       ANH_STEPSIZ          ICUBST             50000          x 10-6  
       ANH_SYMMETR          IANHSM         ABELIAN      [  0]   ***   
       AO_LADDERS           IAOLAD         SINGLEPASS   [  1]   ***   
       AV_SCF               IAVSCF         OFF          [  0]   ***   
       BASIS                IBASIS         6-31G*       [ 19]   ***   
       BOTHVECTORS          BOTHVC         OFF          [  0]   ***   
       BOX_POTENT           IPIAB          OFF          [  0]   ***   
       BREIT                IBREIT         OFF          [  0]   ***   
       BRUCK_CONV           IBRTOL          10D-  4             ***   
       BRUECKNER            IBRKNR             OFF      [  0]   ***   
       BUFFERSIZE           IBUFFS            600               ***   
       CACHE_RECS           ICHREC             10               ***   
       CALCLEVEL            ICLLVL           CCSD(T)    [ 22]   ***   
       CCORBOPT             ICCORB             OFF      [  0] x 0.01  
       CC_CONV              ICCCNV          10D-  6             ***   
       CC_EXPORDER          ICCEOR              5               ***   
       CC_EXTRAPOL          ICCEXT             DIIS     [  1]   ***   
       CC_GUESS             ICCGES         MP2          [  0]   ***   
       CC_MAXCYC            ICCCYC            100              cycles 
       CC_PROGRAM           ICCPRO         VCC          [  0]   ***   
       CHARGE               ICHRGE              0               ***   
       CHOLESKY             ICHOLE         OFF          [  0]   ***   
       CIS_CONV             ICISTL              5               ***   
       COMM_SIZE            IPSIZE            ***               ***   
       CONSTANT             ICONST         OLD          [  1]   ***   
       CONTINUUM            ICONTU         NONE         [  0]   ***   
       CONTRACTION          ICNTYP          GENERAL     [  1]   ***   
       COORDINATES          ICOORD         INTERNAL     [  0]   ***   
       CPHF_CONVER          ICPHFT          10D- 16             ***   
       CPHF_MAXCYC          ICPHFC             64              cycles 
       CUBIC                ICUBIC         OFF          [  0]   ***   
       CURVILINEAR          ICURVY            OFF       [  0]   ***   
       D3_ISOTRANS          D3ISOT         OFF          [  0]   ***   
       DBOC                 IDBOC          OFF          [  0]   ***   
       DCT                  IDCT           OFF          [  0]   ***   
       DERIV_LEV            IDRLVL            FIRST     [  1]   ***   
       DEVMEM_SIZE          IDVMEM         *********           MByte  
       DIAG_MRCC            IEOMST          10D-  0             ***   
       DIFF_TYPE            IDIFTY         RELAXED      [  0]   ***   
       DIRECT               IDIRCT         OFF          [  0]   ***   
       DROPMO               IDRPMO      NONE         
       ECP                  IECP           OFF          [  0]   ***   
       EIGENVECTOR          IVEC                1               ***   
       EL_ANHARM            IELANH         OFF          [  0]   ***   
       EOMFOLLOW            IEOMSR         ENERGY       [  0]   ***   
       EOMIP                IEOMIP         OFF          [  0]   ***   
       EOM_MRCC             IMRCCE         NEW          [  1]   ***   
       EOM_NONIT            EOMNON         OFF          [  0]   ***   
       EOM_NSING            IEOMSI          10D-  0             ***   
       EOM_NSTATES          IMRCCD         DAVIDSON     [  0]   ***   
       EOM_NTRIP            IEOMTR          10D-  0             ***   
       EOM_ORDER            IEXORD         ENERGY       [  0]   ***   
       EOM_PROPSTA          IEOMST              0               ***   
       ESTATE_CONV          IEXTOL          10D-  5             ***   
       ESTATE_DIAG          IEXDIG         ITERATIVE    [  0]   ***   
       ESTATE_LOCK          IESLOC         ON           [  1]   ***   
       ESTATE_MAXC          IEXMXC             40               ***   
       ESTATE_PROP          IEXPRP         OFF          [  0]   ***   
       EVAL_HESS            IRECAL              0            # of cyc.
       EXCITATION           IEXCIT              0               ***   
       EXCITE               IEXCIT         NONE         [  0]   ***   
       EXTERN_POT           IEXPOT         OFF          [  0]   ***   
       FCGRADNEW            IFCGNW         OFF          [  0]   ***   
       FC_FIELD             IFINFC              0             x 10-6  
       FD_CALTYPE           IFDCAL         GRADONLY     [  0]   ***   
       FD_PROJECT           IFDPRJ         OFF          [  1]   ***   
       FD_STEPSIZE          IDISFD              0            10-4 bohr
       FD_USEGROUP          IFDGRP         FULL         [  0]   ***   
       FILE_RECSIZ          IFLREC              4096           words  
       FINITE_PERT          IFIPER              0             x 10-6  
       FIXGEOM              IFIXGM         OFF          [  0]   ***   
       FOCK                 IFOCK          AO           [  1]   ***   
       FREQ_ALGORI          IVIALG         STANDARD     [  0]   ***   
       FROZEN_CORE          IFROCO         OFF          [  0]   ***   
       FROZEN_VIRT          IFROVI         OFF          [  0]   ***   
       GAMMA_ABCD           IGABCD         DIRECT       [  1]   ***   
       GAMMA_ABCI           IGABCI         STORE        [  0]   ***   
       GENBAS_1             IGNBS1              0               ***   
       GENBAS_2             IGNBS2              0               ***   
       GENBAS_3             IGNBS3              0               ***   
       GENBAS_4             IGNBS4              0               ***   
       GEO_CONV             ICONTL              5              H/bohr 
       GEO_MAXCYC           IOPTCY             50               ***   
       GEO_MAXSTEP          IMXSTP            300            millibohr
       GEO_METHOD           INR                NR       [  0]   ***   
       GIAO                 IGIAO          OFF          [  1]   ***   
       GIMIC                IGIMIC         OFF          [  0]   ***   
       GRID                 IGRID          OFF          [  0]   ***   
       GRID_ALGO            IGALGO         SERIAL       [  0]   ***   
       GUESS                IGUESS            MOREAD    [  0]   ***   
       HBAR                 IHBAR              OFF      [  0]   ***   
       HESS_TYPE            IHESTP         SCF          [  0]   ***   
       HF2_FILE             IHF2Fl         USE          [  1]   ***   
       HFSTABILITY          ISTABL         OFF          [  0]   ***   
       INCORE               INCORE             OFF      [  0]   ***   
       INPUT_MRCC           IMRCC          ON           [  1]   ***   
       INTEGRALS            INTTYP             VMOL     [  1]   ***   
       JODA_PRINT           IJPRNT              0               ***   
       KEYWORD_OUT          IDMPKW         NO           [  0]   ***   
       LINDEP_TOL           ILINDP              8               ***   
       LINEQ_CONV           IZTACN          10D-  7           cycles  
       LINEQ_EXPOR          ILMAXD              5               ***   
       LINEQ_MAXCY          ILMAXC            100               ***   
       LINEQ_TYPE           ILTYPE         DIIS         [  1]   ***   
       LOCK_ORBOCC          ILOCOC             OFF      [  0]   ***   
       MEMORY_SIZE          IMEMSZ         875000000           words  
       MEM_UNIT             IMEMU          GB           [  3]   ***   
       MRCC                 IMRCCC         OFF          [  0]   ***   
       MULTIPLICTY          IMULTP              1               ***   
       NACOUPLING           IVCOUP         OFF          [  0]   ***   
       NEGEVAL              IDIE             ABORT      [  0]   ***   
       NEWNORM              INEWNO         OFF          [  0]   ***   
       NON-HF               INONHF             OFF      [  0]   ***   
       NTOP_TAMP            ITOPT2             15               ***   
       NUC_MODEL            INUCMO         POINT        [  0]   ***   
       OCCUPATION           IOCCU   ESTIMATED BY SCF 
       OPEN-SHELL           IOPEN          SPIN-ORBITAL [  0]   ***   
       OPTVIB               IOPTVB         OFF          [  0]   ***   
       ORBITALS             IORBTP         SEMICANONICAL[  1]   ***   
       PARALLEL             IPARAL         ON           [  1]   ***   
       PARA_INT             IPINTS         ON           [  1]   ***   
       PARA_PRINT           IPPRIN              0               ***   
       PERT_ORB             IPTORB         CANONICAL    [  1]   ***   
       POINTS               IGRDFD              0               ***   
       PRINT                IPRNT               0               ***   
       PROPS                IPROPS             OFF      [  0]   ***   
       PROP_INTEGR          IINTYP         INTERNAL     [  0]   ***   
       PSI                  IPSI           OFF          [  0]   ***   
       QC_ALG               IQCALG         FLM          [  0]   ***   
       QC_LINALG            IQCLIN         TRIDIAG      [  2]   ***   
       QC_MAXCYC            IQCMAX          10D-100           cycles  
       QC_MAXSCFCY          IQCMSC          10D- 15           cycles  
       QC_RTRUST            IQCRTR          10D-  0           x 10-3  
       QC_SKIPSCF           IQCSKI         OFF          [  0]   ***   
       QC_START             IQCSTA          10D-  1             ***   
       QRHFGUESS            IQGUES         OFF          [  0]   ***   
       QUARTIC              IQUART         OFF          [  0]   ***   
       RAMAN_INT            IRAMIN         OFF          [  0]   ***   
       RAMAN_ORB            IRAMRE         UNRELAXED    [  0]   ***   
       RDO                  IRDOFM              ON      [  1]   ***   
       REFERENCE            IREFNC             RHF      [  0]   ***   
       RELATIVIST           IRELAT         OFF          [  0]   ***   
       RELAX_DENS           IRDENS              ON      [  1]   ***   
       RESET_FLAGS          IRESET             OFF      [  0]   ***   
       RESTART_CC           ICCRES         OFF          [  0]   ***   
       ROT_EVEC             ROTVEC              0               ***   
       SAVE_INTS            ISVINT             OFF      [  0]   ***   
       SCALE_ON             ISTCRT              0               ***   
       SCF_CONV             ISCFCV          10D-  9             ***   
       SCF_DAMPING          IDAMP               0             x 10-3  
       SCF_EXPORDE          IRPPOR              6               ***   
       SCF_EXPSTAR          IRPPLS              8               ***   
       SCF_EXTRAPO          IRPP                ON      [  1]   ***   
       SCF_MAXCYC           ISCFCY            150              cycles 
       SCF_NOSTOP           ISCFST         OFF          [  0]   ***   
       SCF_PRINT            ISCFPR              0               ***   
       SCF_PROG             ISCFPR         SCF          [  0]   ***   
       SD_FIELD             IFINSD              0             x 10-6  
       SOPERT               IPERSO         OFF          [  0]   ***   
       SPHERICAL            IDFGHI             ON       [  1]   ***   
       SPINORBIT            ISOCAL         OFF          [  0]   ***   
       SPINROTATIO          ISRCON         OFF          [  0]   ***   
       SPIN_FLIP            ISPFLP         OFF          [  0]   ***   
       SPIN_ORBIT           ISPORB         OFF          [  0]   ***   
       SPIN_SCAL            ISCSMP         OFF          [  0]   ***   
       STEEPSCALE           ISTPSC              1000          x 10-3  
       SUBGROUP             ISUBGP         DEFAULT      [  0]   ***   
       SUBGRPAXIS           ISBXYZ         X            [  0]   ***   
       SYMMETRY             ISYM             ON         [  0]   ***   
       SYM_CHECK            ISYMCK         OVERRIDE     [  1]   ***   
       T3_EXTRAPOL          IT3EXT         OFF          [  0]   ***   
       T4_EXTRAPOL          IT4EXP         OFF          [  0]   ***   
       TAMP_SUM             IEVERY              5               ***   
       TESTSUITE            ITESTS         OFF          [  0]   ***   
       THERMOCH             ITHERM         OFF          [  0]   ***   
       TOL_CHOLESK          ITOLCH          10D-  4             ***   
       TRANGRAD             IRESRM         OFF          [  0]   ***   
       TRANS_INV            ITRAIN         USE          [  0]   ***   
       TREAT_PERT           ITREAT         SIMULTANEOUS [  0]   ***   
       TRIP_ALGORI          ITRALG         NORMAL       [  0]   ***   
       UIJ_THRESHO          IUIJTH              1               ***   
       UNITS                IUNITS         BOHR         [  1]   ***   
       UNOS                 IUNOS          OFF          [  0]   ***   
       UPDATE_HESS          IHUPDT         ON           [  1]   ***   
       VIBPHASE             ISETPH         STANDARD     [  0]   ***   
       VIBRATION            IVIB              NO        [  0]   ***   
       VIB_ALGORIT          IGEALG         STANDARD     [  0]   ***   
       VNATORB              IVNORB         OFF          [  0]   ***   
       VTRAN                IVTRAN         PARTIAL      [  2]   ***   
       XFIELD               IXEFLD              0             x 10-6  
       XFORM_TOL            IXFTOL          10D- 11             ***   
       YFIELD               IYEFLD              0             x 10-6  
       ZFIELD               IZEFLD              0             x 10-6  
       ZSCALE_EXP           IZEXPS         OFF          [  0]   ***   
    -------------------------------------------------------------------
   6 entries found in Z-matrix 
   Job Title : MIN4                                                                            
   There are 10 unique internal coordinates.
   Of these, 10 will be optimized.
   User supplied Z-matrix: 
--------------------------------------------------------------------------------
       SYMBOL    BOND      LENGTH    ANGLE     ANGLE     DIHED     ANGLE
                  TO      (ANGST)    WRT      (DEG)      WRT      (DEG)
--------------------------------------------------------------------------------
        C    
        O          1         R1   
        H          1         R2         2        A2   
        H          1         R3         2        A3         3        D3   
        H          1         R3         2        A3         3        D4   
        H          2         R5         1        A5         5        D5   
                  *Initial values for internal coordinates* 
                      Name             Value
                        R1              2.7438300000
                        R2              2.0667900000
                        A2            110.5990000000
                        R3              2.0664500000
                        A3            110.2050000000
                        D3           -121.0100000000
                        D4            119.7860000000
                        R5              1.9259500000
                        A5            109.4120000000
                        D5            180.0000000000
--------------------------------------------------------------------------------
  1  C          6    12.00000
  2  O          8    15.99491
  3  H          1     1.00783
  4  H          1     1.00783
  5  H          1     1.00783
  6  H          1     1.00783
   Rotational constants (in cm-1): 
          0.7641246340             0.7933159122             4.1929822459
   Rotational constants (in MHz): 
      22907.8834335347         23783.0160614620        125702.4629958155
********************************************************************************
   The full molecular point group is C1  .
   The largest Abelian subgroup of the full molecular point group is C1  .
   The computational point group is C1  .
********************************************************************************
--------------------------------------------------------------------------------
   Analysis of internal coordinates specified by Z-matrix 
--------------------------------------------------------------------------------
   *The nuclear repulsion energy is   39.485447425544237 a.u.
  *ERROR* Parameters  8 and  5 are not equivalent [both called A3   ].
  *ERROR* Parameters  4 and  7 are not equivalent [both called R3   ].
   *There are  12 degrees of freedom within the tot. symm. molecular subspace.
   *Z-matrix requests optimization of  10 coordinates.
   *The optimization is constrained.
   *The following  12 parameters can have non-zero 
    derivatives within the totally symmetric subspace:
             D5   [12]  D4   [ 9]  D3   [ 6]  A3   [ 8]  A2   [ 3]  A3   [ 5]
             A5   [11]  R2   [ 2]  R3   [ 4]  R3   [ 7]  R5   [10]  R1   [ 1]
   *The following  10 parameters are to be optimized:
             R1   [ 1]  R2   [ 2]  A2   [ 3]  R3   [ 4]  A3   [ 5]  D3   [ 6]
             D4   [ 9]  R5   [10]  A5   [11]  D5   [12]
   *The following coordinates must be varied in an  unconstrained optimization.

--------------------------------------------------------------------------------
 ----------------------------------------------------------------
 Z-matrix   Atomic            Coordinates (in bohr)
  Symbol    Number           X              Y              Z
 ----------------------------------------------------------------
     C         6        -1.40988014    -0.02816641     0.00047269
     O         8         1.32904437     0.13583197     0.00086036
     H         1        -2.07809454    -1.03813864     1.67530597
     H         1        -2.06595309    -1.00810715    -1.69643628
     H         1        -2.23822588     1.86497698     0.00865914
     H         1         2.07657619    -1.63911048    -0.00681163
 ----------------------------------------------------------------
   Interatomic distance matrix (Angstroms) 
 
                 C             O             H             H             H    
                [ 1]        [ 2]        [ 3]        [ 4]        [ 5]
  C    [ 1]     0.00000
  O    [ 2]     1.45197     0.00000
  H    [ 3]     1.09370     2.10281     0.00000
  H    [ 4]     1.09352     2.09780     1.78433     0.00000
  H    [ 5]     1.09352     2.09780     1.77345     1.77030     0.00000
  H    [ 6]     2.03238     1.01917     2.39314     2.39089     2.94141
 
                 H    
                [ 6]
  H    [ 6]     0.00000
   Rotational constants (in cm-1): 
          4.1929822459             0.7933159122             0.7641246340
   Rotational constants (in MHz): 
     125702.4629958152         23783.0160614620         22907.8834335346
  There are   36 basis functions.
  @CHECKOUT-I, Total execution time (CPU/WALL):        0.07/       0.11 seconds.
--executable xjoda finished with status     0 in        0.13 seconds (walltime).
 --invoking executable--
/opt/vulcan/opt/vulcan/linux-x86_64/intel-13.0.0/cfour-2.0-yhj426etc3g7hslvbmpgvdymp2w76rob/bin/xvmol
 Serial version of molecule started
********************************************************************************
                    Input from MOL file
********************************************************************************
INTGRL        1    0    1    0    0    0    0    0    0                         
         *** CFOUR Program System (Release V0.1) ***                            
MIN4                                                                            
    6    0            0.10E-08              0    0                              
   9999.00      3.00                                                            
          6.00000000    1    3    1    1    1                                   
C #1  -1.409880137512091  -0.028166413772423   0.000472688763824                
   10    3                                                                      
   3047.52488000000       1.834700000000000E-003  0.000000000000000E+000        
  0.000000000000000E+000                                                        
   457.369518000000       1.403730000000000E-002  0.000000000000000E+000        
  0.000000000000000E+000                                                        
   103.948685000000       6.884260000000000E-002  0.000000000000000E+000        
  0.000000000000000E+000                                                        
   29.2101553000000       0.232184400000000       0.000000000000000E+000        
  0.000000000000000E+000                                                        
   9.28666300000000       0.467941300000000       0.000000000000000E+000        
  0.000000000000000E+000                                                        
   3.16392700000000       0.362312000000000       0.000000000000000E+000        
  0.000000000000000E+000                                                        
   7.86827240000000       0.000000000000000E+000 -0.119332400000000             
  0.000000000000000E+000                                                        
   1.88128850000000       0.000000000000000E+000 -0.160854200000000             
  0.000000000000000E+000                                                        
  0.544249300000000       0.000000000000000E+000   1.14345640000000             
  0.000000000000000E+000                                                        
  0.168714500000000       0.000000000000000E+000  0.000000000000000E+000        
   1.00000000000000                                                             
    4    2                                                                      
   7.86827240000000       6.899909999999999E-002  0.000000000000000E+000        
   1.88128850000000       0.316424000000000       0.000000000000000E+000        
  0.544249300000000       0.744308300000000       0.000000000000000E+000        
  0.168714500000000       0.000000000000000E+000   1.00000000000000             
    1    1                                                                      
  0.800000000000000        1.00000000000000                                     
          8.00000000    1    3    1    1    1                                   
O #2   1.329044368261696   0.135831971222843   0.000860362298619                
   10    3                                                                      
   5484.67166000000       1.831100000000000E-003  0.000000000000000E+000        
  0.000000000000000E+000                                                        
   825.234946000000       1.395020000000000E-002  0.000000000000000E+000        
  0.000000000000000E+000                                                        
   188.046958000000       6.844509999999999E-002  0.000000000000000E+000        
  0.000000000000000E+000                                                        
   52.9645000000000       0.232714300000000       0.000000000000000E+000        
  0.000000000000000E+000                                                        
   16.8975704000000       0.470192900000000       0.000000000000000E+000        
  0.000000000000000E+000                                                        
   5.79963530000000       0.358520900000000       0.000000000000000E+000        
  0.000000000000000E+000                                                        
   15.5396162000000       0.000000000000000E+000 -0.110777500000000             
  0.000000000000000E+000                                                        
   3.59993360000000       0.000000000000000E+000 -0.148026300000000             
  0.000000000000000E+000                                                        
   1.01376180000000       0.000000000000000E+000   1.13076700000000             
  0.000000000000000E+000                                                        
  0.270005800000000       0.000000000000000E+000  0.000000000000000E+000        
   1.00000000000000                                                             
    4    2                                                                      
   15.5396162000000       7.087430000000000E-002  0.000000000000000E+000        
   3.59993360000000       0.339752800000000       0.000000000000000E+000        
   1.01376180000000       0.727158600000000       0.000000000000000E+000        
  0.270005800000000       0.000000000000000E+000   1.00000000000000             
    1    1                                                                      
  0.800000000000000        1.00000000000000                                     
          1.00000000    1    1    1                                             
H #3  -2.078094543073306  -1.038138637605000   1.675305969836048                
    4    2                                                                      
   18.7311370000000       3.349460000000000E-002  0.000000000000000E+000        
   2.82539440000000       0.234727000000000       0.000000000000000E+000        
  0.640121700000000       0.813757300000000       0.000000000000000E+000        
  0.161277800000000       0.000000000000000E+000   1.00000000000000             
          1.00000000    1    1    1                                             
H #4  -2.065953090278348  -1.008107145277010  -1.696436279297463                
    4    2                                                                      
   18.7311370000000       3.349460000000000E-002  0.000000000000000E+000        
   2.82539440000000       0.234727000000000       0.000000000000000E+000        
  0.640121700000000       0.813757300000000       0.000000000000000E+000        
  0.161277800000000       0.000000000000000E+000   1.00000000000000             
          1.00000000    1    1    1                                             
H #5  -2.238225884156592   1.864976979759024   0.008659143686715                
    4    2                                                                      
   18.7311370000000       3.349460000000000E-002  0.000000000000000E+000        
   2.82539440000000       0.234727000000000       0.000000000000000E+000        
  0.640121700000000       0.813757300000000       0.000000000000000E+000        
  0.161277800000000       0.000000000000000E+000   1.00000000000000             
          1.00000000    1    1    1                                             
H #6   2.076576190111519  -1.639110483709197  -0.006811632338344                
    4    2                                                                      
   18.7311370000000       3.349460000000000E-002  0.000000000000000E+000        
   2.82539440000000       0.234727000000000       0.000000000000000E+000        
  0.640121700000000       0.813757300000000       0.000000000000000E+000        
  0.161277800000000       0.000000000000000E+000   1.00000000000000             
FINISH                                                                          
 
********************************************************************************
 One- and two-electron integrals over symmetry-adapted AOs are calculated.

  Spherical harmonics are used.
  
  Integrals less than  0.10E-13 are neglected.

  Nuclear repulsion energy :   39.4854474255 a.u.
  required memory for a1 array                5020082  words 
  required memory for a2 array                2070133  words 
 @GETMEM-I,  Allocated      69 MB of main memory.
  @MOLECU-I, One electron integrals (CPU/WALL):        0.01/       0.01 seconds.
  @TWOEL-I,     212526 integrals of symmetry type  I I I I
  @TWOEL-I, Total number of 2-e integrals     212526.
  @MOLECU-I, Two electron integrals (CPU/WALL):        0.47/       0.12 seconds.
  @CHECKOUT-I, Total execution time (CPU/WALL):        0.49/       0.13 seconds.
--executable xvmol finished with status     0 in        0.23 seconds (walltime).
 --invoking executable--
/opt/vulcan/opt/vulcan/linux-x86_64/intel-13.0.0/cfour-2.0-yhj426etc3g7hslvbmpgvdymp2w76rob/bin/xvmol2ja
 @GETMEM-I,  Allocated    6675 MB of main memory.
  @CHECKOUT-I, Total execution time (CPU/WALL):        0.00/       0.00 seconds.
--executable xvmol2ja finished with status     0 in        0.22 seconds (walltime).
 --invoking executable--
/opt/vulcan/opt/vulcan/linux-x86_64/intel-13.0.0/cfour-2.0-yhj426etc3g7hslvbmpgvdymp2w76rob/bin/xvscf
  There are   36 functions in the AO basis.

  There are 1 irreducible representations.

       Irrep        # of functions
         1                 36


  Parameters for SCF calculation: 
        SCF reference function:  RHF  
  Maximum number of iterations:  150
     Full symmetry point group: C1  
     Computational point group: C1  
        Initial density matrix: MOREAD                 
     SCF convergence tolerance: 10**(- 9)
  DIIS convergence acceleration:  ON
          Latest start for DIIS:   8
                     DIIS order:   6

  Memory information:     100037 words required.
  Fock matrices are constructed from AO integral file.
 @GETMEM-I,  Allocated       0 MB of main memory.
  Initialization and symmetry analysis required      0.001 seconds.

  @INITGES-I, Occupancies from core Hamiltonian:

          Alpha population by irrep:   9
           Beta population by irrep:   9


 total no. of electrons in initial guess :  0.000000000000000E+000
  --------------------------------------------------------------------
  Iteration         Total Energy            Largest Density Difference
  --------------------------------------------------------------------
       0            39.485447425544230              0.0000000000D+00
       1          -101.539418980205426              0.2587995340D+01
       2           -98.627640564003229              0.2206844966D+02
       3          -101.214965247099315              0.2205752233D+02
       4           -95.179414955051442              0.6407619511D+01
       5           -91.179469924954304              0.6370835433D+01
       6           -91.022502836164023              0.2700840345D+01
       7           -91.162867727290688              0.2674860529D+01
       8           -90.984022592274528              0.2675338401D+01
       9          -113.850194990476098              0.2262361691D+01
      10          -114.557421055312290              0.2804262136D+00
      11          -114.875898159737517              0.1870379384D+00
      12          -115.011346858876010              0.1376877140D+00
      13          -115.026188351675927              0.6157664490D-01
      14          -115.026698413858497              0.1493057250D-01
      15          -115.026721201687423              0.2695905392D-02
      16          -115.026723478212972              0.1282686349D-02
      17          -115.026723528581044              0.1556596813D-03
      18          -115.026723529233493              0.1029974811D-04
      19          -115.026723529267116              0.2234711697D-05
      20          -115.026723529270384              0.6051065626D-06
      21          -115.026723529270669              0.1922305159D-06
      22          -115.026723529270441              0.2799320989D-07
      23          -115.026723529270555              0.1209346370D-07
      24          -115.026723529270583              0.3878350419D-08
      25          -115.026723529270527              0.2141866018D-08

  SCF has converged.

 Density matrix saved to file den.dat
 total electron number:   18.0000000000000     
     E(SCF)=      -115.026723529270470              0.4169365245D-09

  Eigenvector printing suppressed.

 @PUTMOS-I, Writing converged MOs to NEWMOS. 
 @PUTMOS-I, Symmetry   1 Full Blocks  9 Partial Blocksize   0
  @DMPJOB-I, Rotating orbitals to semicanonical basis.
             *** Eigenvalues correspond to new basis. ***



 
  ORBITAL EIGENVALUES (ALPHA)  (1H = 27.2113838 eV)

       MO #        E(hartree)               E(eV)           FULLSYM    COMPSYM
       ----   --------------------   --------------------   -------   ---------
    1     1         -20.5576841399        -559.4030335729       A         A (1)
    2     2         -11.2710908838        -306.7019801055       A         A (1)
    3     3          -1.3251730485         -36.0597924490       A         A (1)
    4     4          -0.9199722751         -25.0337186811       A         A (1)
    5     5          -0.6641705170         -18.0729988591       A         A (1)
    6     6          -0.6121028852         -16.6561665458       A         A (1)
    7     7          -0.5844834563         -15.9046036647       A         A (1)
    8     8          -0.4928403864         -13.4108689162       A         A (1)
    9     9          -0.4445250373         -12.0961414084       A         A (1)
  +++++++++++++++++++++++++++++++++++++++++++++++++++++++++++++++++++++++++++++
   10    10           0.2161989451           5.8830724775       A         A (1)
   11    11           0.2714151633           7.3855821844       A         A (1)
   12    12           0.3222464299           8.7687712878       A         A (1)
   13    13           0.3255223058           8.8579124043       A         A (1)
   14    14           0.3680616489          10.0154667978       A         A (1)
   15    15           0.7621140094          20.7381768239       A         A (1)
   16    16           0.7727521601          21.0276556272       A         A (1)
   17    17           0.7786880702          21.1891799544       A         A (1)
   18    18           1.0310121646          28.0552677335       A         A (1)
   19    19           1.1269917938          30.6670062623       A         A (1)
   20    20           1.1474340707          31.2232689065       A         A (1)
   21    21           1.1945420475          32.5051421438       A         A (1)
   22    22           1.2326513681          33.5421494928       A         A (1)
   23    23           1.2531384727          34.0996319594       A         A (1)
   24    24           1.2858095973          34.9886584717       A         A (1)
   25    25           1.4315931869          38.9556316815       A         A (1)
   26    26           1.7710526840          48.1927943482       A         A (1)
   27    27           1.7988336403          48.9487526128       A         A (1)
   28    28           1.9367621939          52.7019794252       A         A (1)
   29    29           2.0532833990          55.8726826604       A         A (1)
   30    30           2.3489297041          63.9176277426       A         A (1)
   31    31           2.3823713542          64.8276213201       A         A (1)
   32    32           2.4782691793          67.4371338469       A         A (1)
   33    33           2.6763679751          72.8276762139       A         A (1)
   34    34           2.6961101564          73.3648882854       A         A (1)
   35    35           2.7298140464          74.2820177730       A         A (1)
   36    36           3.1365139423          85.3488847404       A         A (1)


  VSCF finished.

  @CHECKOUT-I, Total execution time (CPU/WALL):        0.36/       0.09 seconds.
--executable xvscf finished with status     0 in        0.22 seconds (walltime).
 --invoking executable--
/opt/vulcan/opt/vulcan/linux-x86_64/intel-13.0.0/cfour-2.0-yhj426etc3g7hslvbmpgvdymp2w76rob/bin/xvtran
 @GETMEM-I,  Allocated    6675 MB of main memory.
  Partial RHF integral transformation
  Transformation of IIII integrals :
  1 pass through the AO integral file was required.
      212526 AO integrals were read.
      150480 MO integrals were written to HF2.
  Summary of active molecular orbitals: 
------------------------------------------------------------------------
 
  Index      Eigenvalue    Symmetry    Index      Eigenvalue    Symmetry
------------------------------------------------------------------------
     1       -20.5576841        1        19         1.1269918        1
     2       -11.2710909        1        20         1.1474341        1
     3        -1.3251730        1        21         1.1945420        1
     4        -0.9199723        1        22         1.2326514        1
     5        -0.6641705        1        23         1.2531385        1
     6        -0.6121029        1        24         1.2858096        1
     7        -0.5844835        1        25         1.4315932        1
     8        -0.4928404        1        26         1.7710527        1
     9        -0.4445250        1        27         1.7988336        1
    10         0.2161989        1        28         1.9367622        1
    11         0.2714152        1        29         2.0532834        1
    12         0.3222464        1        30         2.3489297        1
    13         0.3255223        1        31         2.3823714        1
    14         0.3680616        1        32         2.4782692        1
    15         0.7621140        1        33         2.6763680        1
    16         0.7727522        1        34         2.6961102        1
    17         0.7786881        1        35         2.7298140        1
    18         1.0310122        1        36         3.1365139        1
------------------------------------------------------------------------
  @CHECKOUT-I, Total execution time (CPU/WALL):        0.11/       0.03 seconds.
--executable xvtran finished with status     0 in        0.22 seconds (walltime).
 --invoking executable--
/opt/vulcan/opt/vulcan/linux-x86_64/intel-13.0.0/cfour-2.0-yhj426etc3g7hslvbmpgvdymp2w76rob/bin/xintprc
 @GETMEM-I,  Allocated    6675 MB of main memory.
  @GMOIAA-I, Processing MO integrals for spin case AA.
  @GMOIAA-I, Generation of integral list completed.
                      TYPE                NUMBER
                      ----               --------
                      PPPP                     0
                      PPPH                 91854
                      PPHH                 29646
                      PHPH                 17010
                      PHHH                 10935
                      HHHH                  1035

                     TOTAL                150480

  @FORMT2-I, Second-order MP correlation energies:
            ------------------------------------------------
            E(SCF)                  =   -115.026723529270 a.u.
            E2(AA)                  =     -0.038602068753 a.u.
            E2(AB)                  =     -0.238579403911 a.u.
            E2(TOT)                 =     -0.315783541417 a.u.
            Total MP2 energy        =   -115.342507070687 a.u.
            ------------------------------------------------
   Largest T2 amplitudes for spin case AB:
       _       _                 _       _                 _       _
   i   j   a   b             i   j   a   b             i   j   a   b
-----------------------------------------------------------------------------
[  9   9  23  23]-0.03105 [  6   6  13  13]-0.02394 [  7   7  14  14]-0.02271
[  7   7  17  17]-0.02233 [  5   5  14  14]-0.02087 [  5   5  10  10]-0.02008
[  7   7  12  12]-0.01827 [  5   5  18  18]-0.01757 [  6   6  19  19]-0.01751
[  6   6  16  16]-0.01646 [  9   6  23  23] 0.01600 [  6   9  23  23] 0.01600
[  8   8  20  20]-0.01593 [  8   8  12  12]-0.01519 [  9   5  23  14] 0.01485
-----------------------------------------------------------------------------
   Norm of T2AB vector (    59049 symmetry allowed elements):  0.2662492904.
-----------------------------------------------------------------------------
  @CHECKOUT-I, Total execution time (CPU/WALL):        0.04/       0.02 seconds.
--executable xintprc finished with status     0 in        0.23 seconds (walltime).
  calling xvcc 
 --invoking executable--
/opt/vulcan/opt/vulcan/linux-x86_64/intel-13.0.0/cfour-2.0-yhj426etc3g7hslvbmpgvdymp2w76rob/bin/xvcc
 @GETMEM-I,  Allocated    6675 MB of main memory.
   CCSD(T) energy will be calculated.
   The total correlation energy is -0.315783541417 a.u.
  W(abef) AB contribution =  0.0510956702 a.u.
   The total correlation energy is -0.327664087757 a.u.
  Convergence information after     1 iterations: 
  Largest element of residual vector :  0.86360686E-02.
  Largest element of DIIS residual   :  0.86360686E-02.
  W(abef) AB contribution =  0.0612780220 a.u.
   The total correlation energy is -0.335245158252 a.u.
  Convergence information after     2 iterations: 
  Largest element of residual vector : -0.17968795E-02.
  Largest element of DIIS residual   : -0.18566917E-02.
  W(abef) AB contribution =  0.0673258981 a.u.
   The total correlation energy is -0.337055281558 a.u.
  Convergence information after     3 iterations: 
  Largest element of residual vector : -0.13866457E-02.
  Largest element of DIIS residual   : -0.11196064E-02.
  W(abef) AB contribution =  0.0689579333 a.u.
   The total correlation energy is -0.337878279498 a.u.
  Convergence information after     4 iterations: 
  Largest element of residual vector : -0.38345904E-03.
  Largest element of DIIS residual   : -0.34379860E-03.
  W(abef) AB contribution =  0.0691510059 a.u.
   The total correlation energy is -0.337949754256 a.u.
  Convergence information after     5 iterations: 
  Largest element of residual vector : -0.20015150E-03.
  Largest element of DIIS residual   : -0.12507703E-03.
  W(abef) AB contribution =  0.0691957805 a.u.
   The total correlation energy is -0.337960842512 a.u.
  Convergence information after     6 iterations: 
  Largest element of residual vector : -0.95307585E-04.
  Largest element of DIIS residual   : -0.71517385E-04.
  W(abef) AB contribution =  0.0691909934 a.u.
   The total correlation energy is -0.337960914309 a.u.
  Convergence information after     7 iterations: 
  Largest element of residual vector : -0.36888469E-04.
  Largest element of DIIS residual   : -0.14880157E-04.
  W(abef) AB contribution =  0.0691895081 a.u.
   The total correlation energy is -0.337960143055 a.u.
  Convergence information after     8 iterations: 
  Largest element of residual vector : -0.12499206E-04.
  Largest element of DIIS residual   : -0.65481985E-05.
  W(abef) AB contribution =  0.0691894218 a.u.
   The total correlation energy is -0.337960419488 a.u.
  Convergence information after     9 iterations: 
  Largest element of residual vector : -0.29024359E-05.
  Largest element of DIIS residual   :  0.20434737E-05.
  W(abef) AB contribution =  0.0691898910 a.u.
   The total correlation energy is -0.337960542949 a.u.
  Convergence information after    10 iterations: 
  Largest element of residual vector : -0.12039767E-05.
  Largest element of DIIS residual   : -0.37726853E-06.
  W(abef) AB contribution =  0.0691900674 a.u.
   The total correlation energy is -0.337960637108 a.u.
  Convergence information after    11 iterations: 
  Largest element of residual vector : -0.22315676E-06.
  Largest element of DIIS residual   :  0.17366460E-06.
  Amplitude equations converged in    11iterations.
   The total correlation energy is -0.337960651403 a.u.
   The CC iterations have converged.

   Largest T1 amplitudes for spin case AA:
   i       a                 i       a                 i       a    
-----------------------------------------------------------------------------
[  6      13    ] 0.01002 [  6      19    ] 0.00959 [  8      10    ]-0.00909
[  7      12    ] 0.00753 [  7      14    ] 0.00701 [  9      16    ]-0.00653
[  9      13    ]-0.00638 [  7      20    ]-0.00621 [  5      14    ]-0.00573
[  7      17    ] 0.00569 [  5      25    ]-0.00567 [  7      30    ] 0.00479
[  8      15    ] 0.00477 [  8      11    ] 0.00445 [  8      14    ] 0.00439
-----------------------------------------------------------------------------
   Norm of T1AA vector (      243 symmetry allowed elements):  0.0324186938.
-----------------------------------------------------------------------------
   Largest T2 amplitudes for spin case AB:
       _       _                 _       _                 _       _
   i   j   a   b             i   j   a   b             i   j   a   b
-----------------------------------------------------------------------------
[  9   9  23  23]-0.03348 [  6   6  13  13]-0.02926 [  7   7  14  14]-0.02667
[  5   5  10  10]-0.02539 [  5   5  14  14]-0.02394 [  7   7  17  17]-0.02353
[  7   7  12  12]-0.02289 [  6   6  19  19]-0.02078 [  5   5  18  18]-0.02023
[  8   8  12  12]-0.01914 [  9   6  13  13]-0.01831 [  6   9  13  13]-0.01831
[  8   8  20  20]-0.01814 [  9   9  13  13]-0.01807 [  6   6  16  16]-0.01795
-----------------------------------------------------------------------------
   Norm of T2AB vector (    59049 symmetry allowed elements):  0.3081062726.
-----------------------------------------------------------------------------
       Summary of iterative solution of CC equations 
      -----------------------------------------------------------
                       Correlation           Total
       Iteration         Energy              Energy
      -----------------------------------------------------------
            0        -0.315783541417    -115.342507070687  DIIS 
            1        -0.327664087757    -115.354387617027  DIIS 
            2        -0.335245158252    -115.361968687522  DIIS 
            3        -0.337055281558    -115.363778810828  DIIS 
            4        -0.337878279498    -115.364601808768  DIIS 
            5        -0.337949754256    -115.364673283526  DIIS 
            6        -0.337960842512    -115.364684371782  DIIS 
            7        -0.337960914309    -115.364684443580  DIIS 
            8        -0.337960143055    -115.364683672325  DIIS 
            9        -0.337960419488    -115.364683948758  DIIS 
           10        -0.337960542949    -115.364684072219  DIIS 
           11        -0.337960651403    -115.364684180673  DIIS 
      -----------------------------------------------------------
      A miracle has come to pass. The CC iterations have converged.
        E(CCSD)           =    -115.364684180673
        E(CCSD + T(CCSD)) =    -115.371569266670
        E(CCSD(T))        =    -115.371155354227
  @CHECKOUT-I, Total execution time (CPU/WALL):        6.40/       1.65 seconds.
--executable xvcc finished with status     0 in        1.82 seconds (walltime).
 --invoking executable--
/opt/vulcan/opt/vulcan/linux-x86_64/intel-13.0.0/cfour-2.0-yhj426etc3g7hslvbmpgvdymp2w76rob/bin/xlambda
 @GETMEM-I,  Allocated    6675 MB of main memory.
  The Lambda equations are solved for CCSD(T).
  Initial lambda amplitudes: 
  W(abef) AB contribution =  0.0692763150 a.u.
  Convergence information after     1 iterations: 
  Largest element of residual vector : -0.61552489E-02.
  Largest element of DIIS residual   : -0.61552489E-02.
  W(abef) AB contribution =  0.0722281912 a.u.
  Convergence information after     2 iterations: 
  Largest element of residual vector : -0.15563465E-02.
  Largest element of DIIS residual   : -0.11323568E-02.
  W(abef) AB contribution =  0.0718452759 a.u.
  Convergence information after     3 iterations: 
  Largest element of residual vector : -0.32469907E-03.
  Largest element of DIIS residual   : -0.15081927E-03.
  W(abef) AB contribution =  0.0719358400 a.u.
  Convergence information after     4 iterations: 
  Largest element of residual vector : -0.10042662E-03.
  Largest element of DIIS residual   : -0.87443408E-04.
  W(abef) AB contribution =  0.0719618152 a.u.
  Convergence information after     5 iterations: 
  Largest element of residual vector : -0.30120101E-04.
  Largest element of DIIS residual   :  0.14172523E-04.
  W(abef) AB contribution =  0.0719739452 a.u.
  Convergence information after     6 iterations: 
  Largest element of residual vector : -0.10407209E-04.
  Largest element of DIIS residual   : -0.62757460E-05.
  W(abef) AB contribution =  0.0719764937 a.u.
  Convergence information after     7 iterations: 
  Largest element of residual vector :  0.30823971E-05.
  Largest element of DIIS residual   :  0.18944670E-05.
  W(abef) AB contribution =  0.0719765772 a.u.
  Convergence information after     8 iterations: 
  Largest element of residual vector :  0.12542538E-05.
  Largest element of DIIS residual   : -0.64245628E-06.
  W(abef) AB contribution =  0.0719764969 a.u.
  Convergence information after     9 iterations: 
  Largest element of residual vector : -0.47697241E-06.
  Largest element of DIIS residual   : -0.27750931E-06.
  W(abef) AB contribution =  0.0719764912 a.u.
  Convergence information after    10 iterations: 
  Largest element of residual vector : -0.18111570E-06.
  Largest element of DIIS residual   : -0.97326177E-07.
  Amplitude equations converged in    10 iterations.
      The lambda equations have converged.
  @CHECKOUT-I, Total execution time (CPU/WALL):        2.57/       0.72 seconds.
--executable xlambda finished with status     0 in        0.82 seconds (walltime).
 --invoking executable--
/opt/vulcan/opt/vulcan/linux-x86_64/intel-13.0.0/cfour-2.0-yhj426etc3g7hslvbmpgvdymp2w76rob/bin/xdens
 @GETMEM-I,  Allocated    6675 MB of main memory.
  CCSD(T) density and intermediates are calculated.
  The perturbed orbitals are chosen canonical.
  Direct algorithm used for all contributions involving G(AB,CD).
  W(abef) AB contribution =  0.0570575402 a.u.
  W(abef) AB contribution =  0.0590202065 a.u.
                     1                     1
  processed                 212526  ao basis integrals from 
                   355  buffers.
  The iterative expansion of D(ai) converged after  20 iterations.
  ----------------------------------------------------------------------
                 Natural orbital occupation numbers
  ----------------------------------------------------------------------
  1.99994  1.99984  1.98380  1.97457  1.97061  1.96489  1.96236  1.95831
  1.95069  0.03854  0.03273  0.02604  0.02409  0.02048  0.01646  0.01264
  0.00807  0.00755  0.00696  0.00570  0.00536  0.00497  0.00490  0.00448
  0.00242  0.00241  0.00225  0.00209  0.00127  0.00124  0.00110  0.00090
  0.00083  0.00071  0.00049  0.00030
  Trace of density matrix :  18.0000000000.
  ----------------------------------------------------------------------
  Density calculation successfully completed.
  @CHECKOUT-I, Total execution time (CPU/WALL):        0.71/       0.18 seconds.
--executable xdens finished with status     0 in        0.22 seconds (walltime).
 --invoking executable--
/opt/vulcan/opt/vulcan/linux-x86_64/intel-13.0.0/cfour-2.0-yhj426etc3g7hslvbmpgvdymp2w76rob/bin/xanti
 @GETMEM-I,  Allocated    6675 MB of main memory.
 CCSD(T) MO gammas will be sorted to Mulliken order.
  @CHECKOUT-I, Total execution time (CPU/WALL):        0.16/       0.05 seconds.
--executable xanti finished with status     0 in        0.22 seconds (walltime).
 --invoking executable--
/opt/vulcan/opt/vulcan/linux-x86_64/intel-13.0.0/cfour-2.0-yhj426etc3g7hslvbmpgvdymp2w76rob/bin/xbcktrn
 @GETMEM-I,  Allocated    6675 MB of main memory.
  @CHECKOUT-I, Total execution time (CPU/WALL):        0.09/       0.03 seconds.
--executable xbcktrn finished with status     0 in        0.22 seconds (walltime).
 --invoking executable--
/opt/vulcan/opt/vulcan/linux-x86_64/intel-13.0.0/cfour-2.0-yhj426etc3g7hslvbmpgvdymp2w76rob/bin/xvdint
 @GETMEM-I,  Allocated    6675 MB of main memory.
 One- and two-electron integral derivatives are calculated
 for RHF-CC/MBPT gradients and dipole moments.
 Spherical gaussians are used.

                     Kinetic energy integral gradient
                     --------------------------------

 C #1       0.0251946899           -0.0021880138           -0.0042225055
 O #2      -0.2563374413           -0.4104132946           -0.0011275238
 H #3       0.1278137038            0.1905374862           -0.3168264363
 H #4       0.1250111723            0.1845183821            0.3215377909
 H #5       0.1756709588           -0.3649021743           -0.0010994448
 H #6      -0.1973530835            0.4024476144            0.0017381196



                   Nuclear attraction integral gradient
                   ------------------------------------

 C #1      -9.6319502830           -0.3235549555            0.0477107341
 O #2      13.6317887679            5.5886640426            0.0189611337
 H #3      -2.1189928903           -2.3190056035            3.8264720159
 H #4      -2.0882457522           -2.2459864674           -3.8839715748
 H #5      -2.7171440553            4.4273329673            0.0127871325
 H #6       2.9245442129           -5.1274499835           -0.0219594414



                      Reorthonormalization gradient
                      -----------------------------

 C #1      -0.0017935197            0.0229533682           -0.0021347001
 O #2      -0.1120059889           -0.2414117685           -0.0005673321
 H #3       0.0608113072            0.0863169774           -0.1423209891
 H #4       0.0593196725            0.0833248446            0.1443876205
 H #5       0.0856770571           -0.1734950738           -0.0003282484
 H #6      -0.0920085283            0.2223116521            0.0009636492



                Electronic contributions to dipole moment
                -----------------------------------------

                               au             Debye

                    x      1.74480148      4.43484378
                    y      0.28267579      0.71849030
                    z      0.00649491      0.01650843

  Conversion factor used: 1 a.u. =   2.54174691 Debye 


  Evaluation of 1e integral derivatives required    0.04 seconds.
  Evaluation of 2el integral derivatives

                      Two-electron integral gradient
                      ------------------------------

 C #1       4.3216975105            0.1686980815           -0.0305468883
 O #2      -6.4112215942           -2.4720528959           -0.0046960060
 H #3       1.0041093535            1.1365397332           -1.8682114459
 H #4       0.9856316504            1.0980167066            1.8974419359
 H #5       1.3925729198           -2.2087412349           -0.0037892182
 H #6      -1.2927898399            2.2775396095            0.0098016224


  Evaluation of 2e integral derivatives required    0.86 seconds.

                            Molecular gradient
                            ------------------

 C #1      -0.0167712275            0.0109073613            0.0009300696
 O #2      -0.0033708028            0.0215365034           -0.0003879286
 H #3       0.0032443044            0.0018687553           -0.0030241848
 H #4       0.0037635621            0.0021900705            0.0029688909
 H #5      -0.0079344407           -0.0033570128           -0.0003509773
 H #6       0.0210686045           -0.0331456777           -0.0001358698


  Molecular gradient norm 0.504E-01

                           Total dipole moment
                           -------------------

                               au             Debye

                    x     -0.38782173     -0.98574467
                    y     -0.62004621     -1.57600055
                    z     -0.00306885     -0.00780025

  Conversion factor used: 1 a.u. =   2.54174691 Debye 


  @CHECKOUT-I, Total execution time (CPU/WALL):        0.90/       0.31 seconds.
--executable xvdint finished with status     0 in        0.43 seconds (walltime).
 --invoking executable--
/opt/vulcan/opt/vulcan/linux-x86_64/intel-13.0.0/cfour-2.0-yhj426etc3g7hslvbmpgvdymp2w76rob/bin/xjoda
 @GETREC: requested length of vector OCCUPYA0 is longer than actual
 Actual --                      1  Requested --                      8
   JODA beginning optimization cycle #  1.
  igrd and ihes are                      0                     0
  fetching hessian                    324
  @CONVQ-W, Nominally equivalent internal coordinate gradients vary by at least .23876E-02.
   Problem with gradients equivalent to parameter [  4].
  @CONVQ-W, Nominally equivalent internal coordinate gradients vary by at least .11406E-01.
   Problem with gradients equivalent to parameter [  5].
   Internal coordinate forces and energy gradients (atomic units): 
           R       dV/dR             R       dV/dR             R       dV/dR
 [R1   ]  2.74383  0.0169722 [R2   ]  2.06679 -0.0044128 [A2   ]  1.93032 -0.0039682
 [R3   ]  2.06645 -0.0022839 [A3   ]  1.92344  0.0063971 [D3   ] -2.11202 -0.0005406
 [R3   ]  2.06645 -0.0022839 [A3   ]  1.92344  0.0063971 [D4   ]  2.09066  0.0006695
 [R5   ]  1.92595  0.0387249 [A5   ]  1.90960  0.0126183 [D5   ]  3.14159 -0.0000149
                     0                     0                     0 ****
   Optimization cycle  1.  Updating structure with Newton-Raphson step.
  @EFOL-I, Current internal coordinate Hessian written to FCMINT.
   There are  10 independent internal coordinates which will be optimized.
   Hessian matrix in totally symmetric symmetry coordinates: 
              R1        R2        A2        R3        A3   
  R1         1.000000  0.000000  0.000000  0.000000  0.000000
  R2         0.000000  1.000000  0.000000  0.000000  0.000000
  A2         0.000000  0.000000  0.250000  0.000000  0.000000
  R3         0.000000  0.000000  0.000000  1.000000  0.000000
  A3         0.000000  0.000000  0.000000  0.000000  0.250000
  D3         0.000000  0.000000  0.000000  0.000000  0.000000
  D4         0.000000  0.000000  0.000000  0.000000  0.000000
  R5         0.000000  0.000000  0.000000  0.000000  0.000000
  A5         0.000000  0.000000  0.000000  0.000000  0.000000
  D5         0.000000  0.000000  0.000000  0.000000  0.000000
 
              D3        D4        R5        A5        D5   
  R1         0.000000  0.000000  0.000000  0.000000  0.000000
  R2         0.000000  0.000000  0.000000  0.000000  0.000000
  A2         0.000000  0.000000  0.000000  0.000000  0.000000
  R3         0.000000  0.000000  0.000000  0.000000  0.000000
  A3         0.000000  0.000000  0.000000  0.000000  0.000000
  D3         0.100000  0.000000  0.000000  0.000000  0.000000
  D4         0.000000  0.100000  0.000000  0.000000  0.000000
  R5         0.000000  0.000000  1.000000  0.000000  0.000000
  A5         0.000000  0.000000  0.000000  0.250000  0.000000
  D5         0.000000  0.000000  0.000000  0.000000  0.100000
   The eigenvectors of the Hessian matrix: 
                   1         2         3         4         5
  R1         0.000000  0.000000  0.000000  0.000000  0.000000
  R2         0.000000  0.000000  0.000000  0.000000  0.000000
  A2         0.000000  0.000000  0.000000  0.000000  0.000000
  R3         0.000000  0.000000  0.000000  0.000000  0.000000
  A3         0.000000  0.000000  0.000000  1.000000  0.000000
  D3         1.000000  0.000000  0.000000  0.000000  0.000000
  D4         0.000000  1.000000  0.000000  0.000000  0.000000
  R5         0.000000  0.000000  0.000000  0.000000  0.000000
  A5         0.000000  0.000000  0.000000  0.000000  1.000000
  D5         0.000000  0.000000  1.000000  0.000000  0.000000
 
                   6         7         8         9        10
  R1         0.000000  0.000000  0.000000  0.000000  1.000000
  R2         0.000000  1.000000  0.000000  0.000000  0.000000
  A2         1.000000  0.000000  0.000000  0.000000  0.000000
  R3         0.000000  0.000000  0.000000  1.000000  0.000000
  A3         0.000000  0.000000  0.000000  0.000000  0.000000
  D3         0.000000  0.000000  0.000000  0.000000  0.000000
  D4         0.000000  0.000000  0.000000  0.000000  0.000000
  R5         0.000000  0.000000  1.000000  0.000000  0.000000
  A5         0.000000  0.000000  0.000000  0.000000  0.000000
  D5         0.000000  0.000000  0.000000  0.000000  0.000000
   The eigenvalues of the Hessian matrix: 
     0.10000    0.10000    0.10000    0.25000    0.25000    0.25000
     1.00000    1.00000    1.00000    1.00000
   Gradients along Hessian eigenvectors: 
    -0.00054    0.00067   -0.00001    0.00905    0.01262   -0.00397
    -0.00441    0.03872   -0.00323    0.01697
   There are  0 negative eigenvalues.
   Summary of Optimization Cycle: 
   The maximum unscaled step is:    0.07308.
   Scale factor set to:  1.00000.
   Forces are in hartree/bohr and hartree/radian.
   Parameter values are in Angstroms and degrees.
--------------------------------------------------------------------------
  Parameter     dV/dR           Step          Rold            Rnew
--------------------------------------------------------------------------
    R1      0.0169722082   -0.0089813039    1.4519720023    1.4429906984
    R2     -0.0044127789    0.0023351415    1.0936979385    1.0960330800
    A2     -0.0039682339    0.9094522289  110.5990000000  111.5084522289
    R3     -0.0022838607    0.0012085668    1.0935180183    1.0947265851
    A3      0.0063971102   -1.4661096604  110.2050000000  108.7388903396
    D3     -0.0005405931    0.3097370104 -121.0100000000 -120.7002629896
    D4      0.0006694903   -0.3835896728  119.7860000000  119.4024103272
    R5      0.0387248710   -0.0204923149    1.0191686357    0.9986763208
    A5      0.0126182517   -2.8918902619  109.4120000000  106.5201097381
    D5     -0.0000149166    0.0085466007  180.0000000000  180.0085466007
--------------------------------------------------------------------------
  Minimum force:  0.000014917 / RMS force:  0.014244265
 Updating structure...
   Rotational constants (in cm-1): 
          0.7777441660             0.8090414356             4.1558011842
   Rotational constants (in MHz): 
      23316.1867890339         24254.4554595616        124587.8026510813
 ----------------------------------------------------------------
 Z-matrix   Atomic            Coordinates (in bohr)
  Symbol    Number           X              Y              Z
 ----------------------------------------------------------------
     C         6        -1.39976707    -0.02350873    -0.00163484
     O         8         1.32271509     0.13089319     0.00046262
     H         1        -2.10769822    -0.97530877     1.69624357
     H         1        -2.00468524    -1.07176134    -1.67940129
     H         1        -2.17416464     1.89435385    -0.04372184
     H         1         1.96088646    -1.64473926     0.03900324
 ----------------------------------------------------------------
   Interatomic distance matrix (Angstroms) 
 
                 C             O             H             H             H    
                [ 1]        [ 2]        [ 3]        [ 4]        [ 5]
  C    [ 1]     0.00000
  O    [ 2]     1.44299     0.00000
  H    [ 3]     1.09603     2.10790     0.00000
  H    [ 4]     1.09473     2.07259     1.78787     0.00000
  H    [ 5]     1.09473     2.07259     1.77624     1.79468     0.00000
  H    [ 6]     1.97462     0.99868     2.35159     2.30705     2.88053
 
                 H    
                [ 6]
  H    [ 6]     0.00000
   Rotational constants (in cm-1): 
          4.1558011842             0.8090414356             0.7777441660
   Rotational constants (in MHz): 
     124587.8026510812         24254.4554595616         23316.1867890339
 @GETREC: requested length of vector OCCUPYA0 is longer than actual
 Actual --                      1  Requested --                      8
  There are   36 basis functions.
  @CHECKOUT-I, Total execution time (CPU/WALL):        0.01/       0.02 seconds.
--executable xjoda finished with status     0 in        0.04 seconds (walltime).
 --invoking executable--
/opt/vulcan/opt/vulcan/linux-x86_64/intel-13.0.0/cfour-2.0-yhj426etc3g7hslvbmpgvdymp2w76rob/bin/xvmol
 Serial version of molecule started
********************************************************************************
                    Input from MOL file
********************************************************************************
INTGRL        1    0    1    0    0    0    0    0    0                         
         *** CFOUR Program System (Release V0.1) ***                            
MIN4                                                                            
    6    0            0.10E-08              0    0                              
   9999.00      3.00                                                            
          6.00000000    1    3    1    1    1                                   
C #1  -1.399767065499168  -0.023508725821209  -0.001634844745202                
   10    3                                                                      
   3047.52488000000       1.834700000000000E-003  0.000000000000000E+000        
  0.000000000000000E+000                                                        
   457.369518000000       1.403730000000000E-002  0.000000000000000E+000        
  0.000000000000000E+000                                                        
   103.948685000000       6.884260000000000E-002  0.000000000000000E+000        
  0.000000000000000E+000                                                        
   29.2101553000000       0.232184400000000       0.000000000000000E+000        
  0.000000000000000E+000                                                        
   9.28666300000000       0.467941300000000       0.000000000000000E+000        
  0.000000000000000E+000                                                        
   3.16392700000000       0.362312000000000       0.000000000000000E+000        
  0.000000000000000E+000                                                        
   7.86827240000000       0.000000000000000E+000 -0.119332400000000             
  0.000000000000000E+000                                                        
   1.88128850000000       0.000000000000000E+000 -0.160854200000000             
  0.000000000000000E+000                                                        
  0.544249300000000       0.000000000000000E+000   1.14345640000000             
  0.000000000000000E+000                                                        
  0.168714500000000       0.000000000000000E+000  0.000000000000000E+000        
   1.00000000000000                                                             
    4    2                                                                      
   7.86827240000000       6.899909999999999E-002  0.000000000000000E+000        
   1.88128850000000       0.316424000000000       0.000000000000000E+000        
  0.544249300000000       0.744308300000000       0.000000000000000E+000        
  0.168714500000000       0.000000000000000E+000   1.00000000000000             
    1    1                                                                      
  0.800000000000000        1.00000000000000                                     
          8.00000000    1    3    1    1    1                                   
O #2   1.322715086174465   0.130893189051615   0.000462621430732                
   10    3                                                                      
   5484.67166000000       1.831100000000000E-003  0.000000000000000E+000        
  0.000000000000000E+000                                                        
   825.234946000000       1.395020000000000E-002  0.000000000000000E+000        
  0.000000000000000E+000                                                        
   188.046958000000       6.844509999999999E-002  0.000000000000000E+000        
  0.000000000000000E+000                                                        
   52.9645000000000       0.232714300000000       0.000000000000000E+000        
  0.000000000000000E+000                                                        
   16.8975704000000       0.470192900000000       0.000000000000000E+000        
  0.000000000000000E+000                                                        
   5.79963530000000       0.358520900000000       0.000000000000000E+000        
  0.000000000000000E+000                                                        
   15.5396162000000       0.000000000000000E+000 -0.110777500000000             
  0.000000000000000E+000                                                        
   3.59993360000000       0.000000000000000E+000 -0.148026300000000             
  0.000000000000000E+000                                                        
   1.01376180000000       0.000000000000000E+000   1.13076700000000             
  0.000000000000000E+000                                                        
  0.270005800000000       0.000000000000000E+000  0.000000000000000E+000        
   1.00000000000000                                                             
    4    2                                                                      
   15.5396162000000       7.087430000000000E-002  0.000000000000000E+000        
   3.59993360000000       0.339752800000000       0.000000000000000E+000        
   1.01376180000000       0.727158600000000       0.000000000000000E+000        
  0.270005800000000       0.000000000000000E+000   1.00000000000000             
    1    1                                                                      
  0.800000000000000        1.00000000000000                                     
          1.00000000    1    1    1                                             
H #3  -2.107698223425286  -0.975308772650852   1.696243565985604                
    4    2                                                                      
   18.7311370000000       3.349460000000000E-002  0.000000000000000E+000        
   2.82539440000000       0.234727000000000       0.000000000000000E+000        
  0.640121700000000       0.813757300000000       0.000000000000000E+000        
  0.161277800000000       0.000000000000000E+000   1.00000000000000             
          1.00000000    1    1    1                                             
H #4  -2.004685239526100  -1.071761338270611  -1.679401291398070                
    4    2                                                                      
   18.7311370000000       3.349460000000000E-002  0.000000000000000E+000        
   2.82539440000000       0.234727000000000       0.000000000000000E+000        
  0.640121700000000       0.813757300000000       0.000000000000000E+000        
  0.161277800000000       0.000000000000000E+000   1.00000000000000             
          1.00000000    1    1    1                                             
H #5  -2.174164641647977   1.894353851449426  -0.043721838566952                
    4    2                                                                      
   18.7311370000000       3.349460000000000E-002  0.000000000000000E+000        
   2.82539440000000       0.234727000000000       0.000000000000000E+000        
  0.640121700000000       0.813757300000000       0.000000000000000E+000        
  0.161277800000000       0.000000000000000E+000   1.00000000000000             
          1.00000000    1    1    1                                             
H #6   1.960886461173696  -1.644739262829532   0.039003242423120                
    4    2                                                                      
   18.7311370000000       3.349460000000000E-002  0.000000000000000E+000        
   2.82539440000000       0.234727000000000       0.000000000000000E+000        
  0.640121700000000       0.813757300000000       0.000000000000000E+000        
  0.161277800000000       0.000000000000000E+000   1.00000000000000             
FINISH                                                                          
 
********************************************************************************
 One- and two-electron integrals over symmetry-adapted AOs are calculated.

  Spherical harmonics are used.
  
  Integrals less than  0.10E-13 are neglected.

  Nuclear repulsion energy :   39.7675425860 a.u.
  required memory for a1 array                5020082  words 
  required memory for a2 array                2070133  words 
 @GETMEM-I,  Allocated      69 MB of main memory.
  @MOLECU-I, One electron integrals (CPU/WALL):        0.01/       0.01 seconds.
  @TWOEL-I,     212532 integrals of symmetry type  I I I I
  @TWOEL-I, Total number of 2-e integrals     212532.
  @MOLECU-I, Two electron integrals (CPU/WALL):        0.47/       0.12 seconds.
  @CHECKOUT-I, Total execution time (CPU/WALL):        0.49/       0.13 seconds.
--executable xvmol finished with status     0 in        0.23 seconds (walltime).
 --invoking executable--
/opt/vulcan/opt/vulcan/linux-x86_64/intel-13.0.0/cfour-2.0-yhj426etc3g7hslvbmpgvdymp2w76rob/bin/xvmol2ja
 @GETMEM-I,  Allocated    6675 MB of main memory.
  @CHECKOUT-I, Total execution time (CPU/WALL):        0.00/       0.00 seconds.
--executable xvmol2ja finished with status     0 in        0.22 seconds (walltime).
 --invoking executable--
/opt/vulcan/opt/vulcan/linux-x86_64/intel-13.0.0/cfour-2.0-yhj426etc3g7hslvbmpgvdymp2w76rob/bin/xvscf
  There are   36 functions in the AO basis.

  There are 1 irreducible representations.

       Irrep        # of functions
         1                 36


  Parameters for SCF calculation: 
        SCF reference function:  RHF  
  Maximum number of iterations:  150
     Full symmetry point group: C1  
     Computational point group: C1  
        Initial density matrix: MOREAD                 
     SCF convergence tolerance: 10**(- 9)
  DIIS convergence acceleration:  ON
          Latest start for DIIS:   8
                     DIIS order:   6

     Alpha population by irrep:   9
      Beta population by irrep:   9


  Memory information:     100037 words required.
  Fock matrices are constructed from AO integral file.
 @GETMEM-I,  Allocated       0 MB of main memory.
  Initialization and symmetry analysis required      0.001 seconds.

 total no. of electrons in initial guess :  0.000000000000000E+000
  --------------------------------------------------------------------
  Iteration         Total Energy            Largest Density Difference
  --------------------------------------------------------------------
       0          -115.040346212847609              0.0000000000D+00
       1          -115.029580426658939              0.8416746007D-02
       2          -115.029656233719933              0.2303678235D-02
       3          -115.029667896359726              0.1433091400D-02
       4          -115.029669858378995              0.7761637040D-03
       5          -115.029670088252900              0.3874766504D-03
       6          -115.029670128504605              0.2202873627D-03
       7          -115.029670132088782              0.6696640017D-04
       8          -115.029670132327098              0.1584540411D-04
       9          -115.029670132339319              0.2420158037D-05
      10          -115.029670132340001              0.3788601531D-06
      11          -115.029670132340115              0.1141742491D-06
      12          -115.029670132340371              0.5294554151D-07
      13          -115.029670132340371              0.1570412759D-07
      14          -115.029670132340570              0.4773910529D-08
      15          -115.029670132339945              0.1643334567D-08

  SCF has converged.

 Density matrix saved to file den.dat
 total electron number:   18.0000000000001     
     E(SCF)=      -115.029670132340314              0.6299463035D-09

[...]
   Scale factor set to:  1.00000.
   Forces are in hartree/bohr and hartree/radian.
   Parameter values are in Angstroms and degrees.
--------------------------------------------------------------------------
  Parameter     dV/dR           Step          Rold            Rnew
--------------------------------------------------------------------------
    R1     -0.0000088152    0.0000087166    1.4269564914    1.4269652080
    R2     -0.0000103154    0.0000056980    1.1015547100    1.1015604080
    A2      0.0000001245   -0.0000557644  112.3016035374  112.3015477730
    R3     -0.0000090812    0.0000054157    1.0977865847    1.0977920003
    A3      0.0000001265   -0.0002758687  109.3672411403  109.3669652716
    D3      0.0000008308   -0.0001988911 -121.3952029786 -121.3954018697
    D4     -0.0000010259    0.0002333988  119.9953162878  119.9955496866
    R5      0.0000013697    0.0000033304    0.9718153833    0.9718187137
    A5      0.0000044430   -0.0018559719  106.9410997327  106.9392437608
    D5     -0.0000047981    0.0033120332 -179.9678341519 -179.9645221187
--------------------------------------------------------------------------
  Minimum force:  0.000000124 / RMS force:  0.000005595
--------------------------------------------------------------------------------
   RMS gradient is below .10000E-04.
   Convergence criterion satisfied.  Optimization completed.
--------------------------------------------------------------------------------
   Interatomic distance matrix (Angstroms) 
 
                 C             O             H             H             H    
                [ 1]        [ 2]        [ 3]        [ 4]        [ 5]
  C    [ 1]     0.00000
  O    [ 2]     1.42696     0.00000
  H    [ 3]     1.10155     2.10775     0.00000
  H    [ 4]     1.09779     2.06889     1.79274     0.00000
  H    [ 5]     1.09779     2.06889     1.78032     1.78113     0.00000
  H    [ 6]     1.94648     0.97182     2.34213     2.30566     2.85739
 
                 H    
                [ 6]
  H    [ 6]     0.00000
 @EFOL-I, Writing out completion flag to disk
 
********************************************************************************
*                          Final ZMATnew file                                  *
********************************************************************************
MIN4                                                                            
C                                                                               
O 1 R1*                                                                         
H 1 R2* 2 A2*                                                                   
H 1 R3* 2 A3* 3 D3*                                                             
H 1 R3* 2 A3* 3 D4*                                                             
H 2 R5* 1 A5* 5 D5*                                                             
                                                                                
R1   =        2.696573997657883                                                 
R2   =        2.081647917136476                                                 
A2   =      112.301547773046437                                                 
R3   =        2.074526657212965                                                 
A3   =      109.366965271564894                                                 
D3   =     -121.395401869715215                                                 
D4   =      119.995549686614808                                                 
R5   =        1.836471596506251                                                 
A5   =      106.939243760784038                                                 
D5   =     -179.964522118665798                                                 
                                                                                
*CFOUR(REF=RHF                                                                  
       CALC=CCSD(T)                                                             
       ABCDTYPE=AOBASIS                                                         
       BASIS=6-31G*                                                             
       ORB=SEMICANONICAL                                                        
       UNITS=BOHR                                                               
       MEMORY=7                                                                 
       MEM_UNIT=GB                                                              
       SCF_CONV=9                                                               
       CC_CONV=6                                                                
       CHARGE=0                                                                 
       MULT=1)                                                                  
                                                                                
********************************************************************************
--executable xjoda finished with status     0 in        0.04 seconds (walltime).
 --invoking executable--
/opt/vulcan/opt/vulcan/linux-x86_64/intel-13.0.0/cfour-2.0-yhj426etc3g7hslvbmpgvdymp2w76rob/bin/xvprop
 @GETMEM-I,  Allocated    6675 MB of main memory.
   Property integrals will be calculated.
    --------------------------------------------------------------
                                   Property evaluated at 
    Property type                X             Y             Z
    --------------------------------------------------------------
    Dipole moment               ----          ----          ----  
    Quadrupole moment           ----          ----          ----  
    Octopole moment             ----          ----          ----  
    Relativisitic corr.         ----          ----          ----  
    Second moment            0.0000000     0.0000000     0.0000000
    Electron density        -1.3811192    -0.0237874     0.0000684
    Electron density         1.3112169     0.1270091     0.0030984
    Electron density        -2.1178387    -1.0296713     1.6669982
    Electron density        -2.0136787    -0.9975374    -1.7190296
    Electron density        -2.1774435     1.8918028    -0.0003725
    Electron density         1.9437473    -1.5970877     0.0024153
    Field gradient          -1.3811192    -0.0237874     0.0000684
    Field gradient           1.3112169     0.1270091     0.0030984
    Field gradient          -2.1178387    -1.0296713     1.6669982
    Field gradient          -2.0136787    -0.9975374    -1.7190296
    Field gradient          -2.1774435     1.8918028    -0.0003725
    Field gradient           1.9437473    -1.5970877     0.0024153
    Potential               -1.3811192    -0.0237874     0.0000684
    Potential                1.3112169     0.1270091     0.0030984
    Potential               -2.1178387    -1.0296713     1.6669982
    Potential               -2.0136787    -0.9975374    -1.7190296
    Potential               -2.1774435     1.8918028    -0.0003725
    Potential                1.9437473    -1.5970877     0.0024153
    --------------------------------------------------------------
  @CHECKOUT-I, Total execution time (CPU/WALL):        0.11/       0.11 seconds.
--executable xvprop finished with status     0 in        0.15 seconds (walltime).
 --invoking executable--
/opt/vulcan/opt/vulcan/linux-x86_64/intel-13.0.0/cfour-2.0-yhj426etc3g7hslvbmpgvdymp2w76rob/bin/xprops
  @DRVPRP-I, Properties computed from the SCF density matrix follow.
   Components of electric dipole moment 
        X =   -0.4314066143   Y =   -0.6397515594   Z =   -0.0015308550
   Components of second moment 
       XX =   51.7720638668  YY =   17.0271516911  ZZ =   15.9172004255
       XY =    0.1612397210  XZ =   -0.0037468688  YZ =   -0.0025497349
   Components of electric quadrupole moment 
       XX =  -35.2951958980  YY =   16.8151388752  ZZ =   18.4800570228
       XY =   -0.2476458669  XZ =    0.0056203032  YZ =    0.0038246023
   Components of electric octopole moment 
      XXX =   -0.3737286304 YYY =    3.9424351990 ZZZ =   -0.1808201023
      XXY =   -4.4745291249 XXZ =    0.1771277113 XYY =    2.9956532264
      YYZ =    0.0036923910 XZZ =   -2.6219245960 YZZ =    0.5320939260
      XYZ =    0.0216760545
  Relativistic correction to the energy 
      Darwin =    0.2542112443 p**4   =   -0.3200016837 Total  =   -0.0657904394
   Charge densities at atomic centers 
          Z-matrix                               Charge
           center                               Density
              1                            118.1294255201
              2                            291.0814977985
              3                              0.4278457770
              4                              0.4304508215
              5                              0.4243427808
              6                              0.3853613877
   Electric field gradient at atomic centers 
                             Z-matrix center   1:
       XX =    0.3407625394  YY =   -0.1815569760  ZZ =   -0.1592055634
       XY =    0.0251671365  XZ =    0.0082723027  YZ =   -0.0030714745
                             Z-matrix center   2:
       XX =    1.3899331534  YY =    0.6234987444  ZZ =   -2.0134318977
       XY =   -0.7241111486  XZ =   -0.0297984352  YZ =   -0.0098449290
                             Z-matrix center   3:
       XX =   -0.0793959425  YY =   -0.0465522109  ZZ =    0.1259481534
       XY =    0.0691782004  XZ =   -0.1166269594  YZ =   -0.1683336883
                             Z-matrix center   4:
       XX =   -0.0926331781  YY =   -0.0538962604  ZZ =    0.1465294385
       XY =    0.0601192146  XZ =    0.1089981010  YZ =    0.1718374328
                             Z-matrix center   5:
       XX =   -0.0712569814  YY =    0.2224794987  ZZ =   -0.1512225174
       XY =   -0.1498096864  XZ =    0.0000525592  YZ =   -0.0001799390
                             Z-matrix center   6:
       XX =   -0.1151085488  YY =    0.3705326322  ZZ =   -0.2554240834
       XY =   -0.2090424736  XZ =   -0.0003217941  YZ =    0.0004752295
   Electrostatic potential at atomic centers 
          Z-matrix                             Potential
           center                               [<1/r>]
              1                            -14.6871573329
              2                            -22.3312048638
              3                             -1.1181108975
              4                             -1.1212006769
              5                             -1.1148611898
              6                             -0.9986792642
  @DRVPRP-I, Properties computed from the correlated density matrix follow.
   Components of electric dipole moment 
        X =   -0.3821547878   Y =   -0.6132720338   Z =   -0.0028113800
   Components of second moment 
       XX =   51.8138457916  YY =   17.1185464296  ZZ =   15.9769057825
       XY =    0.1198885905  XZ =   -0.0057421332  YZ =   -0.0030720758
   Components of electric quadrupole moment 
       XX =  -35.2614277750  YY =   16.7744877776  ZZ =   18.4869399974
       XY =   -0.1856191711  XZ =    0.0086131998  YZ =    0.0046081138
   Components of electric octopole moment 
      XXX =   -0.0989227306 YYY =    3.7545471278 ZZZ =   -0.1662118761
      XXY =   -4.2393060829 XXZ =    0.1619607173 XYY =    2.7002985021
      YYZ =    0.0042511588 XZZ =   -2.6013757714 YZZ =    0.4847589551
      XYZ =    0.0180867782
  Relativistic correction to the energy 
      Darwin =    0.2541813909 p**4   =   -0.3200234423 Total  =   -0.0658420514
   Charge densities at atomic centers 
          Z-matrix                               Charge
           center                               Density
              1                            118.1128427520
              2                            291.0481484522
              3                              0.4279661792
              4                              0.4303511316
              5                              0.4245744226
              6                              0.3945033308
   Electric field gradient at atomic centers 
                             Z-matrix center   1:
       XX =    0.3306742640  YY =   -0.1753843768  ZZ =   -0.1552898872
       XY =    0.0233074318  XZ =    0.0064077319  YZ =   -0.0025239788
                             Z-matrix center   2:
       XX =    1.3087304033  YY =    0.5604773233  ZZ =   -1.8692077265
       XY =   -0.6364696564  XZ =   -0.0268637412  YZ =   -0.0097443196
                             Z-matrix center   3:
       XX =   -0.0791249352  YY =   -0.0454747200  ZZ =    0.1245996551
       XY =    0.0681746450  XZ =   -0.1151746528  YZ =   -0.1659645442
                             Z-matrix center   4:
       XX =   -0.0921671585  YY =   -0.0527503139  ZZ =    0.1449174724
       XY =    0.0592091219  XZ =    0.1075409122  YZ =    0.1694462138
                             Z-matrix center   5:
       XX =   -0.0714754992  YY =    0.2206008859  ZZ =   -0.1491253868
       XY =   -0.1477732316  XZ =    0.0000220773  YZ =   -0.0001831695
                             Z-matrix center   6:
       XX =   -0.1180720034  YY =    0.3785616285  ZZ =   -0.2604896251
       XY =   -0.2156978224  XZ =   -0.0003340643  YZ =    0.0005090439
   Electrostatic potential at atomic centers 
          Z-matrix                             Potential
           center                               [<1/r>]
              1                            -14.7214910362
              2                            -22.3146174056
              3                             -1.1149028507
              4                             -1.1174652847
              5                             -1.1108231196
              6                             -0.9950613891
 
  Mulliken population analysis of SCF density.
   Total density is analyzed.
 
  Population analysis by orbitals.
 -------------------------------------------------------
     Z-matrix
      Center          Function          Population
 -------------------------------------------------------
         1                S              1.99742013
         1                S              0.65372333
         1                S              0.59672222
         1                P              0.53745473
         1                P              0.13208269
         1                P              0.71942177
         1                P              0.38777960
         1                P              0.70978225
         1                P              0.34496285
         1                D              0.01540429
         1                D              0.01379554
         1                D              0.01676623
         1                D              0.00796699
         1                D              0.01096063
         1                D              0.00873123
         2                S              1.99778924
         2                S              0.89104913
         2                S              0.99685270
         2                P              0.81885006
         2                P              0.54086313
         2                P              0.90321510
         2                P              0.62350514
         2                P              1.15446134
         2                P              0.80646376
         2                D              0.00760924
         2                D              0.00591867
         2                D              0.00221621
         2                D              0.00971497
         2                D              0.00127086
         2                D              0.00376183
         3                S              0.53336012
         3                S              0.32070284
         4                S              0.53515117
         4                S              0.31820371
         5                S              0.52933821
         5                S              0.29381226
         6                S              0.46150741
         6                S              0.09140843
 -------------------------------------------------------
  Population analysis by atoms (atomic charges).
 -------------------------------------------------------
     Z-matrix
      Center          Function          Population
 -------------------------------------------------------
         1                               6.15297449
         2                               8.76354137
         3                               0.85406296
         4                               0.85335487
         5                               0.82315047
         6                               0.55291584
 -------------------------------------------------------
 
  Mulliken population analysis of CCSD(T) density.
   Total density is analyzed.
 
  Population analysis by orbitals.
 -------------------------------------------------------
     Z-matrix
      Center          Function          Population
 -------------------------------------------------------
         1                S              1.99717505
         1                S              0.66903772
         1                S              0.55869427
         1                P              0.56037146
         1                P              0.14706700
         1                P              0.73391919
         1                P              0.37489988
         1                P              0.72532146
         1                P              0.33442531
         1                D              0.01530381
         1                D              0.01582494
         1                D              0.01926881
         1                D              0.00904640
         1                D              0.01263303
         1                D              0.00959345
         2                S              1.99771114
         2                S              0.89760850
         2                S              0.97394285
         2                P              0.81952961
         2                P              0.50501486
         2                P              0.90296678
         2                P              0.59124884
         2                P              1.13332337
         2                P              0.80756332
         2                D              0.00977617
         2                D              0.01074755
         2                D              0.00762054
         2                D              0.01189642
         2                D              0.00634660
         2                D              0.00682554
         3                S              0.52846848
         3                S              0.33375857
         4                S              0.53005713
         4                S              0.33124628
         5                S              0.52488734
         5                S              0.30658044
         6                S              0.46996494
         6                S              0.11033296
 -------------------------------------------------------
  Population analysis by atoms (atomic charges).
 -------------------------------------------------------
     Z-matrix
      Center          Function          Population
 -------------------------------------------------------
         1                               6.18258178
         2                               8.68212208
         3                               0.86222705
         4                               0.86130340
         5                               0.83146778
         6                               0.58029790
 -------------------------------------------------------
  @CHECKOUT-I, Total execution time (CPU/WALL):        0.02/       0.01 seconds.
--executable xprops finished with status     0 in        0.28 seconds (walltime).
  The final electronic energy is      -115.373878605639106 a.u. 
  This computation required                           49.77 seconds (walltime).
