
 Primary working directories    : /tmp/601555.25.gen4.q
 Secondary working directories  : /tmp/601555.25.gen4.q
 Wavefunction directory         : /home/vulcan/mel64643/wfu/
 Main file repository           : /tmp/601555.25.gen4.q/

 ARCHNAME  : Linux/x86_64
 FC        : /opt/intel/compilers_and_libraries_2016.1.150/linux/bin/intel64/ifort
 FCVERSION : 16.0.1
 BLASLIB   : -mkl
 id        : ccgc

 Nodes     nprocs
 n062         1
 ga_uses_ma=false, calling ma_init with nominal heap.
 GA-space will be limited to   8.0 MW (determined by -G option)

 Using customized tuning parameters: mindgm=10; mindgv=16; mindgc=4; mindgr=1; noblas=0; mincuda=1000; minvec=7
 default implementation of scratch files=df  

 ***,Optimization of min3
 memory,1000,m
 gthresh,energy=1.0d-12,orbital=1.0d-10,oneint=1.0d-16,twoint=1.0d-16,optgrad=1.0d-6,compress=1.0d-13
 geomtyp=xyz
 
  bohr
  geometry = {
  6
  arbitrary comment
  C   -1.3723896906   -0.0216062961    0.0000002692
  O    1.3041928180    0.1226834237    0.0000003269
  H   -2.0778708769    1.9077036314   -0.0000798693
  H   -2.1024207470   -0.9806775462    1.6817264182
  H   -2.1024134241   -0.9808087804   -1.6816542361
  H    1.9271777606   -1.5774265524   -0.0000013189
 }
 
 basis=cc-pvdz
 {rhf;maxit,200}
 {ccsd(t);maxit,200}

 Variables initialized (661), CPU time= 0.00 sec
 Commands  initialized (458), CPU time= 0.00 sec, 486 directives.
 Default parameters read. Elapsed time= 0.05 sec

 Checking input...
 Passed
1


                                         ***  PROGRAM SYSTEM MOLPRO  ***
                         Copyright, University College Cardiff Consultants Limited, 2008

                                    Version 2010.1 linked May 16 2016 07:17:05


 **********************************************************************************************************************************
 LABEL *   Optimization of min3                                                          
 Linux-4.4.3/n062(x86_64) 64 bit mpp version                                             DATE: 06-Nov-21          TIME: 15:38:46  
 **********************************************************************************************************************************

 SHA1:             9e8077add272b0f3cad6f7df79ec5211205f459d
 **********************************************************************************************************************************

 THRESHOLDS:

 ZERO    =  1.00D-12  ONEINT  =  1.00D-16  TWOINT  =  1.00D-16  PREFAC  =  1.00D-14  LOCALI  =  1.00D-09  EORDER  =  1.00D-04
 ENERGY  =  1.00D-12  ETEST   =  0.00D+00  EDENS   =  0.00D+00  THRDEDEF=  1.00D-06  GRADIENT=  1.00D-02  STEP    =  1.00D-03
 ORBITAL =  1.00D-10  CIVEC   =  1.00D-05  COEFF   =  1.00D-04  PRINTCI =  5.00D-02  PUNCHCI =  9.90D+01  OPTGRAD =  1.00D-06
 OPTENERG=  1.00D-06  OPTSTEP =  3.00D-04  THRGRAD =  1.00D-10  COMPRESS=  1.00D-13  VARMIN  =  1.00D-07  VARMAX  =  1.00D-03
 THRDOUB =  0.00D+00  THRDIV  =  1.00D-05  THRRED  =  1.00D-07  THRPSP  =  1.00D+00  THRDC   =  1.00D-10  THRCS   =  1.00D-10
 THRNRM  =  1.00D-08  THREQ   =  0.00D+00  THRDE   =  1.00D+00  THRREF  =  1.00D-05  SPARFAC =  1.00D+00  THRDLP  =  1.00D-07
 THRDIA  =  1.00D-10  THRDLS  =  1.00D-07  THRGPS  =  0.00D+00  THRKEX  =  0.00D+00  THRDIS  =  2.00D-01  THRVAR  =  1.00D-10
 THRLOC  =  1.00D-06  THRGAP  =  1.00D-06  THRLOCT = -1.00D+00  THRGAPT = -1.00D+00  THRORB  =  1.00D-06  THRMLTP =  0.00D+00
 THRCPQCI=  1.00D-10  KEXTA   =  0.00D+00  THRCOARS=  0.00D+00  SYMTOL  =  1.00D-06  GRADTOL =  1.00D-06  THROVL  =  1.00D-08
 THRORTH =  1.00D-08  GRID    =  1.00D-06  GRIDMAX =  1.00D-03  DTMAX   =  0.00D+00

 SETTING GEOMTYP        =    XYZ
 ZUNIT=BOHR
 

 Variable memory set to 1000000000 words,  buffer space   230000 words

 SETTING BASIS          =    CC-PVDZ


 Recomputing integrals since basis changed


 Using spherical harmonics

 Library entry C      S cc-pVDZ              selected for orbital group  1
 Library entry C      P cc-pVDZ              selected for orbital group  1
 Library entry C      D cc-pVDZ              selected for orbital group  1
 Library entry O      S cc-pVDZ              selected for orbital group  2
 Library entry O      P cc-pVDZ              selected for orbital group  2
 Library entry O      D cc-pVDZ              selected for orbital group  2
 Library entry H      S cc-pVDZ              selected for orbital group  3
 Library entry H      P cc-pVDZ              selected for orbital group  3

1PROGRAM * SEWARD (Integral evaluation for generally contracted gaussian basis sets)     Author: Roland Lindh, 1990

 Geometry written to block  1 of record 700


 Point group  C1  



 ATOMIC COORDINATES

 NR  ATOM    CHARGE       X              Y              Z

   1  C       6.00   -1.372389691   -0.021606296    0.000000269
   2  O       8.00    1.304192818    0.122683424    0.000000327
   3  H       1.00   -2.077870877    1.907703631   -0.000079869
   4  H       1.00   -2.102420747   -0.980677546    1.681726418
   5  H       1.00   -2.102413424   -0.980808780   -1.681654236
   6  H       1.00    1.927177761   -1.577426552   -0.000001319

 Bond lengths in Bohr (Angstrom)

 1-2  2.680468886  1-3  2.054249378  1-4  2.069049503  1-5  2.069049524  2-6  1.810658491
     ( 1.418443044)     ( 1.087061952)     ( 1.094893841)     ( 1.094893852)     ( 0.958159207)

 Bond angles

  1-2-6  107.03902994   2-1-3  106.99997419   2-1-4  112.16495403   2-1-5  112.16494854

  3-1-4  108.31251539   3-1-5  108.31235647   4-1-5  108.73766783

 NUCLEAR CHARGE:                   18
 NUMBER OF PRIMITIVE AOS:          82
 NUMBER OF SYMMETRY AOS:           80
 NUMBER OF CONTRACTIONS:           48   (  48A   )
 NUMBER OF CORE ORBITALS:           2   (   2A   )
 NUMBER OF VALENCE ORBITALS:       12   (  12A   )


 NUCLEAR REPULSION ENERGY   40.36508108


 Eigenvalues of metric

         1 0.964E-02 0.176E-01 0.367E-01 0.374E-01 0.380E-01 0.475E-01 0.477E-01 0.514E-01


 Contracted 2-electron integrals neglected if value below      1.0D-16
 AO integral compression algorithm  1   Integral accuracy      1.0D-16

     6.291 MB (compressed) written to integral file ( 98.3%)

     Node minimum: 6.291 MB, node maximum: 6.291 MB


 NUMBER OF SORTED TWO-ELECTRON INTEGRALS:     692076.     BUFFER LENGTH:  32768
 NUMBER OF SEGMENTS:   1  SEGMENT LENGTH:     692076      RECORD LENGTH: 524288

 Memory used in sort:       1.25 MW

 SORT1 READ      832256. AND WROTE      682148. INTEGRALS IN      2 RECORDS. CPU TIME:     0.00 SEC, REAL TIME:     0.01 SEC
 SORT2 READ      682148. AND WROTE      692076. INTEGRALS IN     24 RECORDS. CPU TIME:     0.02 SEC, REAL TIME:     0.02 SEC

 FILE SIZES:   FILE 1:     8.0 MBYTE,  FILE 4:     8.4 MBYTE,   TOTAL:     16.4 MBYTE

 OPERATOR DM      FOR CENTER  0  COORDINATES:    0.000000    0.000000    0.000000


 **********************************************************************************************************************************
 DATASETS  * FILE   NREC   LENGTH (MB)   RECORD NAMES
              1      19        8.03       500      610      700      900      950      970     1000      129      960     1100   
                                          VAR    BASINP    GEOM    SYMINP    ZMAT    AOBASIS   BASIS     P2S    ABASIS      S 
                                         1400     1410     1200     1210     1080     1600     1650     1300     1700   
                                           T        V       H0       H01     AOSYM     SMH    MOLCAS    ERIS     OPER   

 PROGRAMS   *        TOTAL       INT
 CPU TIMES  *         0.21      0.17
 REAL TIME  *         0.40 SEC
 DISK USED  *        23.34 MB      
 GA USED    *         0.00 MB       (max)       0.00 MB       (current)
 **********************************************************************************************************************************

1PROGRAM * RHF-SCF (CLOSED SHELL)       Authors: W. Meyer, H.-J. Werner


 NUMBER OF ELECTRONS:       9+    9-    SPACE SYMMETRY=1    SPIN SYMMETRY: Singlet 
 CONVERGENCE THRESHOLDS:    1.00E-10 (Density)    1.00E-13 (Energy)
 MAX. NUMBER OF ITERATIONS:      200
 INTERPOLATION TYPE:            DIIS
 INTERPOLATION STEPS:              2 (START)      1 (STEP)
 LEVEL SHIFTS:                  0.00 (CLOSED)  0.00 (OPEN) 



 Orbital guess generated from atomic densities. Full valence occupancy:   14

 Molecular orbital dump at record        2100.2

 ITERATION    DDIFF          GRAD             ENERGY        2-EL.EN.            DIPOLE MOMENTS         DIIS
    1      0.000D+00      0.000D+00      -115.01429135    164.491132   -0.49626   -0.90118   -0.00000    0
    2      0.000D+00      0.110D-01      -115.04269173    162.272765   -0.31697   -0.53505   -0.00000    1
    3      0.205D-01      0.529D-02      -115.04870490    163.296287   -0.40057   -0.61015   -0.00000    2
    4      0.638D-02      0.112D-02      -115.04916791    163.140175   -0.39039   -0.59895   -0.00000    3
    5      0.204D-02      0.202D-03      -115.04918888    163.146647   -0.39321   -0.59463   -0.00000    4
    6      0.433D-03      0.354D-04      -115.04918967    163.146800   -0.39352   -0.59442   -0.00000    5
    7      0.929D-04      0.735D-05      -115.04918970    163.145612   -0.39366   -0.59425   -0.00000    6
    8      0.150D-04      0.237D-05      -115.04918970    163.145994   -0.39369   -0.59422   -0.00000    7
    9      0.502D-05      0.489D-06      -115.04918970    163.145953   -0.39371   -0.59422   -0.00000    6
   10      0.140D-05      0.870D-07      -115.04918970    163.145951   -0.39371   -0.59422   -0.00000    6
   11      0.233D-06      0.324D-07      -115.04918970    163.145957   -0.39371   -0.59422   -0.00000    6
   12      0.581D-07      0.135D-07      -115.04918970    163.145955   -0.39371   -0.59422   -0.00000    7
   13      0.252D-07      0.297D-08      -115.04918970    163.145955   -0.39371   -0.59422   -0.00000    7
   14      0.742D-08      0.644D-09      -115.04918970    163.145955   -0.39371   -0.59422   -0.00000    7
   15      0.165D-08      0.148D-09      -115.04918970    163.145955   -0.39371   -0.59422   -0.00000    7
   16      0.328D-09      0.444D-10      -115.04918970    163.145955   -0.39371   -0.59422   -0.00000    7
   17      0.860D-10      0.146D-10      -115.04918970    163.145955   -0.39371   -0.59422   -0.00000    0

 Final occupancy:   9

 !RHF STATE 1.1 Energy               -115.049189702245
 Nuclear energy                        40.36508108
 One-electron energy                 -236.98724845
 Two-electron energy                   81.57297767
 Virial quotient                       -1.00083062
 !RHF STATE 1.1 Dipole moment          -0.39370921    -0.59422481    -0.00000284
 Dipole moment /Debye                  -1.00064344    -1.51026989    -0.00000722

 Orbital energies:

         1.1          2.1          3.1          4.1          5.1          6.1          7.1          8.1          9.1         10.1
    -20.549874   -11.274320    -1.351302    -0.921304    -0.683608    -0.614136    -0.585699    -0.497571    -0.442833     0.184475

        11.1
      0.224872


 **********************************************************************************************************************************
 DATASETS  * FILE   NREC   LENGTH (MB)   RECORD NAMES
              1      19        8.03       500      610      700      900      950      970     1000      129      960     1100   
                                          VAR    BASINP    GEOM    SYMINP    ZMAT    AOBASIS   BASIS     P2S    ABASIS      S 
                                         1400     1410     1200     1210     1080     1600     1650     1300     1700   
                                           T        V       H0       H01     AOSYM     SMH    MOLCAS    ERIS     OPER   

              2       3        0.39       700     1000     2100   
                                         GEOM     BASIS     RHF  

 PROGRAMS   *        TOTAL       RHF       INT
 CPU TIMES  *         0.30      0.09      0.17
 REAL TIME  *         0.52 SEC
 DISK USED  *        23.34 MB      
 GA USED    *         0.00 MB       (max)       0.00 MB       (current)
 **********************************************************************************************************************************


1PROGRAM * CCSD (Closed-shell coupled cluster)     Authors: C. Hampel, H.-J. Werner, 1991, M. Deegan, P.J. Knowles, 1992


 Convergence thresholds:  THRVAR = 1.00D-08  THRDEN = 1.00D-12

 CCSD(T)     terms to be evaluated (factor= 1.000)


 Number of core orbitals:           2 (   2 )
 Number of closed-shell orbitals:   7 (   7 )
 Number of external orbitals:      39 (  39 )

 Molecular orbitals read from record     2100.2  Type=RHF/CANONICAL (state 1.1)

 Number of N-1 electron functions:               7
 Number of N-2 electron functions:              28
 Number of singly external CSFs:               273
 Number of doubly external CSFs:             37401
 Total number of CSFs:                       37675

 Length of J-op  integral file:               0.00 MB
 Length of K-op  integral file:               0.19 MB
 Length of 3-ext integral record:             0.00 MB

 Memory could be reduced to 0.96 Mwords without degradation in triples

 Integral transformation finished. Total CPU:   0.02 sec, npass=  1  Memory used:   0.66 MW

 Reference energy:                   -115.04918970

 MP2 singlet pair energy:              -0.21855406
 MP2 triplet pair energy:              -0.11982546
 MP2 correlation energy:               -0.33837953
 MP2 total energy:                   -115.38756923

 SCS-MP2 correlation energy:           -0.33682294   (PS=  1.200000  PT=  0.333333)
 SCS-MP2 total energy:               -115.38601264

 ITER.      SQ.NORM     CORR.ENERGY   TOTAL ENERGY   ENERGY CHANGE        DEN1      VAR(S)    VAR(P)  DIIS     TIME
   1      1.10720896    -0.36117755  -115.41036725    -0.02279802    -0.01413476  0.91D-03  0.17D-02  1  1     0.05
   2      1.11570966    -0.36311722  -115.41230692    -0.00193967    -0.00923511  0.20D-04  0.16D-03  2  2     0.09
   3      1.11757887    -0.36324355  -115.41243326    -0.00012634    -0.00119795  0.94D-05  0.85D-05  3  3     0.13
   4      1.11809010    -0.36324216  -115.41243186     0.00000139    -0.00025351  0.33D-06  0.67D-06  4  4     0.17
   5      1.11818704    -0.36324257  -115.41243227    -0.00000041    -0.00003573  0.97D-07  0.48D-07  5  5     0.21
   6      1.11820575    -0.36324123  -115.41243094     0.00000134    -0.00000431  0.15D-07  0.40D-08  6  6     0.24
   7      1.11821040    -0.36324082  -115.41243052     0.00000041    -0.00000034  0.20D-08  0.70D-09  6  1     0.28
   8      1.11821164    -0.36324092  -115.41243063    -0.00000010     0.00000074  0.25D-09  0.70D-10  6  3     0.32
   9      1.11821269    -0.36324080  -115.41243050     0.00000012    -0.00000038  0.12D-10  0.10D-10  6  2     0.36
  10      1.11821261    -0.36324080  -115.41243051    -0.00000000     0.00000007  0.11D-11  0.85D-12  6  5     0.40
  11      1.11821264    -0.36324080  -115.41243050     0.00000000    -0.00000000  0.18D-12  0.49D-13  6  4     0.44
  12      1.11821263    -0.36324080  -115.41243051    -0.00000000     0.00000001  0.18D-13  0.96D-14  6  1     0.48
  13      1.11821263    -0.36324080  -115.41243051    -0.00000000    -0.00000000  0.23D-14  0.90D-15  6  6     0.51
  14      1.11821263    -0.36324080  -115.41243051     0.00000000    -0.00000000  0.22D-15  0.12D-15  6  3     0.55
  15      1.11821263    -0.36324080  -115.41243051    -0.00000000    -0.00000000  0.24D-16  0.16D-16  6  2     0.59
  16      1.11821263    -0.36324080  -115.41243051    -0.00000000    -0.00000000  0.53D-17  0.16D-17  6  5     0.63
  17      1.11821263    -0.36324080  -115.41243051    -0.00000000    -0.00000000  0.51D-18  0.24D-18  6  4     0.67
  18      1.11821263    -0.36324080  -115.41243051     0.00000000    -0.00000000  0.79D-19  0.40D-19  6  1     0.71
  19      1.11821263    -0.36324080  -115.41243051    -0.00000000    -0.00000000  0.87D-20  0.41D-20  6  6     0.75
  20      1.11821263    -0.36324080  -115.41243051     0.00000000     0.00000000  0.12D-20  0.52D-21  6  3     0.79

 Norm of t1 vector:      0.04153831      S-energy:    -0.00000000      T1 diagnostic:  0.00785000
                                                                       D1 diagnostic:  0.01739430


 Total CPU time for triples:      0.20 sec


 RESULTS
 =======

  Reference energy                   -115.049189702245
  CCSD singlet pair energy             -0.254468743497
  CCSD triplet pair energy             -0.108772060765
  CCSD correlation energy              -0.363240804263

  Triples (T) contribution             -0.007725445502
  Total correlation energy             -0.370966249765

  CCSD total energy                  -115.412430506508
  CCSD[T] energy                     -115.420444619605
  CCSD-T energy                      -115.420006634718
 !CCSD(T) total energy               -115.420155952010

 Timing summary (sec):

 STEP                 CPU(USER)    SYS     CPU(TOT)    WALL
 Transformation          0.02      0.01      0.03      0.02
 CCSD iterations         0.77      0.04      0.81      0.85
 Triples                 0.20      0.01      0.21      0.21

 Program statistics:

 Available memory in ccsd:               999999704
 Min. memory needed in ccsd:                136801
 Max. memory used in ccsd:                  163198
 Max. memory used in cckext:                182024 (20 integral passes)



 **********************************************************************************************************************************
 DATASETS  * FILE   NREC   LENGTH (MB)   RECORD NAMES
              1      20       10.56       500      610      700      900      950      970     1000      129      960     1100   
                                          VAR    BASINP    GEOM    SYMINP    ZMAT    AOBASIS   BASIS     P2S    ABASIS      S 
                                         1400     1410     1200     1210     1080     1600     1650     1300     1700     1380   
                                           T        V       H0       H01     AOSYM     SMH    MOLCAS    ERIS     OPER     JKOP   

              2       3        0.39       700     1000     2100   
                                         GEOM     BASIS     RHF  

 PROGRAMS   *        TOTAL   CCSD(T)       RHF       INT
 CPU TIMES  *         1.30      1.00      0.09      0.17
 REAL TIME  *         1.62 SEC
 DISK USED  *        24.77 MB      
 GA USED    *         0.00 MB       (max)       0.00 MB       (current)
 **********************************************************************************************************************************

        CCSD(T)         RHF-SCF 
   -115.42015595   -115.04918970
 **********************************************************************************************************************************
 Variable memory released
