
 Primary working directories    : /tmp/333988.24.gen4.q
 Secondary working directories  : /tmp/333988.24.gen4.q
 Wavefunction directory         : /home/vulcan/mel64643/wfu/
 Main file repository           : /tmp/333988.24.gen4.q/

 ARCHNAME  : Linux/x86_64
 FC        : /opt/intel/compilers_and_libraries_2016.1.150/linux/bin/intel64/ifort
 FCVERSION : 16.0.1
 BLASLIB   : -mkl
 id        : ccgc

 Nodes     nprocs
 n027         3
 Number of processes for MPI-2 version of Molpro:   nprocs(total)=    4   nprocs(compute)=    3   nprocs(helper)=    1
 ga_uses_ma=false, calling ma_init with nominal heap.
 GA-space will be limited to   8.0 MW (determined by -G option)

 Using customized tuning parameters: mindgm=10; mindgv=16; mindgc=4; mindgr=1; noblas=0; mincuda=1000; minvec=7
 default implementation of scratch files=sf  

 ***,Optimization of min3
 memory,1000,m
 gthresh,energy=1.0d-10,orbital=1.0d-10,oneint=1.0d-16,twoint=1.0d-16,optgrad=1.0d-6,compress=1.0d-13
 geomtyp=xyz
 
  bohr
  geometry = {
  12
  arbitrary comment
  C         -3.1036280889          1.5846446765          0.0181801306
  C         -0.8583024969         -0.0684520669         -0.6501054396
  C         -1.1212505950         -2.7803568877          0.2437113545
  O          1.2979034873          1.1085045020          0.5901149981
  O          3.4604923637          0.1151404128         -0.2559419164
  H         -4.8143466387          0.8552268551         -0.8713637781
  H         -2.7980079357          3.5221706902         -0.6137267462
  H         -3.3829462517          1.5978371176          2.0627996596
  H         -0.4483979635          0.0022361714         -2.6697545764
  H         -2.6970378925         -3.7078655501         -0.7109865304
  H         -1.4637098685         -2.8165681992          2.2790531356
  H          0.6098188037         -3.8209823659         -0.1571934347
 }
 
 basis=cc-pvtz
 {rhf;maxit,200}
 {uccsd(t);maxit,200}

 Variables initialized (661), CPU time= 0.00 sec
 Commands  initialized (458), CPU time= 0.00 sec, 486 directives.
 Default parameters read. Elapsed time= 0.06 sec

 Checking input...
 Passed
1


                                         ***  PROGRAM SYSTEM MOLPRO  ***
                         Copyright, University College Cardiff Consultants Limited, 2008

                                    Version 2010.1 linked May 16 2016 07:17:05


 **********************************************************************************************************************************
 LABEL *   Optimization of min3                                                          
 Linux-4.4.3/n027(x86_64) 64 bit mpp version                                             DATE: 15-Jul-20          TIME: 09:50:53  
 **********************************************************************************************************************************

 SHA1:             9e8077add272b0f3cad6f7df79ec5211205f459d
 **********************************************************************************************************************************

 THRESHOLDS:

 ZERO    =  1.00D-12  ONEINT  =  1.00D-16  TWOINT  =  1.00D-16  PREFAC  =  1.00D-14  LOCALI  =  1.00D-09  EORDER  =  1.00D-04
 ENERGY  =  1.00D-10  ETEST   =  0.00D+00  EDENS   =  0.00D+00  THRDEDEF=  1.00D-06  GRADIENT=  1.00D-02  STEP    =  1.00D-03
 ORBITAL =  1.00D-10  CIVEC   =  1.00D-05  COEFF   =  1.00D-04  PRINTCI =  5.00D-02  PUNCHCI =  9.90D+01  OPTGRAD =  1.00D-06
 OPTENERG=  1.00D-06  OPTSTEP =  3.00D-04  THRGRAD =  1.00D-10  COMPRESS=  1.00D-13  VARMIN  =  1.00D-07  VARMAX  =  1.00D-03
 THRDOUB =  0.00D+00  THRDIV  =  1.00D-05  THRRED  =  1.00D-07  THRPSP  =  1.00D+00  THRDC   =  1.00D-10  THRCS   =  1.00D-10
 THRNRM  =  1.00D-08  THREQ   =  0.00D+00  THRDE   =  1.00D+00  THRREF  =  1.00D-05  SPARFAC =  1.00D+00  THRDLP  =  1.00D-07
 THRDIA  =  1.00D-10  THRDLS  =  1.00D-07  THRGPS  =  0.00D+00  THRKEX  =  0.00D+00  THRDIS  =  2.00D-01  THRVAR  =  1.00D-10
 THRLOC  =  1.00D-06  THRGAP  =  1.00D-06  THRLOCT = -1.00D+00  THRGAPT = -1.00D+00  THRORB  =  1.00D-06  THRMLTP =  0.00D+00
 THRCPQCI=  1.00D-10  KEXTA   =  0.00D+00  THRCOARS=  0.00D+00  SYMTOL  =  1.00D-06  GRADTOL =  1.00D-06  THROVL  =  1.00D-08
 THRORTH =  1.00D-08  GRID    =  1.00D-06  GRIDMAX =  1.00D-03  DTMAX   =  0.00D+00

 SETTING GEOMTYP        =    XYZ
 ZUNIT=BOHR
 

 Variable memory set to 1000000000 words,  buffer space   230000 words

 SETTING BASIS          =    CC-PVTZ


 Recomputing integrals since basis changed


 Using spherical harmonics

 Library entry C      S cc-pVTZ              selected for orbital group  1
 Library entry C      P cc-pVTZ              selected for orbital group  1
 Library entry C      D cc-pVTZ              selected for orbital group  1
 Library entry C      F cc-pVTZ              selected for orbital group  1
 Library entry O      S cc-pVTZ              selected for orbital group  2
 Library entry O      P cc-pVTZ              selected for orbital group  2
 Library entry O      D cc-pVTZ              selected for orbital group  2
 Library entry O      F cc-pVTZ              selected for orbital group  2
 Library entry H      S cc-pVTZ              selected for orbital group  3
 Library entry H      P cc-pVTZ              selected for orbital group  3
 Library entry H      D cc-pVTZ              selected for orbital group  3

1PROGRAM * SEWARD (Integral evaluation for generally contracted gaussian basis sets)     Author: Roland Lindh, 1990

 Geometry written to block  1 of record 700


 Point group  C1  



 ATOMIC COORDINATES

 NR  ATOM    CHARGE       X              Y              Z

   1  C       6.00   -3.103628089    1.584644676    0.018180131
   2  C       6.00   -0.858302497   -0.068452067   -0.650105440
   3  C       6.00   -1.121250595   -2.780356888    0.243711355
   4  O       8.00    1.297903487    1.108504502    0.590114998
   5  O       8.00    3.460492364    0.115140413   -0.255941916
   6  H       1.00   -4.814346639    0.855226855   -0.871363778
   7  H       1.00   -2.798007936    3.522170690   -0.613726746
   8  H       1.00   -3.382946252    1.597837118    2.062799660
   9  H       1.00   -0.448397963    0.002236171   -2.669754576
  10  H       1.00   -2.697037893   -3.707865550   -0.710986530
  11  H       1.00   -1.463709869   -2.816568199    2.279053136
  12  H       1.00    0.609818804   -3.820982366   -0.157193435

 Bond lengths in Bohr (Angstrom)

 1-2  2.867197492  1-6  2.061527754  1-7  2.060756422  1-8  2.063652513  2-3  2.867486342
     ( 1.517255567)     ( 1.090913503)     ( 1.090505332)     ( 1.092037877)     ( 1.517408419)

  2- 4  2.751835341   2- 9  2.062038115   3-10  2.062722952   3-11  2.064268824   3-12  2.059181221
       ( 1.456208546)       ( 1.091183575)       ( 1.091545975)       ( 1.092364015)       ( 1.089671771)

 4-5  2.525742498
     ( 1.336565366)

 Bond angles

  1-2-3  113.62876952   1-2-4  105.18685301   1-2-9  111.35802566   2-1-6  110.19856922

  2- 1- 7  110.76083107   2- 1- 8  109.91407643   2- 3-10  110.55092485   2- 3-11  109.82463683

  2- 3-12  109.88689583   2- 4- 5  110.59201926   3- 2- 4  109.62494767   3- 2- 9  110.85162716

  4-2-9  105.72393895   6-1-7  108.86987646   6-1-8  108.50944449   7-1-8  108.53434032

 10- 3-11  108.76724133  10- 3-12  108.95731590  11- 3-12  108.81795140

 NUCLEAR CHARGE:                   41
 NUMBER OF PRIMITIVE AOS:         354
 NUMBER OF SYMMETRY AOS:          322
 NUMBER OF CONTRACTIONS:          248   ( 248A   )
 NUMBER OF CORE ORBITALS:           5   (   5A   )
 NUMBER OF VALENCE ORBITALS:       27   (  27A   )


 NUCLEAR REPULSION ENERGY  186.47210980


 Eigenvalues of metric

         1 0.807E-03 0.957E-03 0.110E-02 0.124E-02 0.136E-02 0.150E-02 0.160E-02 0.164E-02


 Contracted 2-electron integrals neglected if value below      1.0D-16
 AO integral compression algorithm  1   Integral accuracy      1.0D-16

     3371.434 MB (compressed) written to integral file ( 82.1%)

     Node minimum: 934.806 MB, node maximum: 1288.438 MB


 NUMBER OF SORTED TWO-ELECTRON INTEGRALS:  158903334.     BUFFER LENGTH:  32768
 NUMBER OF SEGMENTS:  10  SEGMENT LENGTH:   15997437      RECORD LENGTH: 524288

 Memory used in sort:      16.55 MW

 SORT1 READ   513496392. AND WROTE   152596953. INTEGRALS IN    442 RECORDS. CPU TIME:    16.88 SEC, REAL TIME:    20.85 SEC
 SORT2 READ   459299634. AND WROTE   476679126. INTEGRALS IN  10698 RECORDS. CPU TIME:     1.42 SEC, REAL TIME:    12.51 SEC

 Node minimum:   158882750.  Node maximum:   158903334. integrals

 OPERATOR DM      FOR CENTER  0  COORDINATES:    0.000000    0.000000    0.000000


 **********************************************************************************************************************************
 DATASETS  * FILE   NREC   LENGTH (MB)   RECORD NAMES
              1      18        5.04       500      610      700      900      950      970     1000      129      960     1100   
                                          VAR    BASINP    GEOM    SYMINP    ZMAT    AOBASIS   BASIS     P2S    ABASIS      S 
                                         1400     1410     1200     1210     1080     1600     1650     1700   
                                           T        V       H0       H01     AOSYM     SMH    MOLCAS    OPER   

 PROGRAMS   *        TOTAL       INT
 CPU TIMES  *        29.13     29.07
 REAL TIME  *        45.09 SEC
 DISK USED  *         8.99 GB      
 GA USED    *         0.01 MB       (max)       0.00 MB       (current)
 **********************************************************************************************************************************

1PROGRAM * RHF-SCF (OPEN SHELL)       Authors: W. Meyer, H.-J. Werner


 NUMBER OF ELECTRONS:      21+   20-    SPACE SYMMETRY=1    SPIN SYMMETRY: Doublet 
 CONVERGENCE THRESHOLDS:    1.00E-10 (Density)    1.00E-11 (Energy)
 MAX. NUMBER OF ITERATIONS:      200
 INTERPOLATION TYPE:            DIIS
 INTERPOLATION STEPS:              2 (START)      1 (STEP)
 LEVEL SHIFTS:                 -0.30 (CLOSED)  0.00 (OPEN) 



 Orbital guess generated from atomic densities. Full valence occupancy:   32

 Molecular orbital dump at record        2100.2

 ITERATION    DDIFF          GRAD             ENERGY        2-EL.EN.            DIPOLE MOMENTS         DIIS
    1      0.000D+00      0.000D+00      -267.25856568    559.470404   -1.77626   -0.06460   -0.08787    0
    2      0.000D+00      0.326D-02      -267.33218426    562.369750   -0.98513   -0.43670   -0.36057    1
    3      0.474D-02      0.234D-02      -267.35969344    561.300961   -1.16861   -0.24387   -0.21528    2
    4      0.214D-02      0.548D-03      -267.36838199    561.495853   -0.94676   -0.31926   -0.29883    3
    5      0.950D-03      0.505D-03      -267.37294422    561.538018   -0.88995   -0.32117   -0.30323    4
    6      0.600D-03      0.288D-03      -267.37502927    561.500581   -0.85107   -0.31221   -0.29951    5
    7      0.508D-03      0.136D-03      -267.37535813    561.482258   -0.86804   -0.29901   -0.28994    6
    8      0.257D-03      0.415D-04      -267.37538758    561.481663   -0.86539   -0.29635   -0.28917    7
    9      0.102D-03      0.228D-04      -267.37540375    561.481542   -0.86876   -0.29680   -0.28907    8
   10      0.530D-04      0.971D-05      -267.37540610    561.480954   -0.87092   -0.29592   -0.28853    9
   11      0.226D-04      0.370D-05      -267.37540647    561.481071   -0.87138   -0.29583   -0.28843    9
   12      0.896D-05      0.171D-05      -267.37540655    561.481433   -0.87152   -0.29596   -0.28850    9
   13      0.445D-05      0.645D-06      -267.37540656    561.481387   -0.87162   -0.29599   -0.28850    9
   14      0.172D-05      0.375D-06      -267.37540656    561.481419   -0.87160   -0.29602   -0.28851    9
   15      0.995D-06      0.181D-06      -267.37540656    561.481456   -0.87158   -0.29604   -0.28852    9
   16      0.579D-06      0.963D-07      -267.37540656    561.481440   -0.87158   -0.29604   -0.28852    9
   17      0.322D-06      0.585D-07      -267.37540656    561.481427   -0.87158   -0.29604   -0.28852    9
   18      0.226D-06      0.421D-07      -267.37540656    561.481430   -0.87158   -0.29604   -0.28852    9
   19      0.168D-06      0.336D-07      -267.37540656    561.481427   -0.87158   -0.29603   -0.28852    9
   20      0.257D-06      0.286D-07      -267.37540656    561.481423   -0.87158   -0.29603   -0.28852    9
   21      0.316D-06      0.221D-07      -267.37540656    561.481423   -0.87158   -0.29603   -0.28852    9
   22      0.416D-06      0.134D-07      -267.37540656    561.481422   -0.87158   -0.29603   -0.28852    9
   23      0.353D-06      0.625D-08      -267.37540656    561.481420   -0.87158   -0.29603   -0.28852    9
   24      0.815D-07      0.364D-08      -267.37540656    561.481420   -0.87158   -0.29603   -0.28852    9
   25      0.434D-07      0.155D-08      -267.37540656    561.481420   -0.87158   -0.29603   -0.28852    9
   26      0.621D-08      0.878D-09      -267.37540656    561.481420   -0.87158   -0.29603   -0.28852    9
   27      0.498D-08      0.432D-09      -267.37540656    561.481420   -0.87158   -0.29603   -0.28852    9
   28      0.132D-08      0.246D-09      -267.37540656    561.481420   -0.87158   -0.29603   -0.28852    9
   29      0.669D-09      0.125D-09      -267.37540656    561.481420   -0.87158   -0.29603   -0.28852    9
   30      0.295D-09      0.717D-10      -267.37540656    561.481420   -0.87158   -0.29603   -0.28852    9
   31      0.245D-09      0.436D-10      -267.37540656    561.481420   -0.87158   -0.29603   -0.28852    9
   32      0.224D-09      0.248D-10      -267.37540656    561.481420   -0.87158   -0.29603   -0.28852    9
   33      0.167D-09      0.193D-10      -267.37540656    561.481420   -0.87158   -0.29603   -0.28852    9
   34      0.174D-09      0.141D-10      -267.37540656    561.481420   -0.87158   -0.29603   -0.28852    9
   35      0.136D-09      0.116D-10      -267.37540656    561.481420   -0.87158   -0.29603   -0.28852    9
   36      0.220D-09      0.715D-11      -267.37540656    561.481420   -0.87158   -0.29603   -0.28852    9
   37      0.146D-09      0.332D-11      -267.37540656    561.481420   -0.87158   -0.29603   -0.28852    9
   38      0.730D-10      0.253D-11      -267.37540656    561.481420   -0.87158   -0.29603   -0.28852    0

 Final alpha occupancy:  21
 Final beta  occupancy:  20

 !RHF STATE 1.1 Energy               -267.375406564652
 Nuclear energy                       186.47210980
 One-electron energy                 -734.58822642
 Two-electron energy                  280.74071005
 Virial quotient                       -1.00121983
 !RHF STATE 1.1 Dipole moment          -0.87157978    -0.29603342    -0.28852173
 Dipole moment /Debye                  -2.21518973    -0.75239263    -0.73330106

 Orbital energies:

         1.1          2.1          3.1          4.1          5.1          6.1          7.1          8.1          9.1         10.1
    -20.652051   -20.640709   -11.296665   -11.228663   -11.224970    -1.516907    -1.175009    -1.034899    -0.952434    -0.819075

        11.1         12.1         13.1         14.1         15.1         16.1         17.1         18.1         19.1         20.1
     -0.694398    -0.666465    -0.651752    -0.593244    -0.562453    -0.556452    -0.544217    -0.499777    -0.487467    -0.470306

        21.1         22.1         23.1
     -0.570979     0.138007     0.175109


 **********************************************************************************************************************************
 DATASETS  * FILE   NREC   LENGTH (MB)   RECORD NAMES
              1      18        5.04       500      610      700      900      950      970     1000      129      960     1100   
                                          VAR    BASINP    GEOM    SYMINP    ZMAT    AOBASIS   BASIS     P2S    ABASIS      S 
                                         1400     1410     1200     1210     1080     1600     1650     1700   
                                           T        V       H0       H01     AOSYM     SMH    MOLCAS    OPER   

              2       3        2.21       700     1000     2100   
                                         GEOM     BASIS     RHF  

 PROGRAMS   *        TOTAL       RHF       INT
 CPU TIMES  *       116.15     87.02     29.07
 REAL TIME  *       136.43 SEC
 DISK USED  *         9.04 GB      
 SF USED    *         0.25 MB      
 GA USED    *         0.01 MB       (max)       0.00 MB       (current)
 **********************************************************************************************************************************


1PROGRAM * CCSD (Unrestricted open-shell coupled cluster)     Authors: C. Hampel, H.-J. Werner, 1991, M. Deegan, P.J. Knowles, 1992


 Convergence thresholds:  THRVAR = 1.00D-08  THRDEN = 1.00D-10

 CCSD(T)     terms to be evaluated (factor= 1.000)


 Number of core orbitals:           5 (   5 )
 Number of closed-shell orbitals:  15 (  15 )
 Number of active  orbitals:        1 (   1 )
 Number of external orbitals:     227 ( 227 )

 Memory could be reduced to 332.02 Mwords without degradation in triples

 Number of N-1 electron functions:              31
 Number of N-2 electron functions:             465
 Number of singly external CSFs:              7068
 Number of doubly external CSFs:          18353430
 Total number of CSFs:                    18360498

 Molecular orbitals read from record     2100.2  Type=RHF/CANONICAL (state 1.1)

 Integral transformation finished. Total CPU:  45.59 sec, npass=  1  Memory used: 145.25 MW

 Starting RMP2 calculation

 ITER.      SQ.NORM     CORR.ENERGY   TOTAL ENERGY   ENERGY CHANGE        DEN1      VAR(S)    VAR(P)  DIIS     TIME
   1      1.26565343    -0.96729239  -268.34269895    -0.96729239    -0.00324651  0.26D-04  0.11D-02  1  1    51.88
   2      1.26845157    -0.97079312  -268.34619969    -0.00350074    -0.00000670  0.10D-05  0.23D-05  2  2    56.47
   3      1.26853206    -0.97084627  -268.34625283    -0.00005314    -0.00000008  0.53D-07  0.12D-07  3  3    61.17
   4      1.26853373    -0.97084604  -268.34625260     0.00000023    -0.00000000  0.16D-08  0.12D-09  4  4    66.26
   5      1.26853398    -0.97084612  -268.34625268    -0.00000008    -0.00000000  0.21D-10  0.47D-11  5  5    71.66
   6      1.26853404    -0.97084615  -268.34625272    -0.00000003    -0.00000000  0.52D-13  0.58D-13  6  6    77.08
   7      1.26853404    -0.97084615  -268.34625272     0.00000000    -0.00000000  0.17D-14  0.88D-15  6  1    82.71
   8      1.26853404    -0.97084615  -268.34625272     0.00000000    -0.00000000  0.18D-16  0.83D-17  6  2    88.32
   9      1.26853404    -0.97084615  -268.34625272    -0.00000000    -0.00000000  0.39D-18  0.11D-18  6  3    93.95

 Norm of t1 vector:      0.04536406      S-energy:    -0.00439983      T1 diagnostic:  0.00073411
 Norm of t2 vector:      0.51621327      P-energy:    -0.96644633
                                         Alpha-Beta:  -0.73710978
                                         Alpha-Alpha: -0.11903557
                                         Beta-Beta:   -0.11030097

 Spin contamination <S**2-Sz**2-Sz>     0.00143634
  Reference energy                   -267.375406564649
  RHF-RMP2 correlation energy          -0.970846151071
 !RHF-RMP2 energy                    -268.346252715720

 Starting UCCSD calculation

 ITER.      SQ.NORM     CORR.ENERGY   TOTAL ENERGY   ENERGY CHANGE        DEN1      VAR(S)    VAR(P)  DIIS     TIME
   1      1.28025684    -0.97912820  -268.35453476    -0.97912820    -0.02941888  0.66D-02  0.54D-02  1  1   251.95
   2      1.30678885    -1.00579391  -268.38120048    -0.02666571    -0.00368395  0.62D-03  0.99D-03  2  2   402.98
   3      1.32366083    -1.01265105  -268.38805762    -0.00685714    -0.00094554  0.78D-03  0.79D-04  3  3   555.74
   4      1.33510133    -1.01532867  -268.39073523    -0.00267761    -0.00041073  0.33D-03  0.35D-04  4  4   693.01
   5      1.35111609    -1.01742229  -268.39282886    -0.00209362    -0.00013076  0.11D-03  0.99D-05  5  5   828.73
   6      1.36394834    -1.01853838  -268.39394494    -0.00111608    -0.00002077  0.11D-04  0.36D-05  6  6   962.00
   7      1.36822392    -1.01881074  -268.39421730    -0.00027236    -0.00000368  0.19D-05  0.71D-06  6  1  1073.56
   8      1.36895458    -1.01886095  -268.39426752    -0.00005022    -0.00000080  0.31D-06  0.18D-06  6  2  1182.87
   9      1.36934253    -1.01888291  -268.39428948    -0.00002196    -0.00000018  0.76D-07  0.40D-07  6  4  1292.68
  10      1.36932271    -1.01888126  -268.39428782     0.00000166    -0.00000002  0.12D-07  0.53D-08  6  3  1404.10
  11      1.36939977    -1.01888740  -268.39429396    -0.00000614    -0.00000001  0.22D-08  0.11D-08  6  5  1513.95
  12      1.36939058    -1.01888457  -268.39429114     0.00000282    -0.00000000  0.69D-09  0.25D-09  6  6  1624.00
  13      1.36938576    -1.01888335  -268.39428991     0.00000123    -0.00000000  0.26D-09  0.51D-10  6  1  1735.20
  14      1.36937200    -1.01888177  -268.39428833     0.00000158    -0.00000000  0.86D-10  0.89D-11  6  3  1845.55
  15      1.36936685    -1.01888118  -268.39428774     0.00000059    -0.00000000  0.52D-10  0.43D-11  6  2  1955.72
  16      1.36936488    -1.01888106  -268.39428763     0.00000012    -0.00000000  0.42D-10  0.21D-11  6  4  2067.12
  17      1.36936415    -1.01888103  -268.39428760     0.00000003    -0.00000000  0.34D-10  0.17D-11  6  5  2176.57
  18      1.36936401    -1.01888103  -268.39428759     0.00000000    -0.00000000  0.20D-10  0.14D-11  6  6  2286.35
  19      1.36936546    -1.01888121  -268.39428777    -0.00000018    -0.00000000  0.64D-11  0.12D-11  6  3  2396.44
  20      1.36936513    -1.01888110  -268.39428766     0.00000011    -0.00000000  0.16D-11  0.32D-12  6  1  2506.66
  21      1.36936567    -1.01888116  -268.39428772    -0.00000006    -0.00000000  0.47D-12  0.81D-13  6  4  2616.73
  22      1.36936538    -1.01888112  -268.39428768     0.00000004    -0.00000000  0.13D-12  0.38D-13  6  3  2726.70
  23      1.36936531    -1.01888112  -268.39428768    -0.00000000    -0.00000000  0.41D-13  0.92D-14  6  2  2836.62
  24      1.36936516    -1.01888110  -268.39428767     0.00000001    -0.00000000  0.61D-14  0.30D-14  6  5  2946.38
  25      1.36936511    -1.01888110  -268.39428766     0.00000001    -0.00000000  0.19D-14  0.57D-15  6  6  3056.08
  26      1.36936512    -1.01888110  -268.39428766    -0.00000000    -0.00000000  0.11D-14  0.14D-15  6  1  3165.60
  27      1.36936513    -1.01888110  -268.39428767    -0.00000000    -0.00000000  0.67D-15  0.45D-16  6  2  3275.90
  28      1.36936514    -1.01888110  -268.39428767    -0.00000000    -0.00000000  0.39D-15  0.24D-16  6  4  3385.66
  29      1.36936514    -1.01888110  -268.39428767    -0.00000000    -0.00000000  0.12D-15  0.20D-16  6  3  3496.09
  30      1.36936514    -1.01888110  -268.39428767     0.00000000    -0.00000000  0.62D-16  0.79D-17  6  4  3629.88
  31      1.36936514    -1.01888110  -268.39428767    -0.00000000    -0.00000000  0.16D-16  0.35D-17  6  5  3767.12
  32      1.36936514    -1.01888110  -268.39428767     0.00000000    -0.00000000  0.55D-17  0.10D-17  6  6  3916.40

 Norm of t1 vector:      0.23712322      S-energy:    -0.00498164      T1 diagnostic:  0.02925414
                                                                       D1 diagnostic:  0.15065719
 Norm of t2 vector:      0.55958710      P-energy:    -1.01389947
                                         Alpha-Beta:  -0.80172866
                                         Alpha-Alpha: -0.10869898
                                         Beta-Beta:   -0.10347183

 Singles amplitudes (print threshold =  0.500E-01):

         I         SYM. A    A   T(IA) [Beta-Beta]

         8         1         1     -0.09674501
         9         1         1      0.09985756
        11         1         1     -0.05357519
        12         1         1     -0.08060801
        14         1         1     -0.11787424

 Spin contamination <S**2-Sz**2-Sz>     0.00182605

 Memory could be reduced to 360.52 Mwords without degradation in triples
 

 RESULTS
 =======

  Reference energy                   -267.375406564649
  UCCSD singles energy                 -0.004981636302
  UCCSD pair energy                    -1.013899465637
  UCCSD correlation energy             -1.018881101940
  Triples (T) contribution             -0.040965856634
  Total correlation energy             -1.059846958573
 
  RHF-UCCSD energy                   -268.394287666589
  RHF-UCCSD[T] energy                -268.438762253154
  RHF-UCCSD-T energy                 -268.434749708922
 !RHF-UCCSD(T) energy                -268.435253523223

 Program statistics:

 Available memory in ccsd:               999997692
 Min. memory needed in ccsd:              51505734
 Max. memory used in ccsd:                74803578
 Max. memory used in cckext:              59475747 (32 integral passes)
 Max. memory used in cckint:             145249478 ( 1 integral passes)



 **********************************************************************************************************************************
 DATASETS  * FILE   NREC   LENGTH (MB)   RECORD NAMES
              1      18        5.04       500      610      700      900      950      970     1000      129      960     1100   
                                          VAR    BASINP    GEOM    SYMINP    ZMAT    AOBASIS   BASIS     P2S    ABASIS      S 
                                         1400     1410     1200     1210     1080     1600     1650     1700   
                                           T        V       H0       H01     AOSYM     SMH    MOLCAS    OPER   

              2       3        2.21       700     1000     2100   
                                         GEOM     BASIS     RHF  

 PROGRAMS   *        TOTAL  UCCSD(T)       RHF       INT
 CPU TIMES  *      6365.33   6249.18     87.02     29.07
 REAL TIME  *      6489.38 SEC
 DISK USED  *        16.01 GB      
 SF USED    *         6.57 GB      
 GA USED    *         0.01 MB       (max)       0.00 MB       (current)
 **********************************************************************************************************************************

        UCCSD(T)        RHF-SCF 
   -268.43525352   -267.37540656
 **********************************************************************************************************************************
 Variable memory released
