
 Primary working directories    : /tmp/795519.61.gen6.q
 Secondary working directories  : /tmp/795519.61.gen6.q
 Wavefunction directory         : /home/vulcan/mel64643/wfu/
 Main file repository           : /tmp/795519.61.gen6.q/

 ARCHNAME  : Linux/x86_64
 FC        : /opt/intel/compilers_and_libraries_2016.1.150/linux/bin/intel64/ifort
 FCVERSION : 16.0.1
 BLASLIB   : -mkl
 id        : ccgc

 Nodes     nprocs
 n091         1
 ga_uses_ma=false, calling ma_init with nominal heap.
 GA-space will be limited to   8.0 MW (determined by -G option)

 Using customized tuning parameters: mindgm=10; mindgv=16; mindgc=4; mindgr=1; noblas=0; mincuda=1000; minvec=7
 default implementation of scratch files=df  

 ***,Optimization of min3
 memory,1000,m
 gthresh,energy=1.0d-12,orbital=1.0d-10,oneint=1.0d-16,twoint=1.0d-16,optgrad=1.0d-6,compress=1.0d-13
 geomtyp=xyz
 
  bohr
  geometry = {
  6
  arbitrary comment
  C   -1.3759776856   -0.0243249084    0.0027190364
  O    1.3045707397    0.1202129151   -0.0009002845
  H   -2.0781489890    1.9048067050   -0.0010019640
  H   -2.1082473329   -0.9767080355    1.6765028185
  H   -2.1080513318   -0.9761400739   -1.6775220360
  H    1.9421304398   -1.5779787223    0.0001940196
 }
 
 basis=cc-pvdz
 {rhf;maxit,200}
 {ccsd(t);maxit,200}

 Variables initialized (661), CPU time= 0.00 sec
 Commands  initialized (458), CPU time= 0.01 sec, 486 directives.
 Default parameters read. Elapsed time= 0.04 sec

 Checking input...
 Passed
1


                                         ***  PROGRAM SYSTEM MOLPRO  ***
                         Copyright, University College Cardiff Consultants Limited, 2008

                                    Version 2010.1 linked May 16 2016 07:17:05


 **********************************************************************************************************************************
 LABEL *   Optimization of min3                                                          
 Linux-4.4.3/n091(x86_64) 64 bit mpp version                                             DATE: 24-Oct-22          TIME: 15:42:05  
 **********************************************************************************************************************************

 SHA1:             9e8077add272b0f3cad6f7df79ec5211205f459d
 **********************************************************************************************************************************

 THRESHOLDS:

 ZERO    =  1.00D-12  ONEINT  =  1.00D-16  TWOINT  =  1.00D-16  PREFAC  =  1.00D-14  LOCALI  =  1.00D-09  EORDER  =  1.00D-04
 ENERGY  =  1.00D-12  ETEST   =  0.00D+00  EDENS   =  0.00D+00  THRDEDEF=  1.00D-06  GRADIENT=  1.00D-02  STEP    =  1.00D-03
 ORBITAL =  1.00D-10  CIVEC   =  1.00D-05  COEFF   =  1.00D-04  PRINTCI =  5.00D-02  PUNCHCI =  9.90D+01  OPTGRAD =  1.00D-06
 OPTENERG=  1.00D-06  OPTSTEP =  3.00D-04  THRGRAD =  1.00D-10  COMPRESS=  1.00D-13  VARMIN  =  1.00D-07  VARMAX  =  1.00D-03
 THRDOUB =  0.00D+00  THRDIV  =  1.00D-05  THRRED  =  1.00D-07  THRPSP  =  1.00D+00  THRDC   =  1.00D-10  THRCS   =  1.00D-10
 THRNRM  =  1.00D-08  THREQ   =  0.00D+00  THRDE   =  1.00D+00  THRREF  =  1.00D-05  SPARFAC =  1.00D+00  THRDLP  =  1.00D-07
 THRDIA  =  1.00D-10  THRDLS  =  1.00D-07  THRGPS  =  0.00D+00  THRKEX  =  0.00D+00  THRDIS  =  2.00D-01  THRVAR  =  1.00D-10
 THRLOC  =  1.00D-06  THRGAP  =  1.00D-06  THRLOCT = -1.00D+00  THRGAPT = -1.00D+00  THRORB  =  1.00D-06  THRMLTP =  0.00D+00
 THRCPQCI=  1.00D-10  KEXTA   =  0.00D+00  THRCOARS=  0.00D+00  SYMTOL  =  1.00D-06  GRADTOL =  1.00D-06  THROVL  =  1.00D-08
 THRORTH =  1.00D-08  GRID    =  1.00D-06  GRIDMAX =  1.00D-03  DTMAX   =  0.00D+00

 SETTING GEOMTYP        =    XYZ
 ZUNIT=BOHR
 

 Variable memory set to 1000000000 words,  buffer space   230000 words

 SETTING BASIS          =    CC-PVDZ


 Recomputing integrals since basis changed


 Using spherical harmonics

 Library entry C      S cc-pVDZ              selected for orbital group  1
 Library entry C      P cc-pVDZ              selected for orbital group  1
 Library entry C      D cc-pVDZ              selected for orbital group  1
 Library entry O      S cc-pVDZ              selected for orbital group  2
 Library entry O      P cc-pVDZ              selected for orbital group  2
 Library entry O      D cc-pVDZ              selected for orbital group  2
 Library entry H      S cc-pVDZ              selected for orbital group  3
 Library entry H      P cc-pVDZ              selected for orbital group  3

1PROGRAM * SEWARD (Integral evaluation for generally contracted gaussian basis sets)     Author: Roland Lindh, 1990

 Geometry written to block  1 of record 700


 Point group  C1  



 ATOMIC COORDINATES

 NR  ATOM    CHARGE       X              Y              Z

   1  C       6.00   -1.375977686   -0.024324908    0.002719036
   2  O       8.00    1.304570740    0.120212915   -0.000900284
   3  H       1.00   -2.078148989    1.904806705   -0.001001964
   4  H       1.00   -2.108247333   -0.976708035    1.676502818
   5  H       1.00   -2.108051332   -0.976140074   -1.677522036
   6  H       1.00    1.942130440   -1.577978722    0.000194020

 Bond lengths in Bohr (Angstrom)

 1-2  2.684444848  1-3  2.052950844  1-4  2.060292359  1-5  2.065210399  2-6  1.813928997
     ( 1.420547032)     ( 1.086374798)     ( 1.090259760)     ( 1.092862275)     ( 0.959889884)

 Bond angles

  1-2-6  107.49134230   2-1-3  106.91400390   2-1-4  112.38875022   2-1-5  112.19020964

  3-1-4  108.31761493   3-1-5  108.08130721   4-1-5  108.77968771

 NUCLEAR CHARGE:                   18
 NUMBER OF PRIMITIVE AOS:          82
 NUMBER OF SYMMETRY AOS:           80
 NUMBER OF CONTRACTIONS:           48   (  48A   )
 NUMBER OF CORE ORBITALS:           2   (   2A   )
 NUMBER OF VALENCE ORBITALS:       12   (  12A   )


 NUCLEAR REPULSION ENERGY   40.34158893


 Eigenvalues of metric

         1 0.964E-02 0.176E-01 0.365E-01 0.371E-01 0.381E-01 0.471E-01 0.473E-01 0.515E-01


 Contracted 2-electron integrals neglected if value below      1.0D-16
 AO integral compression algorithm  1   Integral accuracy      1.0D-16

     6.816 MB (compressed) written to integral file (100.0%)

     Node minimum: 6.816 MB, node maximum: 6.816 MB


 NUMBER OF SORTED TWO-ELECTRON INTEGRALS:     692076.     BUFFER LENGTH:  32768
 NUMBER OF SEGMENTS:   1  SEGMENT LENGTH:     692076      RECORD LENGTH: 524288

 Memory used in sort:       1.25 MW

 SORT1 READ      832256. AND WROTE      682150. INTEGRALS IN      2 RECORDS. CPU TIME:     0.00 SEC, REAL TIME:     0.01 SEC
 SORT2 READ      682150. AND WROTE      692076. INTEGRALS IN     26 RECORDS. CPU TIME:     0.02 SEC, REAL TIME:     0.02 SEC

 FILE SIZES:   FILE 1:     8.4 MBYTE,  FILE 4:     8.4 MBYTE,   TOTAL:     16.8 MBYTE

 OPERATOR DM      FOR CENTER  0  COORDINATES:    0.000000    0.000000    0.000000


 **********************************************************************************************************************************
 DATASETS  * FILE   NREC   LENGTH (MB)   RECORD NAMES
              1      19        8.40       500      610      700      900      950      970     1000      129      960     1100   
                                          VAR    BASINP    GEOM    SYMINP    ZMAT    AOBASIS   BASIS     P2S    ABASIS      S 
                                         1400     1410     1200     1210     1080     1600     1650     1300     1700   
                                           T        V       H0       H01     AOSYM     SMH    MOLCAS    ERIS     OPER   

 PROGRAMS   *        TOTAL       INT
 CPU TIMES  *         0.17      0.13
 REAL TIME  *         0.37 SEC
 DISK USED  *        24.23 MB      
 GA USED    *         0.00 MB       (max)       0.00 MB       (current)
 **********************************************************************************************************************************

1PROGRAM * RHF-SCF (CLOSED SHELL)       Authors: W. Meyer, H.-J. Werner


 NUMBER OF ELECTRONS:       9+    9-    SPACE SYMMETRY=1    SPIN SYMMETRY: Singlet 
 CONVERGENCE THRESHOLDS:    1.00E-10 (Density)    1.00E-13 (Energy)
 MAX. NUMBER OF ITERATIONS:      200
 INTERPOLATION TYPE:            DIIS
 INTERPOLATION STEPS:              2 (START)      1 (STEP)
 LEVEL SHIFTS:                  0.00 (CLOSED)  0.00 (OPEN) 



 Orbital guess generated from atomic densities. Full valence occupancy:   14

 Molecular orbital dump at record        2100.2

 ITERATION    DDIFF          GRAD             ENERGY        2-EL.EN.            DIPOLE MOMENTS         DIIS
    1      0.000D+00      0.000D+00      -115.01425770    164.457874   -0.49340   -0.90071    0.00086    0
    2      0.000D+00      0.109D-01      -115.04260799    162.232879   -0.31715   -0.53620    0.00129    1
    3      0.205D-01      0.528D-02      -115.04860928    163.259545   -0.40054   -0.61123    0.00171    2
    4      0.638D-02      0.112D-02      -115.04907318    163.103097   -0.39062   -0.60008    0.00185    3
    5      0.204D-02      0.202D-03      -115.04909420    163.109299   -0.39353   -0.59579    0.00192    4
    6      0.432D-03      0.356D-04      -115.04909500    163.109600   -0.39386   -0.59559    0.00194    5
    7      0.934D-04      0.751D-05      -115.04909503    163.108358   -0.39401   -0.59542    0.00194    6
    8      0.152D-04      0.243D-05      -115.04909503    163.108741   -0.39405   -0.59539    0.00194    7
    9      0.520D-05      0.494D-06      -115.04909503    163.108703   -0.39406   -0.59539    0.00194    6
   10      0.142D-05      0.894D-07      -115.04909503    163.108701   -0.39406   -0.59539    0.00194    6
   11      0.239D-06      0.333D-07      -115.04909503    163.108707   -0.39406   -0.59539    0.00194    6
   12      0.601D-07      0.140D-07      -115.04909503    163.108705   -0.39406   -0.59539    0.00194    7
   13      0.262D-07      0.309D-08      -115.04909503    163.108705   -0.39406   -0.59539    0.00194    7
   14      0.770D-08      0.653D-09      -115.04909503    163.108705   -0.39406   -0.59539    0.00194    7
   15      0.167D-08      0.152D-09      -115.04909503    163.108705   -0.39406   -0.59539    0.00194    7
   16      0.339D-09      0.463D-10      -115.04909503    163.108705   -0.39406   -0.59539    0.00194    7
   17      0.886D-10      0.167D-10      -115.04909503    163.108705   -0.39406   -0.59539    0.00194    7
   18      0.429D-10      0.312D-11      -115.04909503    163.108705   -0.39406   -0.59539    0.00194    7
   19      0.727D-11      0.770D-12      -115.04909503    163.108705   -0.39406   -0.59539    0.00194    7
   20      0.187D-11      0.340D-12      -115.04909503    163.108705   -0.39406   -0.59539    0.00194    7
   21      0.625D-12      0.112D-12      -115.04909503    163.108705   -0.39406   -0.59539    0.00194    7
   22      0.240D-12      0.299D-13      -115.04909503    163.108705   -0.39406   -0.59539    0.00194    0

 Final occupancy:   9

 !RHF STATE 1.1 Energy               -115.049095031289
 Nuclear energy                        40.34158893
 One-electron energy                 -236.94503650
 Two-electron energy                   81.55435254
 Virial quotient                       -1.00081855
 !RHF STATE 1.1 Dipole moment          -0.39406354    -0.59539076     0.00194048
 Dipole moment /Debye                  -1.00154401    -1.51323324     0.00493188

 Orbital energies:

         1.1          2.1          3.1          4.1          5.1          6.1          7.1          8.1          9.1         10.1
    -20.549737   -11.273640    -1.349681    -0.922229    -0.682920    -0.614299    -0.585188    -0.497241    -0.443231     0.184745

        11.1
      0.224518


 **********************************************************************************************************************************
 DATASETS  * FILE   NREC   LENGTH (MB)   RECORD NAMES
              1      19        8.40       500      610      700      900      950      970     1000      129      960     1100   
                                          VAR    BASINP    GEOM    SYMINP    ZMAT    AOBASIS   BASIS     P2S    ABASIS      S 
                                         1400     1410     1200     1210     1080     1600     1650     1300     1700   
                                           T        V       H0       H01     AOSYM     SMH    MOLCAS    ERIS     OPER   

              2       3        0.39       700     1000     2100   
                                         GEOM     BASIS     RHF  

 PROGRAMS   *        TOTAL       RHF       INT
 CPU TIMES  *         0.26      0.09      0.13
 REAL TIME  *         0.49 SEC
 DISK USED  *        24.23 MB      
 GA USED    *         0.00 MB       (max)       0.00 MB       (current)
 **********************************************************************************************************************************


1PROGRAM * CCSD (Closed-shell coupled cluster)     Authors: C. Hampel, H.-J. Werner, 1991, M. Deegan, P.J. Knowles, 1992


 Convergence thresholds:  THRVAR = 1.00D-08  THRDEN = 1.00D-12

 CCSD(T)     terms to be evaluated (factor= 1.000)


 Number of core orbitals:           2 (   2 )
 Number of closed-shell orbitals:   7 (   7 )
 Number of external orbitals:      39 (  39 )

 Molecular orbitals read from record     2100.2  Type=RHF/CANONICAL (state 1.1)

 Number of N-1 electron functions:               7
 Number of N-2 electron functions:              28
 Number of singly external CSFs:               273
 Number of doubly external CSFs:             37401
 Total number of CSFs:                       37675

 Length of J-op  integral file:               0.00 MB
 Length of K-op  integral file:               0.19 MB
 Length of 3-ext integral record:             0.00 MB

 Memory could be reduced to 0.96 Mwords without degradation in triples

 Integral transformation finished. Total CPU:   0.02 sec, npass=  1  Memory used:   0.66 MW

 Reference energy:                   -115.04909503

 MP2 singlet pair energy:              -0.21852865
 MP2 triplet pair energy:              -0.11981971
 MP2 correlation energy:               -0.33834836
 MP2 total energy:                   -115.38744339

 SCS-MP2 correlation energy:           -0.33678886   (PS=  1.200000  PT=  0.333333)
 SCS-MP2 total energy:               -115.38588389

 ITER.      SQ.NORM     CORR.ENERGY   TOTAL ENERGY   ENERGY CHANGE        DEN1      VAR(S)    VAR(P)  DIIS     TIME
   1      1.10715987    -0.36112945  -115.41022448    -0.02278109    -0.01412006  0.91D-03  0.17D-02  1  1     0.05
   2      1.11565147    -0.36306812  -115.41216315    -0.00193867    -0.00923153  0.20D-04  0.16D-03  2  2     0.08
   3      1.11751999    -0.36319428  -115.41228931    -0.00012616    -0.00119809  0.94D-05  0.85D-05  3  3     0.11
   4      1.11803147    -0.36319291  -115.41228794     0.00000137    -0.00025339  0.34D-06  0.67D-06  4  4     0.14
   5      1.11812890    -0.36319330  -115.41228833    -0.00000039    -0.00003584  0.99D-07  0.48D-07  5  5     0.18
   6      1.11814783    -0.36319194  -115.41228697     0.00000136    -0.00000432  0.16D-07  0.41D-08  6  6     0.21
   7      1.11815260    -0.36319153  -115.41228656     0.00000042    -0.00000035  0.20D-08  0.72D-09  6  1     0.24
   8      1.11815387    -0.36319163  -115.41228666    -0.00000010     0.00000075  0.25D-09  0.72D-10  6  3     0.27
   9      1.11815493    -0.36319151  -115.41228654     0.00000012    -0.00000038  0.13D-10  0.10D-10  6  2     0.31
  10      1.11815498    -0.36319150  -115.41228653     0.00000000     0.00000000  0.13D-11  0.12D-11  6  4     0.34
  11      1.11815494    -0.36319150  -115.41228653     0.00000000     0.00000003  0.33D-12  0.84D-13  6  5     0.37
  12      1.11815489    -0.36319151  -115.41228654    -0.00000000     0.00000003  0.33D-13  0.13D-13  6  6     0.41
  13      1.11815487    -0.36319151  -115.41228654    -0.00000000     0.00000001  0.37D-14  0.15D-14  6  3     0.44
  14      1.11815487    -0.36319151  -115.41228654    -0.00000000     0.00000000  0.28D-15  0.14D-15  6  1     0.47
  15      1.11815487    -0.36319151  -115.41228654     0.00000000    -0.00000000  0.35D-16  0.31D-16  6  2     0.50
  16      1.11815487    -0.36319151  -115.41228654     0.00000000    -0.00000000  0.31D-17  0.16D-17  6  5     0.54
  17      1.11815487    -0.36319151  -115.41228654    -0.00000000     0.00000000  0.15D-18  0.12D-18  6  4     0.57
  18      1.11815487    -0.36319151  -115.41228654     0.00000000    -0.00000000  0.32D-19  0.13D-19  6  3     0.60
  19      1.11815487    -0.36319151  -115.41228654     0.00000000    -0.00000000  0.42D-20  0.12D-20  6  6     0.63

 Norm of t1 vector:      0.04160023      S-energy:    -0.00000000      T1 diagnostic:  0.00786170
                                                                       D1 diagnostic:  0.01753069


 Total CPU time for triples:      0.17 sec


 RESULTS
 =======

  Reference energy                   -115.049095031289
  CCSD singlet pair energy             -0.254429310434
  CCSD triplet pair energy             -0.108762197075
  CCSD correlation energy              -0.363191507509

  Triples (T) contribution             -0.007721326330
  Total correlation energy             -0.370912833840

  CCSD total energy                  -115.412286538798
  CCSD[T] energy                     -115.420296282566
  CCSD-T energy                      -115.419858724838
 !CCSD(T) total energy               -115.420007865128

 Timing summary (sec):

 STEP                 CPU(USER)    SYS     CPU(TOT)    WALL
 Transformation          0.02      0.00      0.02      0.02
 CCSD iterations         0.61      0.03      0.64      0.67
 Triples                 0.17      0.00      0.17      0.17

 Program statistics:

 Available memory in ccsd:               999999704
 Min. memory needed in ccsd:                136801
 Max. memory used in ccsd:                  163198
 Max. memory used in cckext:                182024 (19 integral passes)



 **********************************************************************************************************************************
 DATASETS  * FILE   NREC   LENGTH (MB)   RECORD NAMES
              1      20       10.93       500      610      700      900      950      970     1000      129      960     1100   
                                          VAR    BASINP    GEOM    SYMINP    ZMAT    AOBASIS   BASIS     P2S    ABASIS      S 
                                         1400     1410     1200     1210     1080     1600     1650     1300     1700     1380   
                                           T        V       H0       H01     AOSYM     SMH    MOLCAS    ERIS     OPER     JKOP   

              2       3        0.39       700     1000     2100   
                                         GEOM     BASIS     RHF  

 PROGRAMS   *        TOTAL   CCSD(T)       RHF       INT
 CPU TIMES  *         1.07      0.81      0.09      0.13
 REAL TIME  *         1.37 SEC
 DISK USED  *        25.66 MB      
 GA USED    *         0.00 MB       (max)       0.00 MB       (current)
 **********************************************************************************************************************************

        CCSD(T)         RHF-SCF 
   -115.42000787   -115.04909503
 **********************************************************************************************************************************
 Variable memory released
