
 Primary working directories    : /tmp/795519.24.gen6.q
 Secondary working directories  : /tmp/795519.24.gen6.q
 Wavefunction directory         : /home/vulcan/mel64643/wfu/
 Main file repository           : /tmp/795519.24.gen6.q/

 ARCHNAME  : Linux/x86_64
 FC        : /opt/intel/compilers_and_libraries_2016.1.150/linux/bin/intel64/ifort
 FCVERSION : 16.0.1
 BLASLIB   : -mkl
 id        : ccgc

 Nodes     nprocs
 n076         1
 ga_uses_ma=false, calling ma_init with nominal heap.
 GA-space will be limited to   8.0 MW (determined by -G option)

 Using customized tuning parameters: mindgm=10; mindgv=16; mindgc=4; mindgr=1; noblas=0; mincuda=1000; minvec=7
 default implementation of scratch files=df  

 ***,Optimization of min3
 memory,1000,m
 gthresh,energy=1.0d-12,orbital=1.0d-10,oneint=1.0d-16,twoint=1.0d-16,optgrad=1.0d-6,compress=1.0d-13
 geomtyp=xyz
 
  bohr
  geometry = {
  6
  arbitrary comment
  C   -1.3708016246   -0.0266001816    0.0000004042
  O    1.3040773837    0.1242289623    0.0000003137
  H   -2.0780677774    1.9081882405   -0.0000798865
  H   -2.1030174370   -0.9791020981    1.6821482657
  H   -2.1030102145   -0.9792333516   -1.6820762108
  H    1.9270955099   -1.5776136915   -0.0000012962
 }
 
 basis=cc-pvdz
 {rhf;maxit,200}
 {ccsd(t);maxit,200}

 Variables initialized (661), CPU time= 0.00 sec
 Commands  initialized (458), CPU time= 0.01 sec, 486 directives.
 Default parameters read. Elapsed time= 0.05 sec

 Checking input...
 Passed
1


                                         ***  PROGRAM SYSTEM MOLPRO  ***
                         Copyright, University College Cardiff Consultants Limited, 2008

                                    Version 2010.1 linked May 16 2016 07:17:05


 **********************************************************************************************************************************
 LABEL *   Optimization of min3                                                          
 Linux-4.4.3/n076(x86_64) 64 bit mpp version                                             DATE: 24-Oct-22          TIME: 15:41:06  
 **********************************************************************************************************************************

 SHA1:             9e8077add272b0f3cad6f7df79ec5211205f459d
 **********************************************************************************************************************************

 THRESHOLDS:

 ZERO    =  1.00D-12  ONEINT  =  1.00D-16  TWOINT  =  1.00D-16  PREFAC  =  1.00D-14  LOCALI  =  1.00D-09  EORDER  =  1.00D-04
 ENERGY  =  1.00D-12  ETEST   =  0.00D+00  EDENS   =  0.00D+00  THRDEDEF=  1.00D-06  GRADIENT=  1.00D-02  STEP    =  1.00D-03
 ORBITAL =  1.00D-10  CIVEC   =  1.00D-05  COEFF   =  1.00D-04  PRINTCI =  5.00D-02  PUNCHCI =  9.90D+01  OPTGRAD =  1.00D-06
 OPTENERG=  1.00D-06  OPTSTEP =  3.00D-04  THRGRAD =  1.00D-10  COMPRESS=  1.00D-13  VARMIN  =  1.00D-07  VARMAX  =  1.00D-03
 THRDOUB =  0.00D+00  THRDIV  =  1.00D-05  THRRED  =  1.00D-07  THRPSP  =  1.00D+00  THRDC   =  1.00D-10  THRCS   =  1.00D-10
 THRNRM  =  1.00D-08  THREQ   =  0.00D+00  THRDE   =  1.00D+00  THRREF  =  1.00D-05  SPARFAC =  1.00D+00  THRDLP  =  1.00D-07
 THRDIA  =  1.00D-10  THRDLS  =  1.00D-07  THRGPS  =  0.00D+00  THRKEX  =  0.00D+00  THRDIS  =  2.00D-01  THRVAR  =  1.00D-10
 THRLOC  =  1.00D-06  THRGAP  =  1.00D-06  THRLOCT = -1.00D+00  THRGAPT = -1.00D+00  THRORB  =  1.00D-06  THRMLTP =  0.00D+00
 THRCPQCI=  1.00D-10  KEXTA   =  0.00D+00  THRCOARS=  0.00D+00  SYMTOL  =  1.00D-06  GRADTOL =  1.00D-06  THROVL  =  1.00D-08
 THRORTH =  1.00D-08  GRID    =  1.00D-06  GRIDMAX =  1.00D-03  DTMAX   =  0.00D+00

 SETTING GEOMTYP        =    XYZ
 ZUNIT=BOHR
 

 Variable memory set to 1000000000 words,  buffer space   230000 words

 SETTING BASIS          =    CC-PVDZ


 Recomputing integrals since basis changed


 Using spherical harmonics

 Library entry C      S cc-pVDZ              selected for orbital group  1
 Library entry C      P cc-pVDZ              selected for orbital group  1
 Library entry C      D cc-pVDZ              selected for orbital group  1
 Library entry O      S cc-pVDZ              selected for orbital group  2
 Library entry O      P cc-pVDZ              selected for orbital group  2
 Library entry O      D cc-pVDZ              selected for orbital group  2
 Library entry H      S cc-pVDZ              selected for orbital group  3
 Library entry H      P cc-pVDZ              selected for orbital group  3

1PROGRAM * SEWARD (Integral evaluation for generally contracted gaussian basis sets)     Author: Roland Lindh, 1990

 Geometry written to block  1 of record 700


 Point group  C1  



 ATOMIC COORDINATES

 NR  ATOM    CHARGE       X              Y              Z

   1  C       6.00   -1.370801625   -0.026600182    0.000000404
   2  O       8.00    1.304077384    0.124228962    0.000000314
   3  H       1.00   -2.078067777    1.908188240   -0.000079886
   4  H       1.00   -2.103017437   -0.979102098    1.682148266
   5  H       1.00   -2.103010214   -0.979233352   -1.682076211
   6  H       1.00    1.927095510   -1.577613692   -0.000001296

 Bond lengths in Bohr (Angstrom)

 1-2  2.679128056  1-3  2.060007683  1-4  2.067128763  1-5  2.067128713  2-6  1.812296886
     ( 1.417733507)     ( 1.090109116)     ( 1.093877430)     ( 1.093877403)     ( 0.959026208)

 Bond angles

  1-2-6  106.87955711   2-1-3  106.85266063   2-1-4  112.30879763   2-1-5  112.30880014

  3-1-4  108.13113773   3-1-5  108.13098161   4-1-5  108.92658970

 NUCLEAR CHARGE:                   18
 NUMBER OF PRIMITIVE AOS:          82
 NUMBER OF SYMMETRY AOS:           80
 NUMBER OF CONTRACTIONS:           48   (  48A   )
 NUMBER OF CORE ORBITALS:           2   (   2A   )
 NUMBER OF VALENCE ORBITALS:       12   (  12A   )


 NUCLEAR REPULSION ENERGY   40.36846014


 Eigenvalues of metric

         1 0.964E-02 0.176E-01 0.369E-01 0.373E-01 0.382E-01 0.472E-01 0.477E-01 0.517E-01


 Contracted 2-electron integrals neglected if value below      1.0D-16
 AO integral compression algorithm  1   Integral accuracy      1.0D-16

     6.291 MB (compressed) written to integral file ( 98.4%)

     Node minimum: 6.291 MB, node maximum: 6.291 MB


 NUMBER OF SORTED TWO-ELECTRON INTEGRALS:     692076.     BUFFER LENGTH:  32768
 NUMBER OF SEGMENTS:   1  SEGMENT LENGTH:     692076      RECORD LENGTH: 524288

 Memory used in sort:       1.25 MW

 SORT1 READ      832256. AND WROTE      682147. INTEGRALS IN      2 RECORDS. CPU TIME:     0.01 SEC, REAL TIME:     0.02 SEC
 SORT2 READ      682147. AND WROTE      692076. INTEGRALS IN     24 RECORDS. CPU TIME:     0.01 SEC, REAL TIME:     0.02 SEC

 FILE SIZES:   FILE 1:     8.0 MBYTE,  FILE 4:     8.4 MBYTE,   TOTAL:     16.4 MBYTE

 OPERATOR DM      FOR CENTER  0  COORDINATES:    0.000000    0.000000    0.000000


 **********************************************************************************************************************************
 DATASETS  * FILE   NREC   LENGTH (MB)   RECORD NAMES
              1      19        8.03       500      610      700      900      950      970     1000      129      960     1100   
                                          VAR    BASINP    GEOM    SYMINP    ZMAT    AOBASIS   BASIS     P2S    ABASIS      S 
                                         1400     1410     1200     1210     1080     1600     1650     1300     1700   
                                           T        V       H0       H01     AOSYM     SMH    MOLCAS    ERIS     OPER   

 PROGRAMS   *        TOTAL       INT
 CPU TIMES  *         0.18      0.14
 REAL TIME  *         0.37 SEC
 DISK USED  *        23.34 MB      
 GA USED    *         0.00 MB       (max)       0.00 MB       (current)
 **********************************************************************************************************************************

1PROGRAM * RHF-SCF (CLOSED SHELL)       Authors: W. Meyer, H.-J. Werner


 NUMBER OF ELECTRONS:       9+    9-    SPACE SYMMETRY=1    SPIN SYMMETRY: Singlet 
 CONVERGENCE THRESHOLDS:    1.00E-10 (Density)    1.00E-13 (Energy)
 MAX. NUMBER OF ITERATIONS:      200
 INTERPOLATION TYPE:            DIIS
 INTERPOLATION STEPS:              2 (START)      1 (STEP)
 LEVEL SHIFTS:                  0.00 (CLOSED)  0.00 (OPEN) 



 Orbital guess generated from atomic densities. Full valence occupancy:   14

 Molecular orbital dump at record        2100.2

 ITERATION    DDIFF          GRAD             ENERGY        2-EL.EN.            DIPOLE MOMENTS         DIIS
    1      0.000D+00      0.000D+00      -115.01425847    164.495653   -0.49398   -0.90204   -0.00000    0
    2      0.000D+00      0.110D-01      -115.04265463    162.278835   -0.31535   -0.53622   -0.00000    1
    3      0.205D-01      0.529D-02      -115.04866684    163.301753   -0.39885   -0.61221   -0.00000    2
    4      0.638D-02      0.112D-02      -115.04913075    163.145434   -0.38871   -0.60118   -0.00000    3
    5      0.204D-02      0.202D-03      -115.04915184    163.151958   -0.39157   -0.59695   -0.00000    4
    6      0.434D-03      0.356D-04      -115.04915265    163.152076   -0.39189   -0.59677   -0.00000    5
    7      0.931D-04      0.739D-05      -115.04915268    163.150897   -0.39203   -0.59660   -0.00000    6
    8      0.151D-04      0.238D-05      -115.04915268    163.151281   -0.39207   -0.59658   -0.00000    7
    9      0.503D-05      0.494D-06      -115.04915268    163.151239   -0.39208   -0.59658   -0.00000    6
   10      0.141D-05      0.884D-07      -115.04915268    163.151238   -0.39209   -0.59658   -0.00000    6
   11      0.236D-06      0.330D-07      -115.04915268    163.151244   -0.39209   -0.59658   -0.00000    6
   12      0.593D-07      0.138D-07      -115.04915268    163.151242   -0.39209   -0.59658   -0.00000    7
   13      0.258D-07      0.302D-08      -115.04915268    163.151242   -0.39209   -0.59658   -0.00000    7
   14      0.755D-08      0.653D-09      -115.04915268    163.151242   -0.39209   -0.59658   -0.00000    7
   15      0.167D-08      0.150D-09      -115.04915268    163.151242   -0.39209   -0.59658   -0.00000    7
   16      0.334D-09      0.450D-10      -115.04915268    163.151242   -0.39209   -0.59658   -0.00000    7
   17      0.876D-10      0.148D-10      -115.04915268    163.151242   -0.39209   -0.59658   -0.00000    0

 Final occupancy:   9

 !RHF STATE 1.1 Energy               -115.049152681546
 Nuclear energy                        40.36846014
 One-electron energy                 -236.99323382
 Two-electron energy                   81.57562100
 Virial quotient                       -1.00084312
 !RHF STATE 1.1 Dipole moment          -0.39208694    -0.59657981    -0.00000277
 Dipole moment /Debye                  -0.99652033    -1.51625531    -0.00000705

 Orbital energies:

         1.1          2.1          3.1          4.1          5.1          6.1          7.1          8.1          9.1         10.1
    -20.550194   -11.274300    -1.351564    -0.921047    -0.683659    -0.614729    -0.585159    -0.497155    -0.443188     0.184465

        11.1
      0.224754


 **********************************************************************************************************************************
 DATASETS  * FILE   NREC   LENGTH (MB)   RECORD NAMES
              1      19        8.03       500      610      700      900      950      970     1000      129      960     1100   
                                          VAR    BASINP    GEOM    SYMINP    ZMAT    AOBASIS   BASIS     P2S    ABASIS      S 
                                         1400     1410     1200     1210     1080     1600     1650     1300     1700   
                                           T        V       H0       H01     AOSYM     SMH    MOLCAS    ERIS     OPER   

              2       3        0.39       700     1000     2100   
                                         GEOM     BASIS     RHF  

 PROGRAMS   *        TOTAL       RHF       INT
 CPU TIMES  *         0.25      0.07      0.14
 REAL TIME  *         0.47 SEC
 DISK USED  *        23.34 MB      
 GA USED    *         0.00 MB       (max)       0.00 MB       (current)
 **********************************************************************************************************************************


1PROGRAM * CCSD (Closed-shell coupled cluster)     Authors: C. Hampel, H.-J. Werner, 1991, M. Deegan, P.J. Knowles, 1992


 Convergence thresholds:  THRVAR = 1.00D-08  THRDEN = 1.00D-12

 CCSD(T)     terms to be evaluated (factor= 1.000)


 Number of core orbitals:           2 (   2 )
 Number of closed-shell orbitals:   7 (   7 )
 Number of external orbitals:      39 (  39 )

 Molecular orbitals read from record     2100.2  Type=RHF/CANONICAL (state 1.1)

 Number of N-1 electron functions:               7
 Number of N-2 electron functions:              28
 Number of singly external CSFs:               273
 Number of doubly external CSFs:             37401
 Total number of CSFs:                       37675

 Length of J-op  integral file:               0.00 MB
 Length of K-op  integral file:               0.19 MB
 Length of 3-ext integral record:             0.00 MB

 Memory could be reduced to 0.96 Mwords without degradation in triples

 Integral transformation finished. Total CPU:   0.01 sec, npass=  1  Memory used:   0.66 MW

 Reference energy:                   -115.04915268

 MP2 singlet pair energy:              -0.21859668
 MP2 triplet pair energy:              -0.11986002
 MP2 correlation energy:               -0.33845670
 MP2 total energy:                   -115.38760938

 SCS-MP2 correlation energy:           -0.33689558   (PS=  1.200000  PT=  0.333333)
 SCS-MP2 total energy:               -115.38604826

 ITER.      SQ.NORM     CORR.ENERGY   TOTAL ENERGY   ENERGY CHANGE        DEN1      VAR(S)    VAR(P)  DIIS     TIME
   1      1.10725343    -0.36124843  -115.41040111    -0.02279173    -0.01412374  0.91D-03  0.17D-02  1  1     0.04
   2      1.11576016    -0.36318904  -115.41234172    -0.00194061    -0.00923892  0.20D-04  0.16D-03  2  2     0.08
   3      1.11763260    -0.36331554  -115.41246822    -0.00012651    -0.00119973  0.94D-05  0.86D-05  3  3     0.11
   4      1.11814445    -0.36331417  -115.41246685     0.00000137    -0.00025378  0.32D-06  0.67D-06  4  4     0.14
   5      1.11824140    -0.36331459  -115.41246728    -0.00000042    -0.00003574  0.97D-07  0.48D-07  5  5     0.17
   6      1.11826006    -0.36331326  -115.41246594     0.00000133    -0.00000430  0.15D-07  0.40D-08  6  6     0.20
   7      1.11826469    -0.36331285  -115.41246553     0.00000041    -0.00000035  0.20D-08  0.70D-09  6  1     0.24
   8      1.11826593    -0.36331295  -115.41246563    -0.00000010     0.00000073  0.25D-09  0.69D-10  6  3     0.27
   9      1.11826697    -0.36331283  -115.41246551     0.00000012    -0.00000038  0.12D-10  0.10D-10  6  2     0.30
  10      1.11826690    -0.36331283  -115.41246551    -0.00000000     0.00000007  0.11D-11  0.84D-12  6  5     0.33
  11      1.11826693    -0.36331283  -115.41246551     0.00000000    -0.00000000  0.18D-12  0.49D-13  6  4     0.36
  12      1.11826692    -0.36331283  -115.41246551    -0.00000000     0.00000001  0.18D-13  0.96D-14  6  1     0.40
  13      1.11826692    -0.36331283  -115.41246551    -0.00000000    -0.00000000  0.23D-14  0.90D-15  6  6     0.43
  14      1.11826692    -0.36331283  -115.41246551     0.00000000    -0.00000000  0.22D-15  0.12D-15  6  3     0.46
  15      1.11826692    -0.36331283  -115.41246551    -0.00000000    -0.00000000  0.24D-16  0.16D-16  6  2     0.50
  16      1.11826692    -0.36331283  -115.41246551    -0.00000000    -0.00000000  0.53D-17  0.15D-17  6  5     0.53
  17      1.11826692    -0.36331283  -115.41246551    -0.00000000    -0.00000000  0.50D-18  0.24D-18  6  4     0.56
  18      1.11826692    -0.36331283  -115.41246551     0.00000000    -0.00000000  0.78D-19  0.40D-19  6  1     0.59
  19      1.11826692    -0.36331283  -115.41246551    -0.00000000    -0.00000000  0.87D-20  0.41D-20  6  6     0.63
  20      1.11826692    -0.36331283  -115.41246551     0.00000000     0.00000000  0.12D-20  0.52D-21  6  3     0.66

 Norm of t1 vector:      0.04155377      S-energy:    -0.00000000      T1 diagnostic:  0.00785292
                                                                       D1 diagnostic:  0.01736525


 Total CPU time for triples:      0.17 sec


 RESULTS
 =======

  Reference energy                   -115.049152681546
  CCSD singlet pair energy             -0.254518647840
  CCSD triplet pair energy             -0.108794182763
  CCSD correlation energy              -0.363312830603

  Triples (T) contribution             -0.007731110265
  Total correlation energy             -0.371043940868

  CCSD total energy                  -115.412465512149
  CCSD[T] energy                     -115.420485603930
  CCSD-T energy                      -115.420047186003
 !CCSD(T) total energy               -115.420196622414

 Timing summary (sec):

 STEP                 CPU(USER)    SYS     CPU(TOT)    WALL
 Transformation          0.01      0.01      0.02      0.02
 CCSD iterations         0.65      0.04      0.69      0.72
 Triples                 0.17      0.00      0.17      0.17

 Program statistics:

 Available memory in ccsd:               999999704
 Min. memory needed in ccsd:                136801
 Max. memory used in ccsd:                  163198
 Max. memory used in cckext:                182024 (20 integral passes)



 **********************************************************************************************************************************
 DATASETS  * FILE   NREC   LENGTH (MB)   RECORD NAMES
              1      20       10.56       500      610      700      900      950      970     1000      129      960     1100   
                                          VAR    BASINP    GEOM    SYMINP    ZMAT    AOBASIS   BASIS     P2S    ABASIS      S 
                                         1400     1410     1200     1210     1080     1600     1650     1300     1700     1380   
                                           T        V       H0       H01     AOSYM     SMH    MOLCAS    ERIS     OPER     JKOP   

              2       3        0.39       700     1000     2100   
                                         GEOM     BASIS     RHF  

 PROGRAMS   *        TOTAL   CCSD(T)       RHF       INT
 CPU TIMES  *         1.09      0.84      0.07      0.14
 REAL TIME  *         1.40 SEC
 DISK USED  *        24.77 MB      
 GA USED    *         0.00 MB       (max)       0.00 MB       (current)
 **********************************************************************************************************************************

        CCSD(T)         RHF-SCF 
   -115.42019662   -115.04915268
 **********************************************************************************************************************************
 Variable memory released
