
 Primary working directories    : /tmp/601555.45.gen4.q
 Secondary working directories  : /tmp/601555.45.gen4.q
 Wavefunction directory         : /home/vulcan/mel64643/wfu/
 Main file repository           : /tmp/601555.45.gen4.q/

 ARCHNAME  : Linux/x86_64
 FC        : /opt/intel/compilers_and_libraries_2016.1.150/linux/bin/intel64/ifort
 FCVERSION : 16.0.1
 BLASLIB   : -mkl
 id        : ccgc

 Nodes     nprocs
 n040         1
 ga_uses_ma=false, calling ma_init with nominal heap.
 GA-space will be limited to   8.0 MW (determined by -G option)

 Using customized tuning parameters: mindgm=10; mindgv=16; mindgc=4; mindgr=1; noblas=0; mincuda=1000; minvec=7
 default implementation of scratch files=df  

 ***,Optimization of min3
 memory,1000,m
 gthresh,energy=1.0d-12,orbital=1.0d-10,oneint=1.0d-16,twoint=1.0d-16,optgrad=1.0d-6,compress=1.0d-13
 geomtyp=xyz
 
  bohr
  geometry = {
  6
  arbitrary comment
  C   -1.3729697848   -0.0225948032    0.0000070811
  O    1.3077773024    0.1198893919   -0.0000019239
  H   -2.0869368675    1.9110782368   -0.0000822139
  H   -2.1071625561   -0.9777661296    1.6826983946
  H   -2.1071546592   -0.9778956503   -1.6826289634
  H    1.9427224052   -1.5828431657   -0.0000007845
 }
 
 basis=cc-pvdz
 {rhf;maxit,200}
 {ccsd(t);maxit,200}

 Variables initialized (661), CPU time= 0.00 sec
 Commands  initialized (458), CPU time= 0.00 sec, 486 directives.
 Default parameters read. Elapsed time= 0.06 sec

 Checking input...
 Passed
1


                                         ***  PROGRAM SYSTEM MOLPRO  ***
                         Copyright, University College Cardiff Consultants Limited, 2008

                                    Version 2010.1 linked May 16 2016 07:17:05


 **********************************************************************************************************************************
 LABEL *   Optimization of min3                                                          
 Linux-4.4.3/n040(x86_64) 64 bit mpp version                                             DATE: 06-Nov-21          TIME: 15:39:01  
 **********************************************************************************************************************************

 SHA1:             9e8077add272b0f3cad6f7df79ec5211205f459d
 **********************************************************************************************************************************

 THRESHOLDS:

 ZERO    =  1.00D-12  ONEINT  =  1.00D-16  TWOINT  =  1.00D-16  PREFAC  =  1.00D-14  LOCALI  =  1.00D-09  EORDER  =  1.00D-04
 ENERGY  =  1.00D-12  ETEST   =  0.00D+00  EDENS   =  0.00D+00  THRDEDEF=  1.00D-06  GRADIENT=  1.00D-02  STEP    =  1.00D-03
 ORBITAL =  1.00D-10  CIVEC   =  1.00D-05  COEFF   =  1.00D-04  PRINTCI =  5.00D-02  PUNCHCI =  9.90D+01  OPTGRAD =  1.00D-06
 OPTENERG=  1.00D-06  OPTSTEP =  3.00D-04  THRGRAD =  1.00D-10  COMPRESS=  1.00D-13  VARMIN  =  1.00D-07  VARMAX  =  1.00D-03
 THRDOUB =  0.00D+00  THRDIV  =  1.00D-05  THRRED  =  1.00D-07  THRPSP  =  1.00D+00  THRDC   =  1.00D-10  THRCS   =  1.00D-10
 THRNRM  =  1.00D-08  THREQ   =  0.00D+00  THRDE   =  1.00D+00  THRREF  =  1.00D-05  SPARFAC =  1.00D+00  THRDLP  =  1.00D-07
 THRDIA  =  1.00D-10  THRDLS  =  1.00D-07  THRGPS  =  0.00D+00  THRKEX  =  0.00D+00  THRDIS  =  2.00D-01  THRVAR  =  1.00D-10
 THRLOC  =  1.00D-06  THRGAP  =  1.00D-06  THRLOCT = -1.00D+00  THRGAPT = -1.00D+00  THRORB  =  1.00D-06  THRMLTP =  0.00D+00
 THRCPQCI=  1.00D-10  KEXTA   =  0.00D+00  THRCOARS=  0.00D+00  SYMTOL  =  1.00D-06  GRADTOL =  1.00D-06  THROVL  =  1.00D-08
 THRORTH =  1.00D-08  GRID    =  1.00D-06  GRIDMAX =  1.00D-03  DTMAX   =  0.00D+00

 SETTING GEOMTYP        =    XYZ
 ZUNIT=BOHR
 

 Variable memory set to 1000000000 words,  buffer space   230000 words

 SETTING BASIS          =    CC-PVDZ


 Recomputing integrals since basis changed


 Using spherical harmonics

 Library entry C      S cc-pVDZ              selected for orbital group  1
 Library entry C      P cc-pVDZ              selected for orbital group  1
 Library entry C      D cc-pVDZ              selected for orbital group  1
 Library entry O      S cc-pVDZ              selected for orbital group  2
 Library entry O      P cc-pVDZ              selected for orbital group  2
 Library entry O      D cc-pVDZ              selected for orbital group  2
 Library entry H      S cc-pVDZ              selected for orbital group  3
 Library entry H      P cc-pVDZ              selected for orbital group  3

1PROGRAM * SEWARD (Integral evaluation for generally contracted gaussian basis sets)     Author: Roland Lindh, 1990

 Geometry written to block  1 of record 700


 Point group  C1  



 ATOMIC COORDINATES

 NR  ATOM    CHARGE       X              Y              Z

   1  C       6.00   -1.372969785   -0.022594803    0.000007081
   2  O       8.00    1.307777302    0.119889392   -0.000001924
   3  H       1.00   -2.086936867    1.911078237   -0.000082214
   4  H       1.00   -2.107162556   -0.977766130    1.682698395
   5  H       1.00   -2.107154659   -0.977895650   -1.682628963
   6  H       1.00    1.942722405   -1.582843166   -0.000000784

 Bond lengths in Bohr (Angstrom)

 1-2  2.684531000  1-3  2.061271556  1-4  2.069502681  1-5  2.069514725  2-6  1.817265376
     ( 1.420592622)     ( 1.090777929)     ( 1.095133653)     ( 1.095140026)     ( 0.961655420)

 Bond angles

  1-2-6  107.40791018   2-1-3  107.22311908   2-1-4  112.25735604   2-1-5  112.25685162

  3-1-4  108.06699582   3-1-5  108.06625951   4-1-5  108.79472855

 NUCLEAR CHARGE:                   18
 NUMBER OF PRIMITIVE AOS:          82
 NUMBER OF SYMMETRY AOS:           80
 NUMBER OF CONTRACTIONS:           48   (  48A   )
 NUMBER OF CORE ORBITALS:           2   (   2A   )
 NUMBER OF VALENCE ORBITALS:       12   (  12A   )


 NUCLEAR REPULSION ENERGY   40.28625636


 Eigenvalues of metric

         1 0.968E-02 0.176E-01 0.370E-01 0.375E-01 0.384E-01 0.474E-01 0.479E-01 0.519E-01


 Contracted 2-electron integrals neglected if value below      1.0D-16
 AO integral compression algorithm  1   Integral accuracy      1.0D-16

     6.554 MB (compressed) written to integral file ( 95.5%)

     Node minimum: 6.554 MB, node maximum: 6.554 MB


 NUMBER OF SORTED TWO-ELECTRON INTEGRALS:     692076.     BUFFER LENGTH:  32768
 NUMBER OF SEGMENTS:   1  SEGMENT LENGTH:     692076      RECORD LENGTH: 524288

 Memory used in sort:       1.25 MW

 SORT1 READ      832256. AND WROTE      682149. INTEGRALS IN      2 RECORDS. CPU TIME:     0.01 SEC, REAL TIME:     0.01 SEC
 SORT2 READ      682149. AND WROTE      692076. INTEGRALS IN     25 RECORDS. CPU TIME:     0.02 SEC, REAL TIME:     0.02 SEC

 FILE SIZES:   FILE 1:     8.0 MBYTE,  FILE 4:     8.4 MBYTE,   TOTAL:     16.4 MBYTE

 OPERATOR DM      FOR CENTER  0  COORDINATES:    0.000000    0.000000    0.000000


 **********************************************************************************************************************************
 DATASETS  * FILE   NREC   LENGTH (MB)   RECORD NAMES
              1      19        8.05       500      610      700      900      950      970     1000      129      960     1100   
                                          VAR    BASINP    GEOM    SYMINP    ZMAT    AOBASIS   BASIS     P2S    ABASIS      S 
                                         1400     1410     1200     1210     1080     1600     1650     1300     1700   
                                           T        V       H0       H01     AOSYM     SMH    MOLCAS    ERIS     OPER   

 PROGRAMS   *        TOTAL       INT
 CPU TIMES  *         0.35      0.29
 REAL TIME  *         0.52 SEC
 DISK USED  *        23.62 MB      
 GA USED    *         0.00 MB       (max)       0.00 MB       (current)
 **********************************************************************************************************************************

1PROGRAM * RHF-SCF (CLOSED SHELL)       Authors: W. Meyer, H.-J. Werner


 NUMBER OF ELECTRONS:       9+    9-    SPACE SYMMETRY=1    SPIN SYMMETRY: Singlet 
 CONVERGENCE THRESHOLDS:    1.00E-10 (Density)    1.00E-13 (Energy)
 MAX. NUMBER OF ITERATIONS:      200
 INTERPOLATION TYPE:            DIIS
 INTERPOLATION STEPS:              2 (START)      1 (STEP)
 LEVEL SHIFTS:                  0.00 (CLOSED)  0.00 (OPEN) 



 Orbital guess generated from atomic densities. Full valence occupancy:   14

 Molecular orbital dump at record        2100.2

 ITERATION    DDIFF          GRAD             ENERGY        2-EL.EN.            DIPOLE MOMENTS         DIIS
    1      0.000D+00      0.000D+00      -115.01415070    164.350402   -0.49417   -0.90177   -0.00000    0
    2      0.000D+00      0.110D-01      -115.04251764    162.130499   -0.31586   -0.53630    0.00000    1
    3      0.205D-01      0.530D-02      -115.04855769    163.156263   -0.39958   -0.61151    0.00000    2
    4      0.639D-02      0.112D-02      -115.04902280    162.999697   -0.38954   -0.60031    0.00000    3
    5      0.204D-02      0.203D-03      -115.04904398    163.006192   -0.39239   -0.59600    0.00000    4
    6      0.434D-03      0.356D-04      -115.04904478    163.006320   -0.39271   -0.59579    0.00000    5
    7      0.933D-04      0.740D-05      -115.04904481    163.005138   -0.39285   -0.59562    0.00000    6
    8      0.152D-04      0.239D-05      -115.04904481    163.005524   -0.39289   -0.59560    0.00000    7
    9      0.507D-05      0.495D-06      -115.04904481    163.005482   -0.39290   -0.59560    0.00000    6
   10      0.142D-05      0.889D-07      -115.04904481    163.005481   -0.39290   -0.59559    0.00000    6
   11      0.238D-06      0.332D-07      -115.04904481    163.005487   -0.39291   -0.59560    0.00000    6
   12      0.603D-07      0.139D-07      -115.04904481    163.005485   -0.39291   -0.59560    0.00000    7
   13      0.260D-07      0.309D-08      -115.04904481    163.005485   -0.39291   -0.59560    0.00000    7
   14      0.771D-08      0.655D-09      -115.04904481    163.005485   -0.39291   -0.59560    0.00000    7
   15      0.167D-08      0.152D-09      -115.04904481    163.005485   -0.39291   -0.59560    0.00000    7
   16      0.339D-09      0.456D-10      -115.04904481    163.005485   -0.39291   -0.59560    0.00000    7
   17      0.880D-10      0.165D-10      -115.04904481    163.005485   -0.39291   -0.59560    0.00000    7
   18      0.421D-10      0.274D-11      -115.04904481    163.005485   -0.39291   -0.59560    0.00000    0

 Final occupancy:   9

 !RHF STATE 1.1 Energy               -115.049044814554
 Nuclear energy                        40.28625636
 One-electron energy                 -236.83804377
 Two-electron energy                   81.50274260
 Virial quotient                       -1.00099773
 !RHF STATE 1.1 Dipole moment          -0.39290593    -0.59559531     0.00000205
 Dipole moment /Debye                  -0.99860184    -1.51375312     0.00000522

 Orbital energies:

         1.1          2.1          3.1          4.1          5.1          6.1          7.1          8.1          9.1         10.1
    -20.550282   -11.275010    -1.349545    -0.920855    -0.682226    -0.613688    -0.585093    -0.496525    -0.443056     0.184385

        11.1
      0.223914


 **********************************************************************************************************************************
 DATASETS  * FILE   NREC   LENGTH (MB)   RECORD NAMES
              1      19        8.05       500      610      700      900      950      970     1000      129      960     1100   
                                          VAR    BASINP    GEOM    SYMINP    ZMAT    AOBASIS   BASIS     P2S    ABASIS      S 
                                         1400     1410     1200     1210     1080     1600     1650     1300     1700   
                                           T        V       H0       H01     AOSYM     SMH    MOLCAS    ERIS     OPER   

              2       3        0.39       700     1000     2100   
                                         GEOM     BASIS     RHF  

 PROGRAMS   *        TOTAL       RHF       INT
 CPU TIMES  *         0.45      0.10      0.29
 REAL TIME  *         0.66 SEC
 DISK USED  *        23.62 MB      
 GA USED    *         0.00 MB       (max)       0.00 MB       (current)
 **********************************************************************************************************************************


1PROGRAM * CCSD (Closed-shell coupled cluster)     Authors: C. Hampel, H.-J. Werner, 1991, M. Deegan, P.J. Knowles, 1992


 Convergence thresholds:  THRVAR = 1.00D-08  THRDEN = 1.00D-12

 CCSD(T)     terms to be evaluated (factor= 1.000)


 Number of core orbitals:           2 (   2 )
 Number of closed-shell orbitals:   7 (   7 )
 Number of external orbitals:      39 (  39 )

 Molecular orbitals read from record     2100.2  Type=RHF/CANONICAL (state 1.1)

 Number of N-1 electron functions:               7
 Number of N-2 electron functions:              28
 Number of singly external CSFs:               273
 Number of doubly external CSFs:             37401
 Total number of CSFs:                       37675

 Length of J-op  integral file:               0.00 MB
 Length of K-op  integral file:               0.19 MB
 Length of 3-ext integral record:             0.00 MB

 Memory could be reduced to 0.96 Mwords without degradation in triples

 Integral transformation finished. Total CPU:   0.02 sec, npass=  1  Memory used:   0.66 MW

 Reference energy:                   -115.04904481

 MP2 singlet pair energy:              -0.21873829
 MP2 triplet pair energy:              -0.11986604
 MP2 correlation energy:               -0.33860433
 MP2 total energy:                   -115.38764915

 SCS-MP2 correlation energy:           -0.33706927   (PS=  1.200000  PT=  0.333333)
 SCS-MP2 total energy:               -115.38611408

 ITER.      SQ.NORM     CORR.ENERGY   TOTAL ENERGY   ENERGY CHANGE        DEN1      VAR(S)    VAR(P)  DIIS     TIME
   1      1.10744714    -0.36140557  -115.41045039    -0.02280124    -0.01410710  0.91D-03  0.17D-02  1  1     0.08
   2      1.11599531    -0.36335602  -115.41240083    -0.00195044    -0.00926413  0.20D-04  0.16D-03  2  2     0.13
   3      1.11788653    -0.36348403  -115.41252885    -0.00012802    -0.00120926  0.95D-05  0.86D-05  3  3     0.18
   4      1.11840449    -0.36348281  -115.41252763     0.00000122    -0.00025604  0.34D-06  0.68D-06  4  4     0.23
   5      1.11850328    -0.36348324  -115.41252806    -0.00000043    -0.00003626  0.10D-06  0.50D-07  5  5     0.28
   6      1.11852253    -0.36348188  -115.41252670     0.00000136    -0.00000440  0.16D-07  0.42D-08  6  6     0.33
   7      1.11852733    -0.36348146  -115.41252628     0.00000042    -0.00000036  0.20D-08  0.73D-09  6  1     0.38
   8      1.11852861    -0.36348157  -115.41252638    -0.00000010     0.00000076  0.26D-09  0.74D-10  6  3     0.43
   9      1.11852968    -0.36348144  -115.41252626     0.00000012    -0.00000039  0.13D-10  0.11D-10  6  2     0.48
  10      1.11852961    -0.36348144  -115.41252626    -0.00000000     0.00000007  0.11D-11  0.89D-12  6  5     0.53
  11      1.11852964    -0.36348144  -115.41252626     0.00000000    -0.00000000  0.20D-12  0.51D-13  6  4     0.58
  12      1.11852962    -0.36348144  -115.41252626    -0.00000000     0.00000001  0.19D-13  0.10D-13  6  1     0.63
  13      1.11852963    -0.36348144  -115.41252626    -0.00000000    -0.00000000  0.24D-14  0.96D-15  6  6     0.68
  14      1.11852963    -0.36348144  -115.41252626     0.00000000    -0.00000000  0.22D-15  0.13D-15  6  3     0.73
  15      1.11852963    -0.36348144  -115.41252626    -0.00000000    -0.00000000  0.25D-16  0.17D-16  6  2     0.78
  16      1.11852963    -0.36348144  -115.41252626    -0.00000000    -0.00000000  0.57D-17  0.17D-17  6  5     0.83
  17      1.11852963    -0.36348144  -115.41252626    -0.00000000    -0.00000000  0.55D-18  0.26D-18  6  4     0.88
  18      1.11852963    -0.36348144  -115.41252626     0.00000000    -0.00000000  0.84D-19  0.44D-19  6  1     0.93
  19      1.11852963    -0.36348144  -115.41252626    -0.00000000    -0.00000000  0.96D-20  0.44D-20  6  6     0.99
  20      1.11852963    -0.36348144  -115.41252626     0.00000000     0.00000000  0.13D-20  0.57D-21  6  3     1.04

 Norm of t1 vector:      0.04170889      S-energy:    -0.00000000      T1 diagnostic:  0.00788224
                                                                       D1 diagnostic:  0.01750405


 Total CPU time for triples:      0.24 sec


 RESULTS
 =======

  Reference energy                   -115.049044814554
  CCSD singlet pair energy             -0.254727297604
  CCSD triplet pair energy             -0.108754146697
  CCSD correlation energy              -0.363481444301

  Triples (T) contribution             -0.007748888145
  Total correlation energy             -0.371230332446

  CCSD total energy                  -115.412526258855
  CCSD[T] energy                     -115.420565773715
  CCSD-T energy                      -115.420124804405
 !CCSD(T) total energy               -115.420275147001

 Timing summary (sec):

 STEP                 CPU(USER)    SYS     CPU(TOT)    WALL
 Transformation          0.03      0.00      0.03      0.03
 CCSD iterations         1.01      0.05      1.06      1.08
 Triples                 0.24      0.00      0.24      0.25

 Program statistics:

 Available memory in ccsd:               999999704
 Min. memory needed in ccsd:                136801
 Max. memory used in ccsd:                  163198
 Max. memory used in cckext:                182024 (20 integral passes)



 **********************************************************************************************************************************
 DATASETS  * FILE   NREC   LENGTH (MB)   RECORD NAMES
              1      20       10.59       500      610      700      900      950      970     1000      129      960     1100   
                                          VAR    BASINP    GEOM    SYMINP    ZMAT    AOBASIS   BASIS     P2S    ABASIS      S 
                                         1400     1410     1200     1210     1080     1600     1650     1300     1700     1380   
                                           T        V       H0       H01     AOSYM     SMH    MOLCAS    ERIS     OPER     JKOP   

              2       3        0.39       700     1000     2100   
                                         GEOM     BASIS     RHF  

 PROGRAMS   *        TOTAL   CCSD(T)       RHF       INT
 CPU TIMES  *         1.74      1.29      0.10      0.29
 REAL TIME  *         2.05 SEC
 DISK USED  *        25.05 MB      
 GA USED    *         0.00 MB       (max)       0.00 MB       (current)
 **********************************************************************************************************************************

        CCSD(T)         RHF-SCF 
   -115.42027515   -115.04904481
 **********************************************************************************************************************************
 Variable memory released
