
 Primary working directories    : /tmp/795519.125.gen4.q
 Secondary working directories  : /tmp/795519.125.gen4.q
 Wavefunction directory         : /home/vulcan/mel64643/wfu/
 Main file repository           : /tmp/795519.125.gen4.q/

 ARCHNAME  : Linux/x86_64
 FC        : /opt/intel/compilers_and_libraries_2016.1.150/linux/bin/intel64/ifort
 FCVERSION : 16.0.1
 BLASLIB   : -mkl
 id        : ccgc

 Nodes     nprocs
 n056         1
 ga_uses_ma=false, calling ma_init with nominal heap.
 GA-space will be limited to   8.0 MW (determined by -G option)

 Using customized tuning parameters: mindgm=10; mindgv=16; mindgc=4; mindgr=1; noblas=0; mincuda=1000; minvec=7
 default implementation of scratch files=df  

 ***,Optimization of min3
 memory,1000,m
 gthresh,energy=1.0d-12,orbital=1.0d-10,oneint=1.0d-16,twoint=1.0d-16,optgrad=1.0d-6,compress=1.0d-13
 geomtyp=xyz
 
  bohr
  geometry = {
  6
  arbitrary comment
  C   -1.3745165257   -0.0251288013    0.0015491193
  O    1.3039478316    0.1212482437    0.0002181869
  H   -2.0696433191    1.9078286181    0.0043546387
  H   -2.1112153044   -0.9765607128    1.6779987410
  H   -2.1119372790   -0.9854004084   -1.6839318894
  H    1.9396404366   -1.5721190593   -0.0001972064
 }
 
 basis=cc-pvdz
 {rhf;maxit,200}
 {ccsd(t);maxit,200}

 Variables initialized (661), CPU time= 0.00 sec
 Commands  initialized (458), CPU time= 0.00 sec, 486 directives.
 Default parameters read. Elapsed time= 0.05 sec

 Checking input...
 Passed
1


                                         ***  PROGRAM SYSTEM MOLPRO  ***
                         Copyright, University College Cardiff Consultants Limited, 2008

                                    Version 2010.1 linked May 16 2016 07:17:05


 **********************************************************************************************************************************
 LABEL *   Optimization of min3                                                          
 Linux-4.4.3/n056(x86_64) 64 bit mpp version                                             DATE: 24-Oct-22          TIME: 15:43:36  
 **********************************************************************************************************************************

 SHA1:             9e8077add272b0f3cad6f7df79ec5211205f459d
 **********************************************************************************************************************************

 THRESHOLDS:

 ZERO    =  1.00D-12  ONEINT  =  1.00D-16  TWOINT  =  1.00D-16  PREFAC  =  1.00D-14  LOCALI  =  1.00D-09  EORDER  =  1.00D-04
 ENERGY  =  1.00D-12  ETEST   =  0.00D+00  EDENS   =  0.00D+00  THRDEDEF=  1.00D-06  GRADIENT=  1.00D-02  STEP    =  1.00D-03
 ORBITAL =  1.00D-10  CIVEC   =  1.00D-05  COEFF   =  1.00D-04  PRINTCI =  5.00D-02  PUNCHCI =  9.90D+01  OPTGRAD =  1.00D-06
 OPTENERG=  1.00D-06  OPTSTEP =  3.00D-04  THRGRAD =  1.00D-10  COMPRESS=  1.00D-13  VARMIN  =  1.00D-07  VARMAX  =  1.00D-03
 THRDOUB =  0.00D+00  THRDIV  =  1.00D-05  THRRED  =  1.00D-07  THRPSP  =  1.00D+00  THRDC   =  1.00D-10  THRCS   =  1.00D-10
 THRNRM  =  1.00D-08  THREQ   =  0.00D+00  THRDE   =  1.00D+00  THRREF  =  1.00D-05  SPARFAC =  1.00D+00  THRDLP  =  1.00D-07
 THRDIA  =  1.00D-10  THRDLS  =  1.00D-07  THRGPS  =  0.00D+00  THRKEX  =  0.00D+00  THRDIS  =  2.00D-01  THRVAR  =  1.00D-10
 THRLOC  =  1.00D-06  THRGAP  =  1.00D-06  THRLOCT = -1.00D+00  THRGAPT = -1.00D+00  THRORB  =  1.00D-06  THRMLTP =  0.00D+00
 THRCPQCI=  1.00D-10  KEXTA   =  0.00D+00  THRCOARS=  0.00D+00  SYMTOL  =  1.00D-06  GRADTOL =  1.00D-06  THROVL  =  1.00D-08
 THRORTH =  1.00D-08  GRID    =  1.00D-06  GRIDMAX =  1.00D-03  DTMAX   =  0.00D+00

 SETTING GEOMTYP        =    XYZ
 ZUNIT=BOHR
 

 Variable memory set to 1000000000 words,  buffer space   230000 words

 SETTING BASIS          =    CC-PVDZ


 Recomputing integrals since basis changed


 Using spherical harmonics

 Library entry C      S cc-pVDZ              selected for orbital group  1
 Library entry C      P cc-pVDZ              selected for orbital group  1
 Library entry C      D cc-pVDZ              selected for orbital group  1
 Library entry O      S cc-pVDZ              selected for orbital group  2
 Library entry O      P cc-pVDZ              selected for orbital group  2
 Library entry O      D cc-pVDZ              selected for orbital group  2
 Library entry H      S cc-pVDZ              selected for orbital group  3
 Library entry H      P cc-pVDZ              selected for orbital group  3

1PROGRAM * SEWARD (Integral evaluation for generally contracted gaussian basis sets)     Author: Roland Lindh, 1990

 Geometry written to block  1 of record 700


 Point group  C1  



 ATOMIC COORDINATES

 NR  ATOM    CHARGE       X              Y              Z

   1  C       6.00   -1.374516526   -0.025128801    0.001549119
   2  O       8.00    1.303947832    0.121248244    0.000218187
   3  H       1.00   -2.069643319    1.907828618    0.004354639
   4  H       1.00   -2.111215304   -0.976560713    1.677998741
   5  H       1.00   -2.111937279   -0.985400408   -1.683931889
   6  H       1.00    1.939640437   -1.572119059   -0.000197206

 Bond lengths in Bohr (Angstrom)

 1-2  2.682461430  1-3  2.054150315  1-4  2.063596643  1-5  2.075272791  2-6  1.808755949
     ( 1.419497453)     ( 1.087009530)     ( 1.092008312)     ( 1.098187064)     ( 0.957152425)

 Bond angles

  1-2-6  107.44813355   2-1-3  106.65145334   2-1-4  112.45932955   2-1-5  112.31226213

  3-1-4  108.17590937   3-1-5  108.43831324   4-1-5  108.63928248

 NUCLEAR CHARGE:                   18
 NUMBER OF PRIMITIVE AOS:          82
 NUMBER OF SYMMETRY AOS:           80
 NUMBER OF CONTRACTIONS:           48   (  48A   )
 NUMBER OF CORE ORBITALS:           2   (   2A   )
 NUMBER OF VALENCE ORBITALS:       12   (  12A   )


 NUCLEAR REPULSION ENERGY   40.34599310


 Eigenvalues of metric

         1 0.965E-02 0.176E-01 0.367E-01 0.375E-01 0.379E-01 0.473E-01 0.479E-01 0.515E-01


 Contracted 2-electron integrals neglected if value below      1.0D-16
 AO integral compression algorithm  1   Integral accuracy      1.0D-16

     6.816 MB (compressed) written to integral file (100.0%)

     Node minimum: 6.816 MB, node maximum: 6.816 MB


 NUMBER OF SORTED TWO-ELECTRON INTEGRALS:     692076.     BUFFER LENGTH:  32768
 NUMBER OF SEGMENTS:   1  SEGMENT LENGTH:     692076      RECORD LENGTH: 524288

 Memory used in sort:       1.25 MW

 SORT1 READ      832256. AND WROTE      682150. INTEGRALS IN      2 RECORDS. CPU TIME:     0.01 SEC, REAL TIME:     0.01 SEC
 SORT2 READ      682150. AND WROTE      692076. INTEGRALS IN     26 RECORDS. CPU TIME:     0.02 SEC, REAL TIME:     0.02 SEC

 FILE SIZES:   FILE 1:     8.4 MBYTE,  FILE 4:     8.4 MBYTE,   TOTAL:     16.8 MBYTE

 OPERATOR DM      FOR CENTER  0  COORDINATES:    0.000000    0.000000    0.000000


 **********************************************************************************************************************************
 DATASETS  * FILE   NREC   LENGTH (MB)   RECORD NAMES
              1      19        8.41       500      610      700      900      950      970     1000      129      960     1100   
                                          VAR    BASINP    GEOM    SYMINP    ZMAT    AOBASIS   BASIS     P2S    ABASIS      S 
                                         1400     1410     1200     1210     1080     1600     1650     1300     1700   
                                           T        V       H0       H01     AOSYM     SMH    MOLCAS    ERIS     OPER   

 PROGRAMS   *        TOTAL       INT
 CPU TIMES  *         0.22      0.18
 REAL TIME  *         0.41 SEC
 DISK USED  *        24.24 MB      
 GA USED    *         0.00 MB       (max)       0.00 MB       (current)
 **********************************************************************************************************************************

1PROGRAM * RHF-SCF (CLOSED SHELL)       Authors: W. Meyer, H.-J. Werner


 NUMBER OF ELECTRONS:       9+    9-    SPACE SYMMETRY=1    SPIN SYMMETRY: Singlet 
 CONVERGENCE THRESHOLDS:    1.00E-10 (Density)    1.00E-13 (Energy)
 MAX. NUMBER OF ITERATIONS:      200
 INTERPOLATION TYPE:            DIIS
 INTERPOLATION STEPS:              2 (START)      1 (STEP)
 LEVEL SHIFTS:                  0.00 (CLOSED)  0.00 (OPEN) 



 Orbital guess generated from atomic densities. Full valence occupancy:   14

 Molecular orbital dump at record        2100.2

 ITERATION    DDIFF          GRAD             ENERGY        2-EL.EN.            DIPOLE MOMENTS         DIIS
    1      0.000D+00      0.000D+00      -115.01435727    164.454065   -0.49270   -0.89933   -0.00003    0
    2      0.000D+00      0.110D-01      -115.04269750    162.238002   -0.31435   -0.53470    0.00189    1
    3      0.205D-01      0.529D-02      -115.04870117    163.260933   -0.39775   -0.60963    0.00223    2
    4      0.638D-02      0.112D-02      -115.04916305    163.104997   -0.38754   -0.59855    0.00253    3
    5      0.204D-02      0.201D-03      -115.04918384    163.111386   -0.39032   -0.59428    0.00265    4
    6      0.431D-03      0.352D-04      -115.04918463    163.111552   -0.39061   -0.59407    0.00267    5
    7      0.925D-04      0.730D-05      -115.04918466    163.110363   -0.39074   -0.59391    0.00268    6
    8      0.148D-04      0.235D-05      -115.04918466    163.110740   -0.39077   -0.59388    0.00268    7
    9      0.499D-05      0.484D-06      -115.04918466    163.110700   -0.39078   -0.59388    0.00268    6
   10      0.139D-05      0.852D-07      -115.04918466    163.110698   -0.39079   -0.59388    0.00268    6
   11      0.230D-06      0.318D-07      -115.04918466    163.110704   -0.39079   -0.59388    0.00268    6
   12      0.576D-07      0.131D-07      -115.04918466    163.110702   -0.39079   -0.59388    0.00268    7
   13      0.243D-07      0.295D-08      -115.04918466    163.110702   -0.39079   -0.59388    0.00268    7
   14      0.733D-08      0.641D-09      -115.04918466    163.110702   -0.39079   -0.59388    0.00268    7
   15      0.164D-08      0.148D-09      -115.04918466    163.110702   -0.39079   -0.59388    0.00268    7
   16      0.329D-09      0.449D-10      -115.04918466    163.110702   -0.39079   -0.59388    0.00268    7
   17      0.867D-10      0.150D-10      -115.04918466    163.110702   -0.39079   -0.59388    0.00268    0

 Final occupancy:   9

 !RHF STATE 1.1 Energy               -115.049184659162
 Nuclear energy                        40.34599310
 One-electron energy                 -236.95052888
 Two-electron energy                   81.55535112
 Virial quotient                       -1.00084790
 !RHF STATE 1.1 Dipole moment          -0.39078656    -0.59388213     0.00267758
 Dipole moment /Debye                  -0.99321531    -1.50939894     0.00680527

 Orbital energies:

         1.1          2.1          3.1          4.1          5.1          6.1          7.1          8.1          9.1         10.1
    -20.549763   -11.274461    -1.350905    -0.921624    -0.683793    -0.613620    -0.585260    -0.497510    -0.442977     0.184731

        11.1
      0.224782


 **********************************************************************************************************************************
 DATASETS  * FILE   NREC   LENGTH (MB)   RECORD NAMES
              1      19        8.41       500      610      700      900      950      970     1000      129      960     1100   
                                          VAR    BASINP    GEOM    SYMINP    ZMAT    AOBASIS   BASIS     P2S    ABASIS      S 
                                         1400     1410     1200     1210     1080     1600     1650     1300     1700   
                                           T        V       H0       H01     AOSYM     SMH    MOLCAS    ERIS     OPER   

              2       3        0.39       700     1000     2100   
                                         GEOM     BASIS     RHF  

 PROGRAMS   *        TOTAL       RHF       INT
 CPU TIMES  *         0.30      0.08      0.18
 REAL TIME  *         0.52 SEC
 DISK USED  *        24.24 MB      
 GA USED    *         0.00 MB       (max)       0.00 MB       (current)
 **********************************************************************************************************************************


1PROGRAM * CCSD (Closed-shell coupled cluster)     Authors: C. Hampel, H.-J. Werner, 1991, M. Deegan, P.J. Knowles, 1992


 Convergence thresholds:  THRVAR = 1.00D-08  THRDEN = 1.00D-12

 CCSD(T)     terms to be evaluated (factor= 1.000)


 Number of core orbitals:           2 (   2 )
 Number of closed-shell orbitals:   7 (   7 )
 Number of external orbitals:      39 (  39 )

 Molecular orbitals read from record     2100.2  Type=RHF/CANONICAL (state 1.1)

 Number of N-1 electron functions:               7
 Number of N-2 electron functions:              28
 Number of singly external CSFs:               273
 Number of doubly external CSFs:             37401
 Total number of CSFs:                       37675

 Length of J-op  integral file:               0.00 MB
 Length of K-op  integral file:               0.19 MB
 Length of 3-ext integral record:             0.00 MB

 Memory could be reduced to 0.96 Mwords without degradation in triples

 Integral transformation finished. Total CPU:   0.01 sec, npass=  1  Memory used:   0.66 MW

 Reference energy:                   -115.04918466

 MP2 singlet pair energy:              -0.21854403
 MP2 triplet pair energy:              -0.11981146
 MP2 correlation energy:               -0.33835549
 MP2 total energy:                   -115.38754015

 SCS-MP2 correlation energy:           -0.33680219   (PS=  1.200000  PT=  0.333333)
 SCS-MP2 total energy:               -115.38598685

 ITER.      SQ.NORM     CORR.ENERGY   TOTAL ENERGY   ENERGY CHANGE        DEN1      VAR(S)    VAR(P)  DIIS     TIME
   1      1.10721535    -0.36115667  -115.41034133    -0.02280118    -0.01413605  0.91D-03  0.17D-02  1  1     0.05
   2      1.11571988    -0.36309657  -115.41228123    -0.00193990    -0.00923599  0.20D-04  0.16D-03  2  2     0.08
   3      1.11759184    -0.36322327  -115.41240793    -0.00012670    -0.00119882  0.95D-05  0.85D-05  3  3     0.12
   4      1.11810438    -0.36322180  -115.41240645     0.00000148    -0.00025393  0.33D-06  0.67D-06  4  4     0.16
   5      1.11820196    -0.36322218  -115.41240684    -0.00000039    -0.00003587  0.98D-07  0.49D-07  5  5     0.20
   6      1.11822087    -0.36322083  -115.41240549     0.00000135    -0.00000434  0.16D-07  0.41D-08  6  6     0.24
   7      1.11822558    -0.36322041  -115.41240507     0.00000042    -0.00000035  0.20D-08  0.71D-09  6  1     0.28
   8      1.11822683    -0.36322051  -115.41240517    -0.00000010     0.00000074  0.25D-09  0.71D-10  6  3     0.32
   9      1.11822789    -0.36322039  -115.41240505     0.00000012    -0.00000038  0.12D-10  0.10D-10  6  2     0.36
  10      1.11822781    -0.36322039  -115.41240505    -0.00000000     0.00000007  0.11D-11  0.86D-12  6  5     0.40
  11      1.11822785    -0.36322039  -115.41240505     0.00000000    -0.00000000  0.19D-12  0.50D-13  6  4     0.44
  12      1.11822783    -0.36322039  -115.41240505    -0.00000000     0.00000001  0.19D-13  0.99D-14  6  1     0.48
  13      1.11822783    -0.36322039  -115.41240505    -0.00000000    -0.00000000  0.24D-14  0.93D-15  6  6     0.52
  14      1.11822783    -0.36322039  -115.41240505     0.00000000    -0.00000000  0.24D-15  0.12D-15  6  3     0.55
  15      1.11822783    -0.36322039  -115.41240505    -0.00000000    -0.00000000  0.31D-16  0.17D-16  6  2     0.59
  16      1.11822783    -0.36322039  -115.41240505    -0.00000000    -0.00000000  0.72D-17  0.18D-17  6  5     0.63
  17      1.11822783    -0.36322039  -115.41240505    -0.00000000    -0.00000000  0.96D-18  0.30D-18  6  4     0.67
  18      1.11822783    -0.36322039  -115.41240505     0.00000000    -0.00000000  0.17D-18  0.60D-19  6  1     0.70
  19      1.11822783    -0.36322039  -115.41240505    -0.00000000    -0.00000000  0.29D-19  0.69D-20  6  6     0.74
  20      1.11822783    -0.36322039  -115.41240505     0.00000000     0.00000000  0.52D-20  0.13D-20  6  3     0.78

 Norm of t1 vector:      0.04159938      S-energy:    -0.00000000      T1 diagnostic:  0.00786154
                                                                       D1 diagnostic:  0.01744263


 Total CPU time for triples:      0.21 sec


 RESULTS
 =======

  Reference energy                   -115.049184659162
  CCSD singlet pair energy             -0.254461826479
  CCSD triplet pair energy             -0.108758566669
  CCSD correlation energy              -0.363220393149

  Triples (T) contribution             -0.007725828048
  Total correlation energy             -0.370946221197

  CCSD total energy                  -115.412405052311
  CCSD[T] energy                     -115.420420161183
  CCSD-T energy                      -115.419981355041
 !CCSD(T) total energy               -115.420130880359

 Timing summary (sec):

 STEP                 CPU(USER)    SYS     CPU(TOT)    WALL
 Transformation          0.01      0.01      0.02      0.02
 CCSD iterations         0.77      0.04      0.81      0.84
 Triples                 0.21      0.00      0.21      0.21

 Program statistics:

 Available memory in ccsd:               999999704
 Min. memory needed in ccsd:                136801
 Max. memory used in ccsd:                  163198
 Max. memory used in cckext:                182024 (20 integral passes)



 **********************************************************************************************************************************
 DATASETS  * FILE   NREC   LENGTH (MB)   RECORD NAMES
              1      20       10.94       500      610      700      900      950      970     1000      129      960     1100   
                                          VAR    BASINP    GEOM    SYMINP    ZMAT    AOBASIS   BASIS     P2S    ABASIS      S 
                                         1400     1410     1200     1210     1080     1600     1650     1300     1700     1380   
                                           T        V       H0       H01     AOSYM     SMH    MOLCAS    ERIS     OPER     JKOP   

              2       3        0.39       700     1000     2100   
                                         GEOM     BASIS     RHF  

 PROGRAMS   *        TOTAL   CCSD(T)       RHF       INT
 CPU TIMES  *         1.31      1.01      0.08      0.18
 REAL TIME  *         1.61 SEC
 DISK USED  *        25.67 MB      
 GA USED    *         0.00 MB       (max)       0.00 MB       (current)
 **********************************************************************************************************************************

        CCSD(T)         RHF-SCF 
   -115.42013088   -115.04918466
 **********************************************************************************************************************************
 Variable memory released
