
 Primary working directories    : /tmp/333988.29.gen4.q
 Secondary working directories  : /tmp/333988.29.gen4.q
 Wavefunction directory         : /home/vulcan/mel64643/wfu/
 Main file repository           : /tmp/333988.29.gen4.q/

 ARCHNAME  : Linux/x86_64
 FC        : /opt/intel/compilers_and_libraries_2016.1.150/linux/bin/intel64/ifort
 FCVERSION : 16.0.1
 BLASLIB   : -mkl
 id        : ccgc

 Nodes     nprocs
 n024         3
 Number of processes for MPI-2 version of Molpro:   nprocs(total)=    4   nprocs(compute)=    3   nprocs(helper)=    1
 ga_uses_ma=false, calling ma_init with nominal heap.
 GA-space will be limited to   8.0 MW (determined by -G option)

 Using customized tuning parameters: mindgm=10; mindgv=16; mindgc=4; mindgr=1; noblas=0; mincuda=1000; minvec=7
 default implementation of scratch files=sf  

 ***,Optimization of min3
 memory,1000,m
 gthresh,energy=1.0d-10,orbital=1.0d-10,oneint=1.0d-16,twoint=1.0d-16,optgrad=1.0d-6,compress=1.0d-13
 geomtyp=xyz
 
  bohr
  geometry = {
  12
  arbitrary comment
  C         -3.1002483339          1.5919737474          0.0225729176
  C         -0.8657485699         -0.0821999699         -0.6556206827
  C         -1.1161994999         -2.7764190693          0.2414197437
  O          1.3098912763          1.1082110336          0.5916574990
  O          3.4510659668          0.1187167109         -0.2531299952
  H         -4.7957613175          0.8359622678         -0.8767533103
  H         -2.8255843151          3.5308024499         -0.6177625096
  H         -3.4069486541          1.5934556638          2.0631318621
  H         -0.4535698888         -0.0343291098         -2.6756157361
  H         -2.7003061010         -3.6857143822         -0.7174567386
  H         -1.4717162143         -2.8016120618          2.2741681504
  H          0.6068820196         -3.8290699925         -0.1593411177
 }
 
 basis=cc-pvtz
 {rhf;maxit,200}
 {uccsd(t);maxit,200}

 Variables initialized (661), CPU time= 0.00 sec
 Commands  initialized (458), CPU time= 0.01 sec, 486 directives.
 Default parameters read. Elapsed time= 0.07 sec

 Checking input...
 Passed
1


                                         ***  PROGRAM SYSTEM MOLPRO  ***
                         Copyright, University College Cardiff Consultants Limited, 2008

                                    Version 2010.1 linked May 16 2016 07:17:05


 **********************************************************************************************************************************
 LABEL *   Optimization of min3                                                          
 Linux-4.4.3/n024(x86_64) 64 bit mpp version                                             DATE: 15-Jul-20          TIME: 11:41:23  
 **********************************************************************************************************************************

 SHA1:             9e8077add272b0f3cad6f7df79ec5211205f459d
 **********************************************************************************************************************************

 THRESHOLDS:

 ZERO    =  1.00D-12  ONEINT  =  1.00D-16  TWOINT  =  1.00D-16  PREFAC  =  1.00D-14  LOCALI  =  1.00D-09  EORDER  =  1.00D-04
 ENERGY  =  1.00D-10  ETEST   =  0.00D+00  EDENS   =  0.00D+00  THRDEDEF=  1.00D-06  GRADIENT=  1.00D-02  STEP    =  1.00D-03
 ORBITAL =  1.00D-10  CIVEC   =  1.00D-05  COEFF   =  1.00D-04  PRINTCI =  5.00D-02  PUNCHCI =  9.90D+01  OPTGRAD =  1.00D-06
 OPTENERG=  1.00D-06  OPTSTEP =  3.00D-04  THRGRAD =  1.00D-10  COMPRESS=  1.00D-13  VARMIN  =  1.00D-07  VARMAX  =  1.00D-03
 THRDOUB =  0.00D+00  THRDIV  =  1.00D-05  THRRED  =  1.00D-07  THRPSP  =  1.00D+00  THRDC   =  1.00D-10  THRCS   =  1.00D-10
 THRNRM  =  1.00D-08  THREQ   =  0.00D+00  THRDE   =  1.00D+00  THRREF  =  1.00D-05  SPARFAC =  1.00D+00  THRDLP  =  1.00D-07
 THRDIA  =  1.00D-10  THRDLS  =  1.00D-07  THRGPS  =  0.00D+00  THRKEX  =  0.00D+00  THRDIS  =  2.00D-01  THRVAR  =  1.00D-10
 THRLOC  =  1.00D-06  THRGAP  =  1.00D-06  THRLOCT = -1.00D+00  THRGAPT = -1.00D+00  THRORB  =  1.00D-06  THRMLTP =  0.00D+00
 THRCPQCI=  1.00D-10  KEXTA   =  0.00D+00  THRCOARS=  0.00D+00  SYMTOL  =  1.00D-06  GRADTOL =  1.00D-06  THROVL  =  1.00D-08
 THRORTH =  1.00D-08  GRID    =  1.00D-06  GRIDMAX =  1.00D-03  DTMAX   =  0.00D+00

 SETTING GEOMTYP        =    XYZ
 ZUNIT=BOHR
 

 Variable memory set to 1000000000 words,  buffer space   230000 words

 SETTING BASIS          =    CC-PVTZ


 Recomputing integrals since basis changed


 Using spherical harmonics

 Library entry C      S cc-pVTZ              selected for orbital group  1
 Library entry C      P cc-pVTZ              selected for orbital group  1
 Library entry C      D cc-pVTZ              selected for orbital group  1
 Library entry C      F cc-pVTZ              selected for orbital group  1
 Library entry O      S cc-pVTZ              selected for orbital group  2
 Library entry O      P cc-pVTZ              selected for orbital group  2
 Library entry O      D cc-pVTZ              selected for orbital group  2
 Library entry O      F cc-pVTZ              selected for orbital group  2
 Library entry H      S cc-pVTZ              selected for orbital group  3
 Library entry H      P cc-pVTZ              selected for orbital group  3
 Library entry H      D cc-pVTZ              selected for orbital group  3

1PROGRAM * SEWARD (Integral evaluation for generally contracted gaussian basis sets)     Author: Roland Lindh, 1990

 Geometry written to block  1 of record 700


 Point group  C1  



 ATOMIC COORDINATES

 NR  ATOM    CHARGE       X              Y              Z

   1  C       6.00   -3.100248334    1.591973747    0.022572918
   2  C       6.00   -0.865748570   -0.082199970   -0.655620683
   3  C       6.00   -1.116199500   -2.776419069    0.241419744
   4  O       8.00    1.309891276    1.108211034    0.591657499
   5  O       8.00    3.451065967    0.118716711   -0.253129995
   6  H       1.00   -4.795761318    0.835962268   -0.876753310
   7  H       1.00   -2.825584315    3.530802450   -0.617762510
   8  H       1.00   -3.406948654    1.593455664    2.063131862
   9  H       1.00   -0.453569889   -0.034329110   -2.675615736
  10  H       1.00   -2.700306101   -3.685714382   -0.717456739
  11  H       1.00   -1.471716214   -2.801612062    2.274168150
  12  H       1.00    0.606882020   -3.829069993   -0.159341118

 Bond lengths in Bohr (Angstrom)

 1-2  2.873289646  1-6  2.062790658  1-7  2.060224871  1-8  2.063479607  2-3  2.850653215
     ( 1.520479396)     ( 1.091581803)     ( 1.090224047)     ( 1.091946379)     ( 1.508500712)

  2- 4  2.776002514   2- 9  2.062174314   3-10  2.062924089   3-11  2.063756988   3-12  2.058565801
       ( 1.468997263)       ( 1.091255648)       ( 1.091652412)       ( 1.092093163)       ( 1.089346105)

 4-5  2.505472806
     ( 1.325839107)

 Bond angles

  1-2-3  114.08511521   1-2-4  104.68943005   1-2-9  111.90813502   2-1-6  108.83006950

  2- 1- 7  111.79552255   2- 1- 8  110.45178705   2- 3-10  109.74223946   2- 3-11  109.67126863

  2- 3-12  110.39495540   2- 4- 5  110.42150964   3- 2- 4  109.43630789   3- 2- 9  110.34932759

  4-2-9  105.87346593   6-1-7  108.60121516   6-1-8  108.01266970   7-1-8  109.05621009

 10- 3-11  108.67302086  10- 3-12  109.07871722  11- 3-12  109.25085509

 NUCLEAR CHARGE:                   41
 NUMBER OF PRIMITIVE AOS:         354
 NUMBER OF SYMMETRY AOS:          322
 NUMBER OF CONTRACTIONS:          248   ( 248A   )
 NUMBER OF CORE ORBITALS:           5   (   5A   )
 NUMBER OF VALENCE ORBITALS:       27   (  27A   )


 NUCLEAR REPULSION ENERGY  186.57097598


 Eigenvalues of metric

         1 0.800E-03 0.951E-03 0.110E-02 0.124E-02 0.136E-02 0.150E-02 0.160E-02 0.164E-02


 Contracted 2-electron integrals neglected if value below      1.0D-16
 AO integral compression algorithm  1   Integral accuracy      1.0D-16

     3373.269 MB (compressed) written to integral file ( 82.1%)

     Node minimum: 1066.402 MB, node maximum: 1162.871 MB


 NUMBER OF SORTED TWO-ELECTRON INTEGRALS:  158903334.     BUFFER LENGTH:  32768
 NUMBER OF SEGMENTS:  10  SEGMENT LENGTH:   15997437      RECORD LENGTH: 524288

 Memory used in sort:      16.55 MW

 SORT1 READ   513534342. AND WROTE   152620836. INTEGRALS IN    442 RECORDS. CPU TIME:    29.38 SEC, REAL TIME:    34.21 SEC
 SORT2 READ   459362993. AND WROTE   476679126. INTEGRALS IN  13092 RECORDS. CPU TIME:     4.37 SEC, REAL TIME:    16.01 SEC

 Node minimum:   158882750.  Node maximum:   158903334. integrals

 OPERATOR DM      FOR CENTER  0  COORDINATES:    0.000000    0.000000    0.000000


 **********************************************************************************************************************************
 DATASETS  * FILE   NREC   LENGTH (MB)   RECORD NAMES
              1      18        5.04       500      610      700      900      950      970     1000      129      960     1100   
                                          VAR    BASINP    GEOM    SYMINP    ZMAT    AOBASIS   BASIS     P2S    ABASIS      S 
                                         1400     1410     1200     1210     1080     1600     1650     1700   
                                           T        V       H0       H01     AOSYM     SMH    MOLCAS    OPER   

 PROGRAMS   *        TOTAL       INT
 CPU TIMES  *        41.71     41.61
 REAL TIME  *        59.35 SEC
 DISK USED  *         8.86 GB      
 GA USED    *         0.01 MB       (max)       0.00 MB       (current)
 **********************************************************************************************************************************

1PROGRAM * RHF-SCF (OPEN SHELL)       Authors: W. Meyer, H.-J. Werner


 NUMBER OF ELECTRONS:      21+   20-    SPACE SYMMETRY=1    SPIN SYMMETRY: Doublet 
 CONVERGENCE THRESHOLDS:    1.00E-10 (Density)    1.00E-11 (Energy)
 MAX. NUMBER OF ITERATIONS:      200
 INTERPOLATION TYPE:            DIIS
 INTERPOLATION STEPS:              2 (START)      1 (STEP)
 LEVEL SHIFTS:                 -0.30 (CLOSED)  0.00 (OPEN) 



 Orbital guess generated from atomic densities. Full valence occupancy:   32

 Molecular orbital dump at record        2100.2

 ITERATION    DDIFF          GRAD             ENERGY        2-EL.EN.            DIPOLE MOMENTS         DIIS
    1      0.000D+00      0.000D+00      -267.26042515    559.716901   -1.78143   -0.08172   -0.09568    0
    2      0.000D+00      0.326D-02      -267.33376426    562.554652   -1.01611   -0.44403   -0.36228    1
    3      0.472D-02      0.230D-02      -267.36050216    561.506530   -1.19148   -0.25247   -0.21807    2
    4      0.212D-02      0.547D-03      -267.36883714    561.694477   -0.97854   -0.32562   -0.29998    3
    5      0.931D-03      0.488D-03      -267.37312832    561.737003   -0.92257   -0.32709   -0.30420    4
    6      0.586D-03      0.275D-03      -267.37508340    561.703734   -0.88194   -0.31995   -0.30179    5
    7      0.489D-03      0.133D-03      -267.37541864    561.688910   -0.89309   -0.30783   -0.29325    6
    8      0.257D-03      0.363D-04      -267.37544115    561.686662   -0.89238   -0.30485   -0.29193    7
    9      0.855D-04      0.191D-04      -267.37545225    561.686794   -0.89505   -0.30532   -0.29195    8
   10      0.450D-04      0.834D-05      -267.37545410    561.686615   -0.89636   -0.30464   -0.29160    9
   11      0.201D-04      0.320D-05      -267.37545435    561.686596   -0.89696   -0.30451   -0.29145    9
   12      0.794D-05      0.152D-05      -267.37545441    561.686839   -0.89710   -0.30461   -0.29150    9
   13      0.379D-05      0.534D-06      -267.37545442    561.686878   -0.89712   -0.30467   -0.29152    9
   14      0.150D-05      0.301D-06      -267.37545442    561.686884   -0.89711   -0.30468   -0.29153    9
   15      0.832D-06      0.150D-06      -267.37545442    561.686894   -0.89710   -0.30469   -0.29153    9
   16      0.428D-06      0.712D-07      -267.37545442    561.686895   -0.89710   -0.30469   -0.29153    9
   17      0.192D-06      0.364D-07      -267.37545442    561.686890   -0.89709   -0.30469   -0.29153    9
   18      0.126D-06      0.210D-07      -267.37545442    561.686888   -0.89710   -0.30469   -0.29153    9
   19      0.815D-07      0.142D-07      -267.37545442    561.686891   -0.89710   -0.30469   -0.29153    9
   20      0.759D-07      0.114D-07      -267.37545442    561.686890   -0.89710   -0.30469   -0.29153    9
   21      0.759D-07      0.952D-08      -267.37545442    561.686890   -0.89709   -0.30469   -0.29153    9
   22      0.108D-06      0.756D-08      -267.37545442    561.686892   -0.89709   -0.30469   -0.29153    9
   23      0.137D-06      0.449D-08      -267.37545442    561.686892   -0.89709   -0.30469   -0.29153    9
   24      0.962D-07      0.221D-08      -267.37545442    561.686892   -0.89709   -0.30469   -0.29153    9
   25      0.367D-07      0.106D-08      -267.37545442    561.686892   -0.89709   -0.30469   -0.29153    9
   26      0.138D-07      0.482D-09      -267.37545442    561.686892   -0.89709   -0.30469   -0.29153    9
   27      0.146D-08      0.220D-09      -267.37545442    561.686892   -0.89709   -0.30469   -0.29153    9
   28      0.988D-09      0.129D-09      -267.37545442    561.686892   -0.89709   -0.30469   -0.29153    9
   29      0.567D-09      0.719D-10      -267.37545442    561.686892   -0.89709   -0.30469   -0.29153    9
   30      0.304D-09      0.351D-10      -267.37545442    561.686892   -0.89709   -0.30469   -0.29153    9
   31      0.109D-09      0.193D-10      -267.37545442    561.686892   -0.89709   -0.30469   -0.29153    9
   32      0.739D-10      0.179D-10      -267.37545442    561.686892   -0.89709   -0.30469   -0.29153    0

 Final alpha occupancy:  21
 Final beta  occupancy:  20

 !RHF STATE 1.1 Energy               -267.375454423160
 Nuclear energy                       186.57097598
 One-electron energy                 -734.78987658
 Two-electron energy                  280.84344618
 Virial quotient                       -1.00117404
 !RHF STATE 1.1 Dipole moment          -0.89709374    -0.30469044    -0.29153064
 Dipole moment /Debye                  -2.28003550    -0.77439512    -0.74094846

 Orbital energies:

         1.1          2.1          3.1          4.1          5.1          6.1          7.1          8.1          9.1         10.1
    -20.648597   -20.639917   -11.297430   -11.229524   -11.225166    -1.520723    -1.170171    -1.035683    -0.953224    -0.818863

        11.1         12.1         13.1         14.1         15.1         16.1         17.1         18.1         19.1         20.1
     -0.694401    -0.667186    -0.651599    -0.595617    -0.562183    -0.557703    -0.544211    -0.501806    -0.490204    -0.465311

        21.1         22.1         23.1
     -0.563948     0.137606     0.175139


 **********************************************************************************************************************************
 DATASETS  * FILE   NREC   LENGTH (MB)   RECORD NAMES
              1      18        5.04       500      610      700      900      950      970     1000      129      960     1100   
                                          VAR    BASINP    GEOM    SYMINP    ZMAT    AOBASIS   BASIS     P2S    ABASIS      S 
                                         1400     1410     1200     1210     1080     1600     1650     1700   
                                           T        V       H0       H01     AOSYM     SMH    MOLCAS    OPER   

              2       3        2.21       700     1000     2100   
                                         GEOM     BASIS     RHF  

 PROGRAMS   *        TOTAL       RHF       INT
 CPU TIMES  *       115.57     73.86     41.61
 REAL TIME  *       138.24 SEC
 DISK USED  *         8.90 GB      
 SF USED    *         0.25 MB      
 GA USED    *         0.01 MB       (max)       0.00 MB       (current)
 **********************************************************************************************************************************


1PROGRAM * CCSD (Unrestricted open-shell coupled cluster)     Authors: C. Hampel, H.-J. Werner, 1991, M. Deegan, P.J. Knowles, 1992


 Convergence thresholds:  THRVAR = 1.00D-08  THRDEN = 1.00D-10

 CCSD(T)     terms to be evaluated (factor= 1.000)


 Number of core orbitals:           5 (   5 )
 Number of closed-shell orbitals:  15 (  15 )
 Number of active  orbitals:        1 (   1 )
 Number of external orbitals:     227 ( 227 )

 Memory could be reduced to 332.02 Mwords without degradation in triples

 Number of N-1 electron functions:              31
 Number of N-2 electron functions:             465
 Number of singly external CSFs:              7068
 Number of doubly external CSFs:          18353430
 Total number of CSFs:                    18360498

 Molecular orbitals read from record     2100.2  Type=RHF/CANONICAL (state 1.1)

 Integral transformation finished. Total CPU:  33.69 sec, npass=  1  Memory used: 145.25 MW

 Starting RMP2 calculation

 ITER.      SQ.NORM     CORR.ENERGY   TOTAL ENERGY   ENERGY CHANGE        DEN1      VAR(S)    VAR(P)  DIIS     TIME
   1      1.26561092    -0.96781103  -268.34326545    -0.96781103    -0.00324282  0.26D-04  0.11D-02  1  1    38.30
   2      1.26840372    -0.97130774  -268.34676217    -0.00349671    -0.00000669  0.10D-05  0.23D-05  2  2    41.80
   3      1.26848398    -0.97136083  -268.34681525    -0.00005308    -0.00000008  0.53D-07  0.12D-07  3  3    46.60
   4      1.26848567    -0.97136062  -268.34681504     0.00000021    -0.00000000  0.16D-08  0.12D-09  4  4    51.53
   5      1.26848593    -0.97136070  -268.34681513    -0.00000008    -0.00000000  0.19D-10  0.46D-11  5  5    58.69
   6      1.26848599    -0.97136074  -268.34681516    -0.00000003    -0.00000000  0.50D-13  0.56D-13  6  6    64.53
   7      1.26848599    -0.97136074  -268.34681516     0.00000000    -0.00000000  0.15D-14  0.86D-15  6  1    69.39
   8      1.26848599    -0.97136074  -268.34681516     0.00000000    -0.00000000  0.16D-16  0.80D-17  6  2    74.69
   9      1.26848599    -0.97136074  -268.34681516    -0.00000000    -0.00000000  0.31D-18  0.10D-18  6  3    82.02

 Norm of t1 vector:      0.04578901      S-energy:    -0.00445391      T1 diagnostic:  0.00074147
 Norm of t2 vector:      0.51612920      P-energy:    -0.96690682
                                         Alpha-Beta:  -0.73727909
                                         Alpha-Alpha: -0.11903820
                                         Beta-Beta:   -0.11058954

 Spin contamination <S**2-Sz**2-Sz>     0.00144977
  Reference energy                   -267.375454423162
  RHF-RMP2 correlation energy          -0.971360737815
 !RHF-RMP2 energy                    -268.346815160977

 Starting UCCSD calculation

 ITER.      SQ.NORM     CORR.ENERGY   TOTAL ENERGY   ENERGY CHANGE        DEN1      VAR(S)    VAR(P)  DIIS     TIME
   1      1.28005214    -0.97940534  -268.35485976    -0.97940534    -0.02939227  0.65D-02  0.54D-02  1  1   215.32
   2      1.30652380    -1.00606520  -268.38151963    -0.02665987    -0.00365418  0.62D-03  0.97D-03  2  2   356.24
   3      1.32326877    -1.01291067  -268.38836509    -0.00684546    -0.00092124  0.76D-03  0.77D-04  3  3   465.30
   4      1.33459620    -1.01558297  -268.39103739    -0.00267230    -0.00039105  0.31D-03  0.33D-04  4  4   575.37
   5      1.34990665    -1.01760545  -268.39305987    -0.00202248    -0.00012045  0.10D-03  0.92D-05  5  5   685.95
   6      1.36173071    -1.01865012  -268.39410455    -0.00104467    -0.00001853  0.95D-05  0.33D-05  6  6   795.26
   7      1.36550485    -1.01889475  -268.39434917    -0.00024463    -0.00000325  0.17D-05  0.62D-06  6  1   904.47
   8      1.36613186    -1.01893830  -268.39439273    -0.00004355    -0.00000069  0.27D-06  0.16D-06  6  2  1013.62
   9      1.36646354    -1.01895727  -268.39441170    -0.00001897    -0.00000015  0.68D-07  0.33D-07  6  4  1125.71
  10      1.36644885    -1.01895592  -268.39441035     0.00000135    -0.00000002  0.11D-07  0.45D-08  6  3  1234.99
  11      1.36651486    -1.01896131  -268.39441574    -0.00000539    -0.00000001  0.28D-08  0.99D-09  6  5  1344.34
  12      1.36650682    -1.01895874  -268.39441316     0.00000257    -0.00000000  0.14D-08  0.24D-09  6  6  1454.44
  13      1.36650213    -1.01895753  -268.39441195     0.00000121    -0.00000000  0.89D-09  0.67D-10  6  1  1563.71
  14      1.36648824    -1.01895591  -268.39441034     0.00000162    -0.00000000  0.63D-09  0.31D-10  6  2  1675.90
  15      1.36648134    -1.01895509  -268.39440952     0.00000082    -0.00000000  0.51D-09  0.25D-10  6  3  1793.43
  16      1.36647795    -1.01895493  -268.39440935     0.00000017    -0.00000000  0.36D-09  0.21D-10  6  4  1904.20
  17      1.36647800    -1.01895500  -268.39440943    -0.00000007    -0.00000000  0.16D-09  0.20D-10  6  5  2014.79
  18      1.36648209    -1.01895527  -268.39440970    -0.00000027    -0.00000000  0.31D-10  0.69D-11  6  6  2124.30
  19      1.36648565    -1.01895563  -268.39441005    -0.00000035    -0.00000000  0.29D-11  0.19D-11  6  2  2235.02
  20      1.36648494    -1.01895548  -268.39440990     0.00000015    -0.00000000  0.66D-12  0.19D-12  6  1  2345.55
  21      1.36648517    -1.01895551  -268.39440994    -0.00000004    -0.00000000  0.24D-12  0.66D-13  6  4  2455.23
  22      1.36648506    -1.01895550  -268.39440993     0.00000001    -0.00000000  0.64D-13  0.16D-13  6  3  2564.72
  23      1.36648506    -1.01895551  -268.39440993    -0.00000000    -0.00000000  0.18D-13  0.63D-14  6  6  2675.83
  24      1.36648505    -1.01895551  -268.39440993     0.00000000    -0.00000000  0.47D-14  0.11D-14  6  5  2785.80
  25      1.36648506    -1.01895550  -268.39440993     0.00000000    -0.00000000  0.11D-14  0.31D-15  6  1  2895.92
  26      1.36648508    -1.01895551  -268.39440993    -0.00000000    -0.00000000  0.18D-15  0.66D-16  6  2  3005.62
  27      1.36648508    -1.01895551  -268.39440993    -0.00000000    -0.00000000  0.52D-16  0.16D-16  6  4  3115.38
  28      1.36648508    -1.01895551  -268.39440993    -0.00000000    -0.00000000  0.17D-16  0.71D-17  6  3  3225.51
  29      1.36648508    -1.01895551  -268.39440993    -0.00000000    -0.00000000  0.84D-17  0.14D-17  6  1  3336.56
  30      1.36648508    -1.01895551  -268.39440993    -0.00000000    -0.00000000  0.31D-17  0.34D-18  6  6  3447.64

 Norm of t1 vector:      0.23267100      S-energy:    -0.00500869      T1 diagnostic:  0.02867961
                                                                       D1 diagnostic:  0.14704663
 Norm of t2 vector:      0.55888218      P-energy:    -1.01394681
                                         Alpha-Beta:  -0.80162501
                                         Alpha-Alpha: -0.10870245
                                         Beta-Beta:   -0.10361935

 Singles amplitudes (print threshold =  0.500E-01):

         I         SYM. A    A   T(IA) [Beta-Beta]

         8         1         1     -0.09552286
         9         1         1      0.09977585
        11         1         1     -0.05891326
        12         1         1     -0.07354058
        14         1         1     -0.11077633

 Spin contamination <S**2-Sz**2-Sz>     0.00177397

 Memory could be reduced to 360.52 Mwords without degradation in triples
 

 RESULTS
 =======

  Reference energy                   -267.375454423162
  UCCSD singles energy                 -0.005008692729
  UCCSD pair energy                    -1.013946813612
  UCCSD correlation energy             -1.018955506342
  Triples (T) contribution             -0.040906458250
  Total correlation energy             -1.059861964592
 
  RHF-UCCSD energy                   -268.394409929504
  RHF-UCCSD[T] energy                -268.438689033946
  RHF-UCCSD-T energy                 -268.434815732322
 !RHF-UCCSD(T) energy                -268.435316387754

 Program statistics:

 Available memory in ccsd:               999997692
 Min. memory needed in ccsd:              51505734
 Max. memory used in ccsd:                74803578
 Max. memory used in cckext:              59475747 (30 integral passes)
 Max. memory used in cckint:             145249478 ( 1 integral passes)



 **********************************************************************************************************************************
 DATASETS  * FILE   NREC   LENGTH (MB)   RECORD NAMES
              1      18        5.04       500      610      700      900      950      970     1000      129      960     1100   
                                          VAR    BASINP    GEOM    SYMINP    ZMAT    AOBASIS   BASIS     P2S    ABASIS      S 
                                         1400     1410     1200     1210     1080     1600     1650     1700   
                                           T        V       H0       H01     AOSYM     SMH    MOLCAS    OPER   

              2       3        2.21       700     1000     2100   
                                         GEOM     BASIS     RHF  

 PROGRAMS   *        TOTAL  UCCSD(T)       RHF       INT
 CPU TIMES  *      5770.51   5654.94     73.86     41.61
 REAL TIME  *      5917.12 SEC
 DISK USED  *        15.87 GB      
 SF USED    *         6.57 GB      
 GA USED    *         0.01 MB       (max)       0.00 MB       (current)
 **********************************************************************************************************************************

        UCCSD(T)        RHF-SCF 
   -268.43531639   -267.37545442
 **********************************************************************************************************************************
 Variable memory released
