
 Primary working directories    : /tmp/1231578.13.gen4.q
 Secondary working directories  : /tmp/1231578.13.gen4.q
 Wavefunction directory         : /home/vulcan/nlk36701/wfu/
 Main file repository           : /tmp/1231578.13.gen4.q/

 ARCHNAME  : Linux/x86_64
 FC        : /opt/intel/compilers_and_libraries_2016.1.150/linux/bin/intel64/ifort
 FCVERSION : 16.0.1
 BLASLIB   : -mkl
 id        : ccgc

 Nodes     nprocs
 n049         1
 ga_uses_ma=false, calling ma_init with nominal heap.
 GA-space will be limited to   8.0 MW (determined by -G option)

 Using customized tuning parameters: mindgm=10; mindgv=16; mindgc=4; mindgr=1; noblas=0; mincuda=1000; minvec=7
 default implementation of scratch files=df  

 ***,Optimization of min3
 memory,1000,m
 gthresh,energy=1.0d-12,orbital=1.0d-10,oneint=1.0d-16,twoint=1.0d-16,optgrad=1.0d-6,compress=1.0d-13
 geomtyp=xyz
 
  bohr
  geometry = {
  N    0.0053277275    0.0000000000    0.1333617659
  H    0.8768480055   -1.5318997563   -0.6168652453
  H    0.8768480055    1.5318997563   -0.6168652453
  H   -1.7590237484   -0.0000000000   -0.6191345353
 }
 
 basis=cc-pvdz
 {rhf;maxit,200}
 {ccsd(t);maxit,200}

 Variables initialized (661), CPU time= 0.01 sec
 Commands  initialized (458), CPU time= 0.00 sec, 486 directives.
 Default parameters read. Elapsed time= 0.04 sec

 Checking input...
 Passed
1


                                         ***  PROGRAM SYSTEM MOLPRO  ***
                         Copyright, University College Cardiff Consultants Limited, 2008

                                    Version 2010.1 linked May 16 2016 07:17:05


 **********************************************************************************************************************************
 LABEL *   Optimization of min3                                                          
 Linux-4.4.3/n049(x86_64) 64 bit mpp version                                             DATE: 16-Apr-25          TIME: 10:08:23  
 **********************************************************************************************************************************

 SHA1:             9e8077add272b0f3cad6f7df79ec5211205f459d
 **********************************************************************************************************************************

 THRESHOLDS:

 ZERO    =  1.00D-12  ONEINT  =  1.00D-16  TWOINT  =  1.00D-16  PREFAC  =  1.00D-14  LOCALI  =  1.00D-09  EORDER  =  1.00D-04
 ENERGY  =  1.00D-12  ETEST   =  0.00D+00  EDENS   =  0.00D+00  THRDEDEF=  1.00D-06  GRADIENT=  1.00D-02  STEP    =  1.00D-03
 ORBITAL =  1.00D-10  CIVEC   =  1.00D-05  COEFF   =  1.00D-04  PRINTCI =  5.00D-02  PUNCHCI =  9.90D+01  OPTGRAD =  1.00D-06
 OPTENERG=  1.00D-06  OPTSTEP =  3.00D-04  THRGRAD =  1.00D-10  COMPRESS=  1.00D-13  VARMIN  =  1.00D-07  VARMAX  =  1.00D-03
 THRDOUB =  0.00D+00  THRDIV  =  1.00D-05  THRRED  =  1.00D-07  THRPSP  =  1.00D+00  THRDC   =  1.00D-10  THRCS   =  1.00D-10
 THRNRM  =  1.00D-08  THREQ   =  0.00D+00  THRDE   =  1.00D+00  THRREF  =  1.00D-05  SPARFAC =  1.00D+00  THRDLP  =  1.00D-07
 THRDIA  =  1.00D-10  THRDLS  =  1.00D-07  THRGPS  =  0.00D+00  THRKEX  =  0.00D+00  THRDIS  =  2.00D-01  THRVAR  =  1.00D-10
 THRLOC  =  1.00D-06  THRGAP  =  1.00D-06  THRLOCT = -1.00D+00  THRGAPT = -1.00D+00  THRORB  =  1.00D-06  THRMLTP =  0.00D+00
 THRCPQCI=  1.00D-10  KEXTA   =  0.00D+00  THRCOARS=  0.00D+00  SYMTOL  =  1.00D-06  GRADTOL =  1.00D-06  THROVL  =  1.00D-08
 THRORTH =  1.00D-08  GRID    =  1.00D-06  GRIDMAX =  1.00D-03  DTMAX   =  0.00D+00

 SETTING GEOMTYP        =    XYZ
 ZUNIT=BOHR
 

 Variable memory set to 1000000000 words,  buffer space   230000 words

 SETTING BASIS          =    CC-PVDZ


 Recomputing integrals since basis changed


 Using spherical harmonics

 Library entry N      S cc-pVDZ              selected for orbital group  1
 Library entry N      P cc-pVDZ              selected for orbital group  1
 Library entry N      D cc-pVDZ              selected for orbital group  1
 Library entry H      S cc-pVDZ              selected for orbital group  2
 Library entry H      P cc-pVDZ              selected for orbital group  2

1PROGRAM * SEWARD (Integral evaluation for generally contracted gaussian basis sets)     Author: Roland Lindh, 1990

 Geometry written to block  1 of record 700


 Point group  Cs  



 ATOMIC COORDINATES

 NR  ATOM    CHARGE       X              Y              Z

   1  N       7.00    0.005327727    0.000000000    0.133361766
   2  H       1.00    0.876848005   -1.531899756   -0.616865245
   3  H       1.00    0.876848005    1.531899756   -0.616865245
   4  H       1.00   -1.759023748    0.000000000   -0.619134535

 Bond lengths in Bohr (Angstrom)

 1-2  1.915490806  1-3  1.915490806  1-4  1.918120646
     ( 1.013634078)     ( 1.013634078)     ( 1.015025730)

 Bond angles

  2-1-3  106.21107483   2-1-4  105.35849935   3-1-4  105.35849935

 NUCLEAR CHARGE:                   10
 NUMBER OF PRIMITIVE AOS:          48
 NUMBER OF SYMMETRY AOS:           47
 NUMBER OF CONTRACTIONS:           29   (  19A'  +  10A"  )
 NUMBER OF CORE ORBITALS:           1   (   1A'  +   0A"  )
 NUMBER OF VALENCE ORBITALS:        7   (   5A'  +   2A"  )


 NUCLEAR REPULSION ENERGY   11.94064771


 Eigenvalues of metric

         1 0.159E-01 0.410E-01 0.453E-01 0.775E-01 0.149E+00 0.151E+00 0.185E+00 0.411E+00
         2 0.408E-01 0.774E-01 0.149E+00 0.412E+00 0.620E+00 0.852E+00 0.109E+01 0.124E+01


 Contracted 2-electron integrals neglected if value below      1.0D-16
 AO integral compression algorithm  1   Integral accuracy      1.0D-16

     0.786 MB (compressed) written to integral file (100.0%)

     Node minimum: 0.786 MB, node maximum: 0.786 MB


 NUMBER OF SORTED TWO-ELECTRON INTEGRALS:      51035.     BUFFER LENGTH:  32768
 NUMBER OF SEGMENTS:   1  SEGMENT LENGTH:      51035      RECORD LENGTH: 524288

 Memory used in sort:       0.61 MW

 SORT1 READ       68121. AND WROTE       48044. INTEGRALS IN      1 RECORDS. CPU TIME:     0.00 SEC, REAL TIME:     0.01 SEC
 SORT2 READ       48044. AND WROTE       51035. INTEGRALS IN      3 RECORDS. CPU TIME:     0.01 SEC, REAL TIME:     0.00 SEC

 FILE SIZES:   FILE 1:     3.0 MBYTE,  FILE 4:     4.2 MBYTE,   TOTAL:      7.2 MBYTE

 OPERATOR DM      FOR CENTER  0  COORDINATES:    0.000000    0.000000    0.000000


 **********************************************************************************************************************************
 DATASETS  * FILE   NREC   LENGTH (MB)   RECORD NAMES
              1      19        3.01       500      610      700      900      950      970     1000      129      960     1100   
                                          VAR    BASINP    GEOM    SYMINP    ZMAT    AOBASIS   BASIS     P2S    ABASIS      S 
                                         1400     1410     1200     1210     1080     1600     1650     1300     1700   
                                           T        V       H0       H01     AOSYM     SMH    MOLCAS    ERIS     OPER   

 PROGRAMS   *        TOTAL       INT
 CPU TIMES  *         0.14      0.09
 REAL TIME  *         0.45 SEC
 DISK USED  *         8.57 MB      
 GA USED    *         0.00 MB       (max)       0.00 MB       (current)
 **********************************************************************************************************************************

1PROGRAM * RHF-SCF (CLOSED SHELL)       Authors: W. Meyer, H.-J. Werner


 NUMBER OF ELECTRONS:       5+    5-
 CONVERGENCE THRESHOLDS:    1.00E-10 (Density)    1.00E-13 (Energy)
 MAX. NUMBER OF ITERATIONS:      200
 INTERPOLATION TYPE:            DIIS
 INTERPOLATION STEPS:              2 (START)      1 (STEP)
 LEVEL SHIFTS:                  0.00 (CLOSED)  0.00 (OPEN) 



 Orbital guess generated from atomic densities. Full valence occupancy:    6   2

 Molecular orbital dump at record        2100.2

 Initial alpha occupancy:   4   1
 Initial beta  occupancy:   4   1
 Wave function symmetry:    1

 ITERATION    DDIFF          GRAD             ENERGY        2-EL.EN.            DIPOLE MOMENTS         DIIS
    1      0.000D+00      0.000D+00       -56.16935567     64.268620   -0.00630    0.00000   -0.93868    0
    2      0.000D+00      0.205D-01       -56.19123633     62.240441   -0.00222    0.00000   -0.63594    1
    3      0.399D-01      0.907D-02       -56.19538600     63.063806   -0.00306    0.00000   -0.69383    2
    4      0.132D-01      0.153D-02       -56.19560626     62.972123   -0.00283    0.00000   -0.68705    3
    5      0.332D-02      0.319D-03       -56.19561609     62.983680   -0.00279    0.00000   -0.68571    4
    6      0.749D-03      0.500D-04       -56.19561645     62.984057   -0.00278    0.00000   -0.68573    5
    7      0.124D-03      0.109D-04       -56.19561647     62.984012   -0.00278    0.00000   -0.68580    6
    8      0.351D-04      0.198D-05       -56.19561648     62.984004   -0.00278    0.00000   -0.68583    6
    9      0.591D-05      0.509D-06       -56.19561648     62.984005   -0.00278    0.00000   -0.68585    6
   10      0.176D-05      0.665D-07       -56.19561648     62.984003   -0.00278    0.00000   -0.68585    5
   11      0.208D-06      0.923D-08       -56.19561648     62.984004   -0.00278    0.00000   -0.68585    5
   12      0.208D-07      0.260D-08       -56.19561648     62.984004   -0.00278    0.00000   -0.68585    6
   13      0.560D-08      0.420D-09       -56.19561648     62.984004   -0.00278    0.00000   -0.68585    6
   14      0.913D-09      0.471D-10       -56.19561648     62.984004   -0.00278    0.00000   -0.68585    5
   15      0.109D-09      0.122D-10       -56.19561648     62.984004   -0.00278    0.00000   -0.68585    5
   16      0.287D-10      0.322D-11       -56.19561648     62.984004   -0.00278    0.00000   -0.68585    0

 Final occupancy:   4   1

 !RHF STATE 1.1 Energy                -56.195616475192
 Nuclear energy                        11.94064771
 One-electron energy                  -99.62826604
 Two-electron energy                   31.49200186
 Virial quotient                       -1.00158752
 !RHF STATE 1.1 Dipole moment          -0.00277967     0.00000000    -0.68584950
 Dipole moment /Debye                  -0.00706475     0.00000000    -1.74314136

 Orbital energies:

         1.1          2.1          3.1          4.1          5.1          6.1
    -15.537849    -1.133148    -0.612984    -0.422270     0.186410     0.270360

         1.2          2.2          3.2
     -0.615880     0.270144     0.730680


 **********************************************************************************************************************************
 DATASETS  * FILE   NREC   LENGTH (MB)   RECORD NAMES
              1      19        3.01       500      610      700      900      950      970     1000      129      960     1100   
                                          VAR    BASINP    GEOM    SYMINP    ZMAT    AOBASIS   BASIS     P2S    ABASIS      S 
                                         1400     1410     1200     1210     1080     1600     1650     1300     1700   
                                           T        V       H0       H01     AOSYM     SMH    MOLCAS    ERIS     OPER   

              2       3        0.31       700     1000     2100   
                                         GEOM     BASIS     RHF  

 PROGRAMS   *        TOTAL       RHF       INT
 CPU TIMES  *         0.15      0.01      0.09
 REAL TIME  *         0.64 SEC
 DISK USED  *         8.57 MB      
 GA USED    *         0.00 MB       (max)       0.00 MB       (current)
 **********************************************************************************************************************************


1PROGRAM * CCSD (Closed-shell coupled cluster)     Authors: C. Hampel, H.-J. Werner, 1991, M. Deegan, P.J. Knowles, 1992


 Convergence thresholds:  THRVAR = 1.00D-08  THRDEN = 1.00D-12

 CCSD(T)     terms to be evaluated (factor= 1.000)


 Number of core orbitals:           1 (   1   0 )
 Number of closed-shell orbitals:   4 (   3   1 )
 Number of external orbitals:      24 (  15   9 )

 Molecular orbitals read from record     2100.2  Type=RHF/CANONICAL (state 1.1)

 Number of N-1 electron functions:               4
 Number of N-2 electron functions:              10
 Number of singly external CSFs:                54
 Number of doubly external CSFs:              2388
 Total number of CSFs:                        2443

 Length of J-op  integral file:               0.00 MB
 Length of K-op  integral file:               0.06 MB
 Length of 3-ext integral record:             0.00 MB

 Memory could be reduced to 0.34 Mwords without degradation in triples

 Integral transformation finished. Total CPU:   0.00 sec, npass=  1  Memory used:   0.09 MW

 Reference energy:                    -56.19561648

 MP2 singlet pair energy:              -0.12285345
 MP2 triplet pair energy:              -0.06373064
 MP2 correlation energy:               -0.18658409
 MP2 total energy:                    -56.38220057

 SCS-MP2 correlation energy:           -0.18707876   (PS=  1.200000  PT=  0.333333)
 SCS-MP2 total energy:                -56.38269524

 ITER.      SQ.NORM     CORR.ENERGY   TOTAL ENERGY   ENERGY CHANGE        DEN1      VAR(S)    VAR(P)  DIIS     TIME
   1      1.06221642    -0.20155819   -56.39717466    -0.01497409    -0.01058596  0.24D-03  0.89D-03  1  1     0.00
   2      1.06674006    -0.20272632   -56.39834280    -0.00116813    -0.00499406  0.13D-04  0.52D-04  2  2     0.00
   3      1.06762350    -0.20282492   -56.39844139    -0.00009860    -0.00055724  0.14D-05  0.27D-05  3  3     0.01
   4      1.06782126    -0.20283215   -56.39844862    -0.00000723    -0.00009582  0.16D-06  0.15D-06  4  4     0.01
   5      1.06785184    -0.20283081   -56.39844728     0.00000134    -0.00001303  0.43D-07  0.99D-08  5  5     0.01
   6      1.06785718    -0.20283107   -56.39844755    -0.00000026    -0.00000018  0.90D-08  0.14D-08  6  6     0.01
   7      1.06786084    -0.20283102   -56.39844750     0.00000005    -0.00000032  0.65D-09  0.20D-09  6  1     0.01
   8      1.06786201    -0.20283092   -56.39844739     0.00000011    -0.00000023  0.97D-11  0.13D-10  6  4     0.01
   9      1.06786217    -0.20283092   -56.39844739    -0.00000000     0.00000001  0.38D-12  0.65D-12  6  2     0.02
  10      1.06786218    -0.20283092   -56.39844740    -0.00000001     0.00000001  0.82D-14  0.27D-13  6  3     0.02
  11      1.06786218    -0.20283092   -56.39844740     0.00000000    -0.00000000  0.11D-14  0.20D-14  6  5     0.02
  12      1.06786218    -0.20283092   -56.39844740     0.00000000    -0.00000000  0.48D-16  0.21D-15  6  6     0.02
  13      1.06786219    -0.20283092   -56.39844740     0.00000000    -0.00000000  0.18D-16  0.11D-16  6  1     0.02
  14      1.06786219    -0.20283092   -56.39844740     0.00000000    -0.00000000  0.40D-18  0.63D-18  6  3     0.03
  15      1.06786219    -0.20283092   -56.39844740     0.00000000    -0.00000000  0.90D-20  0.33D-19  6  4     0.03
  16      1.06786219    -0.20283092   -56.39844740     0.00000000     0.00000000  0.37D-21  0.92D-21  6  2     0.03

 Norm of t1 vector:      0.02195518      S-energy:     0.00000000      T1 diagnostic:  0.00548880
                                                                       D1 diagnostic:  0.00872832


 Total CPU time for triples:      0.00 sec


 RESULTS
 =======

  Reference energy                    -56.195616475192
  CCSD singlet pair energy             -0.144476860911
  CCSD triplet pair energy             -0.058354061206
  CCSD correlation energy              -0.202830922116

  Triples (T) contribution             -0.003830766731
  Total correlation energy             -0.206661688848

  CCSD total energy                   -56.398447397308
  CCSD[T] energy                      -56.402359375964
  CCSD-T energy                       -56.402224215873
 !CCSD(T) total energy                -56.402278164039

 Timing summary (sec):

 STEP                 CPU(USER)    SYS     CPU(TOT)    WALL
 CCSD iterations         0.03      0.00      0.03      0.37

 Program statistics:

 Available memory in ccsd:               999999836
 Min. memory needed in ccsd:                 13677
 Max. memory used in ccsd:                   14871
 Max. memory used in cckext:                 48591 (16 integral passes)



 **********************************************************************************************************************************
 DATASETS  * FILE   NREC   LENGTH (MB)   RECORD NAMES
              1      20        3.20       500      610      700      900      950      970     1000      129      960     1100   
                                          VAR    BASINP    GEOM    SYMINP    ZMAT    AOBASIS   BASIS     P2S    ABASIS      S 
                                         1400     1410     1200     1210     1080     1600     1650     1300     1700     1380   
                                           T        V       H0       H01     AOSYM     SMH    MOLCAS    ERIS     OPER     JKOP   

              2       3        0.31       700     1000     2100   
                                         GEOM     BASIS     RHF  

 PROGRAMS   *        TOTAL   CCSD(T)       RHF       INT
 CPU TIMES  *         0.19      0.04      0.01      0.09
 REAL TIME  *         1.13 SEC
 DISK USED  *         8.57 MB      
 GA USED    *         0.00 MB       (max)       0.00 MB       (current)
 **********************************************************************************************************************************

        CCSD(T)         RHF-SCF 
    -56.40227816    -56.19561648
 **********************************************************************************************************************************
 Variable memory released
