[Molden Format]
[ATOMS] AU
C        1    6        0.0000000000        2.6409655900       -0.0000000000
C        2    6       -2.2871432900        1.3204827900       -0.0000000000
C        3    6       -2.2871432900       -1.3204827900        0.0000000000
C        4    6       -0.0000000000       -2.6409655900        0.0000000000
C        5    6        2.2871432900       -1.3204827900        0.0000000000
C        6    6        2.2871432900        1.3204827900       -0.0000000000
H        7    1        0.0000000000        4.6877755400       -0.0000000000
H        8    1       -4.0597327100        2.3438877700       -0.0000000000
H        9    1       -4.0597327100       -2.3438877700        0.0000000000
H       10    1       -0.0000000000       -4.6877755400        0.0000000000
H       11    1        4.0597327100       -2.3438877700        0.0000000000
H       12    1        4.0597327100        2.3438877700       -0.0000000000
[Molden Format]
 [FREQ]
     1004.5461274016
     3209.1651794036
     1370.1849395562
      682.5472481947
      961.1261482189
      856.4418888174
      607.1963114970
     1190.7942625245
     1637.0853450738
     3180.7549315424
      685.2903253479
     1010.3423565969
     3169.4099010951
     1217.3734154028
     1274.8803688235
     1054.4502394965
     1506.9082151956
     3198.3574636525
      401.4728179423
      959.0242812600
 [FR-COORD]
C            0.0000000000        2.6409655900       -0.0000000000
C           -2.2871432900        1.3204827900       -0.0000000000
C           -2.2871432900       -1.3204827900        0.0000000000
C           -0.0000000000       -2.6409655900        0.0000000000
C            2.2871432900       -1.3204827900        0.0000000000
C            2.2871432900        1.3204827900       -0.0000000000
H            0.0000000000        4.6877755400       -0.0000000000
H           -4.0597327100        2.3438877700       -0.0000000000
H           -4.0597327100       -2.3438877700        0.0000000000
H           -0.0000000000       -4.6877755400        0.0000000000
H            4.0597327100       -2.3438877700        0.0000000000
H            4.0597327100        2.3438877700       -0.0000000000
 [FR-NORM-COORD]
  vibration                      1
        0.0000000000        0.1218838098        0.0000000000
       -0.1055544753        0.0609419048        0.0000000000
       -0.1055544753       -0.0609419048       -0.0000000000
       -0.0000000000       -0.1218838098       -0.0000000000
        0.1055544753       -0.0609419048        0.0000000000
        0.1055544753        0.0609419048        0.0000000000
        0.0000000000        0.1340383009        0.0000000000
       -0.1160805733        0.0670191503        0.0000000000
       -0.1160805733       -0.0670191503       -0.0000000000
        0.0000000000       -0.1340383009       -0.0000000000
        0.1160805733       -0.0670191503        0.0000000000
        0.1160805733        0.0670191503       -0.0000000000
  vibration                      2
       -0.0000000000       -0.0103197381       -0.0000000000
        0.0089371553       -0.0051598690       -0.0000000000
        0.0089371553        0.0051598690       -0.0000000000
        0.0000000000        0.0103197381       -0.0000000000
       -0.0089371553        0.0051598690       -0.0000000000
       -0.0089371553       -0.0051598690       -0.0000000000
       -0.0000000000        0.1117331099        0.0000000000
       -0.0967637116        0.0558665550        0.0000000000
       -0.0967637116       -0.0558665550        0.0000000000
       -0.0000000000       -0.1117331099       -0.0000000000
        0.0967637116       -0.0558665550        0.0000000000
        0.0967637116        0.0558665550        0.0000000000
  vibration                      3
       -0.0758037095       -0.0000362632       -0.0000000000
       -0.0378704498       -0.0656660697       -0.0000000000
        0.0379332595       -0.0656298065       -0.0000000000
        0.0758037095        0.0000362632        0.0000000000
        0.0378704498        0.0656660697        0.0000000000
       -0.0379332595        0.0656298065        0.0000000000
        0.0427057534       -0.0001506237        0.0000000000
        0.0214833211        0.0369089559       -0.0000000000
       -0.0212224332        0.0370595796       -0.0000000000
       -0.0427057534        0.0001506237       -0.0000000000
       -0.0214833211       -0.0369089559       -0.0000000000
        0.0212224332       -0.0370595796       -0.0000000000
  vibration                      4
        0.0000000000       -0.0000286600        0.0336949963
        0.0000248203       -0.0000143300       -0.0336949961
        0.0000248203        0.0000143300        0.0336949961
       -0.0000000000        0.0000286600       -0.0336949963
       -0.0000248203        0.0000143300        0.0336949961
       -0.0000248203       -0.0000143300       -0.0336949961
        0.0000000000       -0.0000356806        0.0630581100
        0.0000309003       -0.0000178403       -0.0630581102
        0.0000309003        0.0000178403        0.0630581102
        0.0000000000        0.0000356806       -0.0630581100
       -0.0000309003        0.0000178403        0.0630581102
       -0.0000309003       -0.0000178403       -0.0630581102
  vibration                      5
       -0.0000000000       -0.0000021274        0.0091801942
        0.0000018424       -0.0000010637       -0.0091801943
        0.0000018424        0.0000010637        0.0091801943
       -0.0000000000        0.0000021274       -0.0091801942
       -0.0000018424        0.0000010637        0.0091801943
       -0.0000018424       -0.0000010637       -0.0091801943
        0.0000000000       -0.0000393248       -0.0584080652
        0.0000340563       -0.0000196624        0.0584080653
        0.0000340563        0.0000196624       -0.0584080653
        0.0000000000        0.0000393248        0.0584080652
       -0.0000340563        0.0000196624       -0.0584080653
       -0.0000340563       -0.0000196624        0.0584080653
  vibration                      6
        0.0000000000       -0.0000157200        0.0000000000
        0.0000088697        0.0000000000        0.0496251738
        0.0000088697        0.0000000000        0.0496251738
       -0.0000000000        0.0000157200        0.0000000000
       -0.0000088697       -0.0000000000       -0.0496251738
       -0.0000088697        0.0000000000       -0.0496251738
       -0.0000000000       -0.0000157200        0.0000000000
        0.0000373272       -0.0000487335       -0.0279574768
        0.0000373272        0.0000487335       -0.0279574768
        0.0000000000        0.0000157200       -0.0000000000
       -0.0000373272        0.0000487335        0.0279574768
       -0.0000373272       -0.0000487335        0.0279574768
  vibration                      7
       -0.0000000000       -0.1712222329        0.0000000000
       -0.1058805055       -0.0126249916        0.0000000000
       -0.1058805055        0.0126249916        0.0000000000
       -0.0000000000        0.1712222329       -0.0000000000
        0.1058805055        0.0126249916        0.0000000000
        0.1058805055       -0.0126249916       -0.0000000000
       -0.0000000000       -0.1708227312        0.0000000000
       -0.0272276921        0.1228067256        0.0000000000
       -0.0272276921       -0.1228067256       -0.0000000000
       -0.0000000000        0.1708227312        0.0000000000
        0.0272276921       -0.1228067256        0.0000000000
        0.0272276921        0.1228067256       -0.0000000000
  vibration                      8
        0.0000000000       -0.0009374654       -0.0000000000
       -0.0176621287       -0.0296574830       -0.0000000000
       -0.0176621287        0.0296574830       -0.0000000000
       -0.0000000000        0.0009374654       -0.0000000000
        0.0176621287        0.0296574830       -0.0000000000
        0.0176621287       -0.0296574830       -0.0000000000
        0.0000000000       -0.0006225150        0.0000000000
       -0.1498439654       -0.2600671868       -0.0000000000
       -0.1498439654        0.2600671868       -0.0000000000
        0.0000000000        0.0006225150        0.0000000000
        0.1498439654        0.2600671868       -0.0000000000
        0.1498439654       -0.2600671868        0.0000000000
  vibration                      9
       -0.0000000000       -0.0332357578        0.0000000000
        0.0171189052        0.0628161178       -0.0000000000
        0.0171189052       -0.0628161178        0.0000000000
       -0.0000000000        0.0332357578       -0.0000000000
       -0.0171189052       -0.0628161178       -0.0000000000
       -0.0171189052        0.0628161178        0.0000000000
       -0.0000000000       -0.0389609574        0.0000000000
       -0.0592621447       -0.0641117538        0.0000000000
       -0.0592621447        0.0641117538       -0.0000000000
        0.0000000000        0.0389609574       -0.0000000000
        0.0592621447        0.0641117538        0.0000000000
        0.0592621447       -0.0641117538       -0.0000000000
  vibration                     10
        0.0000000000       -0.0137242248       -0.0000000000
       -0.0056002201        0.0040201926       -0.0000000000
       -0.0056002201       -0.0040201926        0.0000000000
       -0.0000000000        0.0137242248       -0.0000000000
        0.0056002201       -0.0040201926       -0.0000000000
        0.0056002201        0.0040201926        0.0000000000
       -0.0000000000        0.1591671566       -0.0000000000
        0.0685266506       -0.0404797180       -0.0000000000
        0.0685266506        0.0404797180        0.0000000000
        0.0000000000       -0.1591671566       -0.0000000000
       -0.0685266506        0.0404797180       -0.0000000000
       -0.0685266506       -0.0404797180        0.0000000000
  vibration                     11
        0.0000000000        0.0000000000        0.0526538205
       -0.0000000000        0.0000000000        0.0526538205
       -0.0000000000       -0.0000000000        0.0526538205
       -0.0000000000       -0.0000000000        0.0526538205
        0.0000000000       -0.0000000000        0.0526538205
        0.0000000000        0.0000000000        0.0526538205
        0.0000000000       -0.0000903004       -0.0526538201
        0.0000782024       -0.0000451502       -0.0526538208
        0.0000782024        0.0000451502       -0.0526538208
        0.0000000000        0.0000903004       -0.0526538201
       -0.0000782024        0.0000451502       -0.0526538208
       -0.0000782024       -0.0000451502       -0.0526538208
  vibration                     12
        0.0000000000        0.0767455233        0.0000000000
        0.0666572767       -0.0384845966       -0.0000000000
       -0.0664635731       -0.0383727618        0.0000000000
       -0.0000000000        0.0769691930       -0.0000000000
        0.0664635731       -0.0383727618       -0.0000000000
       -0.0666572767       -0.0384845966        0.0000000000
        0.0000000000        0.0762548720        0.0000000000
        0.0662323603       -0.0382392707        0.0000000000
       -0.0660386567       -0.0381274358       -0.0000000000
        0.0000000000        0.0764785416        0.0000000000
        0.0660386567       -0.0381274358        0.0000000000
       -0.0662323603       -0.0382392707       -0.0000000000
  vibration                     13
        0.0000000000        0.0094362399        0.0000000000
        0.0081749445       -0.0047198064       -0.0000000000
       -0.0081720235       -0.0047181200        0.0000000000
       -0.0000000000        0.0094396127        0.0000000000
        0.0081720235       -0.0047181200       -0.0000000000
       -0.0081749445       -0.0047198064        0.0000000000
       -0.0000000000       -0.1130994653       -0.0000000000
       -0.0979440891        0.0565480463        0.0000000000
        0.0979470100        0.0565497327       -0.0000000000
       -0.0000000000       -0.1130960925       -0.0000000000
       -0.0979470100        0.0565497327        0.0000000000
        0.0979440891        0.0565480463       -0.0000000000
  vibration                     14
       -0.0614539218       -0.0000000000       -0.0000000000
        0.0307269608        0.0532206574       -0.0000000000
        0.0307269608       -0.0532206574        0.0000000000
       -0.0614539218        0.0000000000       -0.0000000000
        0.0307269608        0.0532206574       -0.0000000000
        0.0307269608       -0.0532206574        0.0000000000
       -0.1518729945       -0.0000665718        0.0000000000
        0.0759941502        0.1314925856        0.0000000000
        0.0759941502       -0.1314925856       -0.0000000000
       -0.1518729945        0.0000665718       -0.0000000000
        0.0758788444        0.1315591574        0.0000000000
        0.0758788444       -0.1315591574       -0.0000000000
  vibration                     15
       -0.0281968076       -0.0000000000        0.0000000000
        0.0140984040        0.0244191518       -0.0000000000
        0.0140984040       -0.0244191518        0.0000000000
       -0.0281968076        0.0000000000        0.0000000000
        0.0140984040        0.0244191518        0.0000000000
        0.0140984040       -0.0244191518       -0.0000000000
        0.1358521539       -0.0002191368       -0.0000000000
       -0.0677362991       -0.1177609853        0.0000000000
       -0.0677362991        0.1177609853        0.0000000000
        0.1358521539        0.0002191368        0.0000000000
       -0.0681158552       -0.1175418485        0.0000000000
       -0.0681158552        0.1175418485        0.0000000000
  vibration                     16
       -0.0000000000       -0.1380517404        0.0000000000
        0.0576252612       -0.0383884167       -0.0000000000
       -0.0575165751       -0.0383047503        0.0000000000
       -0.0000000000       -0.1380726572        0.0000000000
        0.0575165751       -0.0383047503       -0.0000000000
       -0.0576252612       -0.0383884167        0.0000000000
       -0.0000000000       -0.1450106271        0.0000000000
        0.1880887058        0.1795712534        0.0000000000
       -0.1870844812        0.1802051978        0.0000000000
        0.0000000000       -0.1450315438        0.0000000000
        0.1870844812        0.1802051978        0.0000000000
       -0.1880887058        0.1795712534        0.0000000000
  vibration                     17
       -0.0000000000        0.0191664966       -0.0000000000
        0.0326863427        0.0757337308       -0.0000000000
       -0.0326513453        0.0757606718        0.0000000000
       -0.0000000000        0.0191597613        0.0000000000
        0.0326513453        0.0757606718       -0.0000000000
       -0.0326863427        0.0757337308        0.0000000000
        0.0000000000        0.0115933773        0.0000000000
       -0.0590225109       -0.0912748174        0.0000000000
        0.0595810754       -0.0909727238       -0.0000000000
        0.0000000000        0.0115866421       -0.0000000000
       -0.0595810754       -0.0909727238        0.0000000000
        0.0590225109       -0.0912748174       -0.0000000000
  vibration                     18
        0.0000000000       -0.0501603658       -0.0000000000
        0.0066502453       -0.0386437565       -0.0000000000
       -0.0066487954       -0.0386426404        0.0000000000
        0.0000000000       -0.0501606449       -0.0000000000
        0.0066487954       -0.0386426404       -0.0000000000
       -0.0066502453       -0.0386437565        0.0000000000
        0.0000000000        0.1223484047       -0.0000000000
       -0.0691667629        0.0025460225        0.0000000000
        0.0691651452        0.0025526146       -0.0000000000
        0.0000000000        0.1223481256       -0.0000000000
       -0.0691651452        0.0025526146        0.0000000000
        0.0691667629        0.0025460225        0.0000000000
  vibration                     19
       -0.0000000000       -0.0000062893        0.0000000000
        0.0000574204       -0.0000528722        0.0647227294
        0.0000574204        0.0000528722       -0.0647227294
       -0.0000000000        0.0000062893       -0.0000000000
       -0.0000574204        0.0000528722        0.0647227294
       -0.0000574204       -0.0000528722       -0.0647227294
        0.0000000000       -0.0000062893        0.0000000000
        0.0000766375       -0.0001163574        0.1418080179
        0.0000766375        0.0001163574       -0.1418080179
        0.0000000000        0.0000062893       -0.0000000000
       -0.0000766375        0.0001163574        0.1418080179
       -0.0000766375       -0.0001163574       -0.1418080179
  vibration                     20
       -0.0000000000       -0.0000151637       -0.0000000000
       -0.0000062875       -0.0000021367       -0.0130112156
       -0.0000062875        0.0000021367        0.0130112156
       -0.0000000000        0.0000151637       -0.0000000000
        0.0000062875        0.0000021367       -0.0130112156
        0.0000062875       -0.0000021367        0.0130112156
        0.0000000000       -0.0000151637       -0.0000000000
        0.0000502608       -0.0000183364        0.0707083230
        0.0000502608        0.0000183364       -0.0707083230
        0.0000000000        0.0000151637        0.0000000000
       -0.0000502608        0.0000183364        0.0707083230
       -0.0000502608       -0.0000183364       -0.0707083230
