
    -----------------------------------------------------------------------
          Psi4: An Open-Source Ab Initio Electronic Structure Package
                               Psi4 1.4a2.dev629 

                         Git: Rev {master} 2938fc2 dirty


    D. G. A. Smith, L. A. Burns, A. C. Simmonett, R. M. Parrish,
    M. C. Schieber, R. Galvelis, P. Kraus, H. Kruse, R. Di Remigio,
    A. Alenaizan, A. M. James, S. Lehtola, J. P. Misiewicz, M. Scheurer,
    R. A. Shaw, J. B. Schriber, Y. Xie, Z. L. Glick, D. A. Sirianni,
    J. S. O'Brien, J. M. Waldrop, A. Kumar, E. G. Hohenstein,
    B. P. Pritchard, B. R. Brooks, H. F. Schaefer III, A. Yu. Sokolov,
    K. Patkowski, A. E. DePrince III, U. Bozkaya, R. A. King,
    F. A. Evangelista, J. M. Turney, T. D. Crawford, C. D. Sherrill,
    J. Chem. Phys. 152(18) 184108 (2020). https://doi.org/10.1063/5.0006002

                            Additional Code Authors
    E. T. Seidl, C. L. Janssen, E. F. Valeev, M. L. Leininger,
    J. F. Gonthier, R. M. Richard, H. R. McAlexander, M. Saitow, X. Wang,
    P. Verma, and M. H. Lechner

             Previous Authors, Complete List of Code Contributors,
                       and Citations for Specific Modules
    https://github.com/psi4/psi4/blob/master/codemeta.json
    https://github.com/psi4/psi4/graphs/contributors
    http://psicode.org/psi4manual/master/introduction.html#citing-psifour

    -----------------------------------------------------------------------


    Psi4 started on: Wednesday, 21 September 2022 04:35PM

    Process ID: 12898
    Host:       n054
    PSIDATADIR: /opt/psi/4/master/share/psi4
    Memory:     500.0 MiB
    Threads:    1
    
  ==> Input File <==

--------------------------------------------------------------------------
# o-Benzyne preliminary computations

memory 14 gb

molecule {
  0 1
  units bohr
 C   -1.3757718088   -0.0233062860    0.0000003883
 O    1.3049761808    0.1240762561    0.0000002375
 H   -2.0799228375    1.9099208458   -0.0000797355
 H   -2.1089956131   -0.9788520815    1.6819853789
 H   -2.1089882200   -0.9789836184   -1.6819133017
 H    1.9449781386   -1.5829872361   -0.0000013774
}

set {
  basis cc-pvtz
  reference rhf
  e_convergence 10 
  d_convergence 10
  r_convergence 8
  maxiter 300
  freeze_core True
}

e, wfn = energy('ccsd(t)', return_wfn = True)
psi4.print_out('Giraffe The Energy is %.12f \n'%(e))
--------------------------------------------------------------------------

  Memory set to  13.039 GiB by Python driver.

Scratch directory: /tmp/

*** tstart() called on n054
*** at Wed Sep 21 16:35:22 2022

   => Loading Basis Set <=

    Name: CC-PVTZ
    Role: ORBITAL
    Keyword: BASIS
    atoms 1   entry C          line   186 file /opt/psi/4/master/share/psi4/basis/cc-pvtz.gbs 
    atoms 2   entry O          line   262 file /opt/psi/4/master/share/psi4/basis/cc-pvtz.gbs 
    atoms 3-6 entry H          line    23 file /opt/psi/4/master/share/psi4/basis/cc-pvtz.gbs 


         ---------------------------------------------------------
                                   SCF
               by Justin Turney, Rob Parrish, Andy Simmonett
                          and Daniel G. A. Smith
                              RHF Reference
                        1 Threads,  13351 MiB Core
         ---------------------------------------------------------

  ==> Geometry <==

    Molecular point group: c1
    Full point group: C1

    Geometry (in Bohr), charge = 0, multiplicity = 1:

       Center              X                  Y                   Z               Mass       
    ------------   -----------------  -----------------  -----------------  -----------------
         C           -1.375045233669    -0.025218773614     0.000000408534    12.000000000000
         O            1.305702755931     0.122163768486     0.000000257734    15.994914619570
         H           -2.079196262369     1.908008358186    -0.000079715266     1.007825032230
         H           -2.108269037969    -0.980764569114     1.681985399134     1.007825032230
         H           -2.108261644869    -0.980896106014    -1.681913281466     1.007825032230
         H            1.945704713731    -1.584899723714    -0.000001357166     1.007825032230

  Running in c1 symmetry.

  Rotational constants: A =      4.27307  B =      0.82701  C =      0.79761 [cm^-1]
  Rotational constants: A = 128103.37064  B =  24793.23619  C =  23911.62342 [MHz]
  Nuclear repulsion =   40.281711857510707

  Charge       = 0
  Multiplicity = 1
  Electrons    = 18
  Nalpha       = 9
  Nbeta        = 9

  ==> Algorithm <==

  SCF Algorithm Type is PK.
  DIIS enabled.
  MOM disabled.
  Fractional occupation disabled.
  Guess Type is SAD.
  Energy threshold   = 1.00e-10
  Density threshold  = 1.00e-10
  Integral threshold = 0.00e+00

  ==> Primary Basis <==

  Basis Set: CC-PVTZ
    Blend: CC-PVTZ
    Number of shells: 44
    Number of basis function: 116
    Number of Cartesian functions: 130
    Spherical Harmonics?: true
    Max angular momentum: 3

  ==> Integral Setup <==

  Using in-core PK algorithm.
   Calculation information:
      Number of atoms:                   6
      Number of AO shells:              44
      Number of primitives:             84
      Number of atomic orbitals:       130
      Number of basis functions:       116

      Integral cutoff                 1.00e-12
      Number of threads:                 1

  Performing in-core PK
  Using 46056582 doubles for integral storage.
  We computed 490463 shell quartets total.
  Whereas there are 490545 unique shell quartets.

  ==> DiskJK: Disk-Based J/K Matrices <==

    J tasked:                  Yes
    K tasked:                  Yes
    wK tasked:                  No
    Memory [MiB]:            10013
    Schwarz Cutoff:          1E-12

    OpenMP threads:              1

  Minimum eigenvalue in the overlap matrix is 1.8515045187E-03.
  Reciprocal condition number of the overlap matrix is 2.8009454344E-04.
    Using symmetric orthogonalization.

  ==> Pre-Iterations <==

  SCF Guess: Superposition of Atomic Densities via on-the-fly atomic UHF (no occupation information).

   -------------------------
    Irrep   Nso     Nmo    
   -------------------------
     A        116     116 
   -------------------------
    Total     116     116
   -------------------------

  ==> Iterations <==

                        Total Energy        Delta E     RMS |[F,P]|

   @RHF iter SAD:  -114.41109339676714   -1.14411e+02   0.00000e+00 
   @RHF iter   1:  -115.01407162525064   -6.02978e-01   3.41137e-03 DIIS
   @RHF iter   2:  -115.07096088663313   -5.68893e-02   1.95999e-03 DIIS
   @RHF iter   3:  -115.08790368383964   -1.69428e-02   3.01687e-04 DIIS
   @RHF iter   4:  -115.08879476749004   -8.91084e-04   8.84206e-05 DIIS
   @RHF iter   5:  -115.08886957035445   -7.48029e-05   2.16400e-05 DIIS
   @RHF iter   6:  -115.08887456471120   -4.99436e-06   4.83749e-06 DIIS
   @RHF iter   7:  -115.08887495056641   -3.85855e-07   1.12895e-06 DIIS
   @RHF iter   8:  -115.08887497344837   -2.28820e-08   2.31707e-07 DIIS
   @RHF iter   9:  -115.08887497439848   -9.50109e-10   4.31638e-08 DIIS
   @RHF iter  10:  -115.08887497442986   -3.13776e-11   1.12937e-08 DIIS
   @RHF iter  11:  -115.08887497443209   -2.23110e-12   2.30209e-09 DIIS
   @RHF iter  12:  -115.08887497443216   -7.10543e-14   4.07466e-10 DIIS
   @RHF iter  13:  -115.08887497443203    1.27898e-13   7.51864e-11 DIIS
  Energy and wave function converged.


  ==> Post-Iterations <==

    Orbital Energies [Eh]
    ---------------------

    Doubly Occupied:                                                      

       1A    -20.553123     2A    -11.269673     3A     -1.352929  
       4A     -0.922565     5A     -0.686844     6A     -0.617570  
       7A     -0.589876     8A     -0.501693     9A     -0.448988  

    Virtual:                                                              

      10A      0.138210    11A      0.178260    12A      0.220196  
      13A      0.223782    14A      0.290482    15A      0.386908  
      16A      0.404547    17A      0.543377    18A      0.582544  
      19A      0.623054    20A      0.624978    21A      0.637692  
      22A      0.689656    23A      0.703287    24A      0.720772  
      25A      0.832563    26A      0.864783    27A      0.871107  
      28A      0.928377    29A      1.067887    30A      1.100170  
      31A      1.177470    32A      1.189247    33A      1.261011  
      34A      1.273654    35A      1.281787    36A      1.365531  
      37A      1.445989    38A      1.491601    39A      1.521789  
      40A      1.544408    41A      1.583511    42A      1.613518  
      43A      1.773007    44A      2.090599    45A      2.179744  
      46A      2.197075    47A      2.299682    48A      2.325089  
      49A      2.490089    50A      2.511409    51A      2.578141  
      52A      2.804699    53A      2.947914    54A      3.055099  
      55A      3.108605    56A      3.113787    57A      3.144904  
      58A      3.221259    59A      3.242251    60A      3.312658  
      61A      3.313580    62A      3.342444    63A      3.383679  
      64A      3.498492    65A      3.612419    66A      3.631465  
      67A      3.698422    68A      3.705039    69A      3.743059  
      70A      3.759162    71A      3.813862    72A      3.835592  
      73A      3.902240    74A      4.008327    75A      4.028051  
      76A      4.115910    77A      4.155959    78A      4.167245  
      79A      4.243551    80A      4.253275    81A      4.282776  
      82A      4.396871    83A      4.432604    84A      4.459844  
      85A      4.553437    86A      4.577836    87A      4.708301  
      88A      4.778589    89A      4.991050    90A      5.018044  
      91A      5.049902    92A      5.196589    93A      5.262571  
      94A      5.308567    95A      5.365969    96A      5.434672  
      97A      5.538794    98A      5.541295    99A      5.557649  
     100A      5.783042   101A      5.941201   102A      6.187336  
     103A      6.201493   104A      6.242345   105A      6.422930  
     106A      6.633402   107A      6.978888   108A      7.121663  
     109A      7.158464   110A      7.236829   111A      7.352563  
     112A      7.419621   113A      7.595983   114A      7.897430  
     115A     12.080008   116A     13.686440  

    Final Occupation by Irrep:
              A 
    DOCC [     9 ]

  @RHF Final Energy:  -115.08887497443203

   => Energetics <=

    Nuclear Repulsion Energy =             40.2817118575107074
    One-Electron Energy =                -236.8546519709098845
    Two-Electron Energy =                  81.4840651389671393
    Total Energy =                       -115.0888749744320307

Computation Completed


Properties will be evaluated at   0.000000,   0.000000,   0.000000 [a0]

Properties computed using the SCF density matrix

  Nuclear Dipole Moment: [e a0]
     X:    -2.1547      Y:    -0.8126      Z:    -0.0000

  Electronic Dipole Moment: [e a0]
     X:     1.7691      Y:     0.2224      Z:     0.0000

  Dipole Moment: [e a0]
     X:    -0.3856      Y:    -0.5901      Z:    -0.0000     Total:     0.7050

  Dipole Moment: [D]
     X:    -0.9801      Y:    -1.5000      Z:    -0.0000     Total:     1.7918


*** tstop() called on n054 at Wed Sep 21 16:35:25 2022
Module time:
	user time   =       3.27 seconds =       0.05 minutes
	system time =       0.03 seconds =       0.00 minutes
	total time  =          3 seconds =       0.05 minutes
Total time:
	user time   =       3.27 seconds =       0.05 minutes
	system time =       0.03 seconds =       0.00 minutes
	total time  =          3 seconds =       0.05 minutes
 MINTS: Wrapper to libmints.
   by Justin Turney

   Calculation information:
      Number of threads:                 1
      Number of atoms:                   6
      Number of AO shells:              44
      Number of SO shells:              44
      Number of primitives:             84
      Number of atomic orbitals:       130
      Number of basis functions:       116

      Number of irreps:                  1
      Integral cutoff                 0.00e+00
      Number of functions per irrep: [ 116 ]

 OEINTS: Overlap, kinetic, potential, dipole, and quadrupole integrals
         stored in file 35.

      Computing two-electron integrals...done
      Computed 22873705 non-zero two-electron integrals.
        Stored in file 33.


*** tstart() called on n054
*** at Wed Sep 21 16:35:27 2022


	Wfn Parameters:
	--------------------
	Wavefunction         = CCSD_T
	Number of irreps     = 1
	Number of MOs        = 116
	Number of active MOs = 114
	AO-Basis             = NONE
	Semicanonical        = false
	Reference            = RHF
	Print Level          = 1

	IRREP	# MOs	# FZDC	# DOCC	# SOCC	# VIRT	# FZVR
	-----	-----	------	------	------	------	------
	 A	   116	    2	    7	    0	    107	    0
	Transforming integrals...
	IWL integrals will be deleted.
	(OO|OO)...
	Presorting SO-basis two-electron integrals.
	Sorting File: SO Ints (nn|nn) nbuckets = 1
	Transforming the one-electron integrals and constructing Fock matrices
	Starting first half-transformation.
	Sorting half-transformed integrals.
	First half integral transformation complete.
	Starting second half-transformation.
	Two-electron integral transformation complete.
	(OO|OV)...
	Starting second half-transformation.
	Two-electron integral transformation complete.
	(OO|VV)...
	Starting second half-transformation.
	Two-electron integral transformation complete.
	(OV|OO)...
	Starting first half-transformation.
	Sorting half-transformed integrals.
	First half integral transformation complete.
	Starting second half-transformation.
	Two-electron integral transformation complete.
	(OV|OV)...
	Starting second half-transformation.
	Two-electron integral transformation complete.
	(OV|VV)...
	Starting second half-transformation.
	Two-electron integral transformation complete.
	(VV|OO)...
	Starting first half-transformation.
	Sorting half-transformed integrals.
	First half integral transformation complete.
	Starting second half-transformation.
	Two-electron integral transformation complete.
	(VV|OV)...
	Starting second half-transformation.
	Two-electron integral transformation complete.
	(VV|VV)...
	Starting second half-transformation.
	Two-electron integral transformation complete.
	Frozen core energy     =   -106.48362519755986

	Size of irrep 0 of <ab|cd> integrals:    131.080 (MW) /   1048.637 (MB)
	Total:                                   131.080 (MW) /   1048.637 (MB)

	Size of irrep 0 of <ia|bc> integrals:      8.575 (MW) /     68.602 (MB)
	Total:                                     8.575 (MW) /     68.602 (MB)

	Size of irrep 0 of tijab amplitudes:       0.561 (MW) /      4.488 (MB)
	Total:                                     0.561 (MW) /      4.488 (MB)

	Nuclear Rep. energy          =     40.28171185751071
	SCF energy                   =   -115.08887497443203
	One-electron energy          =    -87.53299465067806
	Two-electron energy          =     38.64603301629496
	Reference energy             =   -115.08887497443226

*** tstop() called on n054 at Wed Sep 21 16:35:37 2022
Module time:
	user time   =       7.60 seconds =       0.13 minutes
	system time =       2.57 seconds =       0.04 minutes
	total time  =         10 seconds =       0.17 minutes
Total time:
	user time   =      12.41 seconds =       0.21 minutes
	system time =       2.77 seconds =       0.05 minutes
	total time  =         15 seconds =       0.25 minutes
            **************************
            *                        *
            *        CCENERGY        *
            *                        *
            **************************

    Nuclear Rep. energy (wfn)     =   40.281711857510707
    SCF energy          (wfn)     = -115.088874974432031
    Reference energy    (file100) = -115.088874974432258

    Input parameters:
    -----------------
    Wave function   =     CCSD_T
    Reference wfn   =     RHF
    Brueckner       =     No
    Memory (Mbytes) =     14000.0
    Maxiter         =    300
    R_Convergence   =     1.0e-08
    E_Convergence   =     1.0e-10
    Restart         =     Yes
    DIIS            =     Yes
    AO Basis        =     NONE
    ABCD            =     NEW
    Cache Level     =     2
    Cache Type      =     LOW
    Print Level     =     1
    Num. of threads =     1
    # Amps to Print =     10
    Print MP2 Amps? =     No
    Analyze T2 Amps =     No
    Print Pair Ener =     No
    Local CC        =     No
    SCS-MP2         =     False
    SCSN-MP2        =     False
    SCS-CCSD        =     False

MP2 correlation energy -0.4285485939758082
                Solving CC Amplitude Equations
                ------------------------------
  Iter             Energy              RMS        T1Diag      D1Diag    New D1Diag    D2Diag
  ----     ---------------------    ---------   ----------  ----------  ----------   --------
     0        -0.428548593975808    0.000e+00    0.000000    0.000000    0.000000    0.128454
     1        -0.435769714106733    4.793e-02    0.007323    0.014820    0.014820    0.129783
     2        -0.445631421023941    1.581e-02    0.007440    0.014753    0.014753    0.135574
     3        -0.447112236679709    5.555e-03    0.008350    0.016924    0.016924    0.137037
     4        -0.447020493872957    1.228e-03    0.008411    0.017032    0.017032    0.137271
     5        -0.447063883931149    4.498e-04    0.008451    0.017181    0.017181    0.137372
     6        -0.447071441504891    1.300e-04    0.008462    0.017240    0.017240    0.137379
     7        -0.447068911360700    4.832e-05    0.008465    0.017257    0.017257    0.137376
     8        -0.447068938517621    1.781e-05    0.008467    0.017267    0.017267    0.137376
     9        -0.447069018632247    5.015e-06    0.008467    0.017269    0.017269    0.137376
    10        -0.447068765941986    1.585e-06    0.008467    0.017270    0.017270    0.137375
    11        -0.447068832141146    4.940e-07    0.008467    0.017270    0.017270    0.137375
    12        -0.447068817164500    1.215e-07    0.008467    0.017270    0.017270    0.137375
    13        -0.447068820722208    4.415e-08    0.008467    0.017270    0.017270    0.137375
    14        -0.447068821954015    1.247e-08    0.008467    0.017270    0.017270    0.137375
    15        -0.447068821994105    5.198e-09    0.008467    0.017270    0.017270    0.137375
    16        -0.447068822017931    1.594e-09    0.008467    0.017270    0.017270    0.137375

    Iterations converged.


    Largest TIA Amplitudes:
              3   6        -0.0081495945
              3  14         0.0076340006
              6  14        -0.0067716933
              3   9         0.0067179194
              5   8         0.0058186739
              4   3        -0.0057903289
              4   7         0.0057253502
              6   6         0.0055119779
              3   2         0.0054886673
              4   5        -0.0051688595

    Largest TIjAb Amplitudes:
      3   3   9   9        -0.0231330104
      6   6  14  14        -0.0211261183
      4   4   7   7        -0.0208872581
      5   5  12  12        -0.0203898130
      2   2   7   7        -0.0195395904
      4   4   8   8        -0.0167321550
      5   5   7   7        -0.0151809798
      3   3  14  14        -0.0151738752
      3   3   2   9        -0.0151165050
      3   3   9   2        -0.0151165050

    SCF energy       (wfn)                    = -115.088874974432031
    Reference energy (file100)                = -115.088874974432258

    Opposite-spin MP2 correlation energy      =   -0.330295211301150
    Same-spin MP2 correlation energy          =   -0.098253382674658
    Singles MP2 correlation energy            =   -0.000000000000000
    MP2 correlation energy                    =   -0.428548593975808
      * MP2 total energy                      = -115.517423568408063

    Opposite-spin CCSD correlation energy     =   -0.357892450627825
    Same-spin CCSD correlation energy         =   -0.089176371390105
    Singles CCSD correlation energy           =    0.000000000000000
    CCSD correlation energy                   =   -0.447068822017931
      * CCSD total energy                     = -115.535943796450184

            **************************
            *                        *
            *        CCTRIPLES       *
            *                        *
            **************************


    Wave function   =    CCSD_T
    Reference wfn   =      RHF

    Nuclear Rep. energy (wfn)                =   40.281711857510707
    SCF energy          (wfn)                = -115.088874974432031
    Reference energy    (file100)            = -115.088874974432258
    CCSD energy         (file100)            =   -0.447068822017931
    Total CCSD energy   (file100)            = -115.535943796450184

    Number of ijk index combinations:               84
    Memory available in words        :      1750000000
    ~Words needed per explicit thread:         4900172
    Number of threads for explicit ijk threading:    1

    MKL num_threads set to 1 for explicit threading.

    (T) energy                                =   -0.014816267648424
      * CCSD(T) total energy                  = -115.550760064098611

Giraffe The Energy is -115.550760064099 

    Psi4 stopped on: Wednesday, 21 September 2022 04:36PM
    Psi4 wall time for execution: 0:00:43.55

*** Psi4 exiting successfully. Buy a developer a beer!
