
 Working directory              : /scratch/mel64643/tmp/40073229/
 Global scratch directory       : /scratch/mel64643/tmp/40073229/
 Wavefunction directory         : /home/mel64643/wfu/
 Main file repository           : /scratch/mel64643/tmp/40073229/

 id        : ccgc

 Nodes     nprocs
 a1-8         3
 Distribution of processes:   nprocs(total)=    4   nprocs(compute)=    3   nprocs(helper)=    1
 GA implementation: MPI file
 GA implementation (serial work in mppx): MPI file

 Using customized tuning parameters: mindgm=1; mindgv=20; mindgc=4; mindgr=1; noblas=0; minvec=7
 default implementation of scratch files=sf  


 Variables initialized (1015), CPU time= 0.01 sec
 ***,Optimization of min3
 memory,1000,m
 gthresh,energy=1.0d-12,orbital=1.0d-10,oneint=1.0d-16,twoint=1.0d-16,optgrad=1.0d-6,compress=1.0d-13
 geomtyp=xyz
 
  bohr
  geometry = {
  6
  arbitrary comment
  C   -1.3707008718   -0.0234145301    0.0000001895
  O    1.3043377201    0.1194717196    0.0000004341
  H   -2.0814133247    1.9207793369   -0.0000803459
  H   -2.1087341844   -0.9840701939    1.6730422945
  H   -2.1087272412   -0.9842007153   -1.6729696866
  H    1.9415137421   -1.5786977373   -0.0000012956
 }
 
 basis=cc-pvdz
 {rhf;maxit,200}
 {ccsd(t);maxit,200}
 Commands initialized (818), CPU time= 0.01 sec, 672 directives.
 Default parameters read. Elapsed time= 0.09 sec

 Checking input...
 Passed
1


                                         ***  PROGRAM SYSTEM MOLPRO  ***
                                       Copyright, TTI GmbH Stuttgart, 2015
                                    Version 2022.1 linked Mar  4 2022 00:40:14


 **********************************************************************************************************************************
 LABEL *   Optimization of min3                                                          
  64 bit mpp version                                                                     DATE: 07-Aug-25          TIME: 21:24:55  
 **********************************************************************************************************************************

 SHA1:             31073afc4d8441e10870424e0d77336a33bc4286
 **********************************************************************************************************************************

 Memory per process:      1000 MW
 Total memory per node:   3000 MW

 GA preallocation disabled
 GA check disabled

 Variable memory set to 1000.0 MW


 THRESHOLDS:

 ZERO    =  1.00D-12  ONEINT  =  1.00D-16  TWOINT  =  1.00D-16  PREFAC  =  1.00D-14  XXXXXX  =  1.00D-09  EORDER  =  1.00D-04
 ENERGY  =  1.00D-12  ETEST   =  0.00D+00  EDENS   =  0.00D+00  THRDEDEF=  1.00D-06  GRADIENT=  1.00D-05  STEP    =  1.00D-03
 ORBITAL =  1.00D-10  CIVEC   =  1.00D-05  COEFF   =  1.00D-04  PRINTCI =  5.00D-02  PUNCHCI =  9.90D+01  OPTGRAD =  1.00D-06
 OPTENERG=  1.00D-06  OPTSTEP =  3.00D-04  THRGRAD =  1.00D-10  COMPRESS=  1.00D-13  VARMIN  =  1.00D-07  VARMAX  =  1.00D-03
 THRDOUB =  0.00D+00  THRDIV  =  1.00D-05  THRRED  =  1.00D-07  THRPSP  =  1.00D+00  THRDC   =  1.00D-10  THRCS   =  1.00D-10
 THRNRM  =  1.00D-08  THREQ   =  0.00D+00  THRDE   =  1.00D+00  THRREF  =  1.00D-05  SPARFAC =  1.00D+00  THRDLP  =  1.00D-07
 THRDIA  =  1.00D-10  THRDLS  =  1.00D-07  THRGPS  =  0.00D+00  THRKEX  =  0.00D+00  THRDIS  =  2.00D-01  THRVAR  =  1.00D-10
 THRLOC  =  1.00D-06  THRGAP  =  1.00D-06  THRLOCT = -1.00D+00  THRGAPT = -1.00D+00  THRORB  =  1.00D-06  THRMLTP =  0.00D+00
 THRCPQCI=  1.00D-10  KEXTA   =  0.00D+00  THRCOARS=  0.00D+00  SYMTOL  =  1.00D-06  GRADTOL =  1.00D-06  THROVL  =  1.00D-08
 THRORTH =  1.00D-08  THRDLOVL= -1.00D+00  GRID    =  1.00D-06  GRIDMAX =  1.00D-03  DTMAX   =  0.00D+00  THROCCDE=  1.00D-01
 THROCCDE=  1.00D-01  THRPRINT=  2.50D-01

 SETTING GEOMTYP        =    XYZ
 ZUNIT=BOHR

 SETTING BASIS          =    CC-PVDZ


 Recomputing integrals since basis changed


 Using spherical harmonics

 Library entry C      S cc-pVDZ              selected for orbital group  1
 Library entry C      P cc-pVDZ              selected for orbital group  1
 Library entry C      D cc-pVDZ              selected for orbital group  1
 Library entry O      S cc-pVDZ              selected for orbital group  2
 Library entry O      P cc-pVDZ              selected for orbital group  2
 Library entry O      D cc-pVDZ              selected for orbital group  2
 Library entry H      S cc-pVDZ              selected for orbital group  3
 Library entry H      P cc-pVDZ              selected for orbital group  3


 PROGRAM * SEWARD (Integral evaluation for generally contracted gaussian basis sets)     Author: Roland Lindh, 1990

 Geometry written to block  1 of record 700


 Point group  C1  



 ATOMIC COORDINATES

 NR  ATOM    CHARGE       X              Y              Z

   1  C       6.00   -1.370700872   -0.023414530    0.000000189
   2  O       8.00    1.304337720    0.119471720    0.000000434
   3  H       1.00   -2.081413325    1.920779337   -0.000080346
   4  H       1.00   -2.108734184   -0.984070194    1.673042295
   5  H       1.00   -2.108727241   -0.984200715   -1.672969687
   6  H       1.00    1.941513742   -1.578697737   -0.000001296

 Bond lengths in Bohr (Angstrom)

 1-2  2.678851983  1-3  2.070024635  1-4  2.065580393  1-5  2.065580118  2-6  1.813773080
     ( 1.417587421)     ( 1.095409863)     ( 1.093058071)     ( 1.093057925)     ( 0.959807380)

 Bond angles

  1-2-6  107.50923814   2-1-3  107.02267876   2-1-4  112.43273917   2-1-5  112.43275235

  3-1-4  108.31039454   3-1-5  108.31024492   4-1-5  108.18107764

 NUCLEAR CHARGE:                   18
 NUMBER OF PRIMITIVE AOS:          82
 NUMBER OF SYMMETRY AOS:           80
 NUMBER OF CONTRACTIONS:           48   (   48A   )
 NUMBER OF INNER CORE ORBITALS:     0   (    0A   )
 NUMBER OF OUTER CORE ORBITALS:     2   (    2A   )
 NUMBER OF VALENCE ORBITALS:       12   (   12A   )


 NUCLEAR REPULSION ENERGY   40.34022235

 Eigenvalues of metric

         1 0.967E-02 0.176E-01 0.371E-01 0.372E-01 0.383E-01 0.475E-01 0.477E-01 0.522E-01


 Contracted 2-electron integrals neglected if value below      1.0D-16
 AO integral compression algorithm  1   Integral accuracy      1.0D-16

     6.816 MB (compressed) written to integral file ( 98.5%)

     Node minimum: 2.097 MB, node maximum: 2.359 MB


 NUMBER OF SORTED TWO-ELECTRON INTEGRALS:     231084.     BUFFER LENGTH:  32768
 NUMBER OF SEGMENTS:   1  SEGMENT LENGTH:     231084      RECORD LENGTH: 524288

 Memory used in sort:       0.79 MW

 SORT1 READ      832256. AND WROTE      227682. INTEGRALS IN      1 RECORDS. CPU TIME:     0.01 SEC, REAL TIME:     0.02 SEC
 SORT2 READ      682149. AND WROTE      692076. INTEGRALS IN     27 RECORDS. CPU TIME:     0.01 SEC, REAL TIME:     0.02 SEC

 Node minimum:      230300.  Node maximum:      231084. integrals

 OPERATOR DM      FOR CENTER  0  COORDINATES:    0.000000    0.000000    0.000000


 **********************************************************************************************************************************
 DATASETS  * FILE   NREC   LENGTH (MB)   RECORD NAMES
              1      18       28.73       500      610      700      900      950      970     1000      129      960     1100   
                                          VAR    BASINP    GEOM    SYMINP    ZMAT    AOBASIS   BASIS     P2S    ABASIS      S 
                                         1400     1410     1200     1210     1080     1600     1650     1700   
                                           T        V       H0       H01     AOSYM     SMH    MOLCAS    OPER   

 PROGRAMS   *        TOTAL       INT
 CPU TIMES  *         0.40      0.28
 REAL TIME  *         1.22 SEC
 DISK USED  *        29.07 MB (local),      104.32 MB (total)
 GA USED    *         0.00 MB       (max)       0.00 MB       (current)
 **********************************************************************************************************************************


 Program * Restricted Hartree-Fock

 Orbital guess generated from atomic densities. Full valence occupancy:   14

 Initial occupancy:   9

 NELEC=   18   SYM=1   MS2= 0   THRE=1.0D-12   THRD=1.0D-10   THRG=1.0D-10  HFMA2=F  DIIS_START=2   DIIS_MAX=10   DIIS_INCORE=F

 Level shifts:    0.00 (CLOSED)    0.00 (OPEN)    0.30 (GAP_MIN)

 ITER           ETOT              DE          GRAD        DDIFF     DIIS  NEXP   TIME(IT)  TIME(TOT)  DIAG
   1     -115.01433047    -115.01433047     0.00D+00     0.16D+00     0     0       0.00      0.00    start
   2     -115.04266640      -0.02833593     0.10D-01     0.20D-01     1     0       0.00      0.00    diag
   3     -115.04866308      -0.00599668     0.48D-02     0.64D-02     2     0       0.01      0.01    diag
   4     -115.04912678      -0.00046370     0.10D-02     0.20D-02     3     0       0.00      0.01    diag
   5     -115.04914777      -0.00002099     0.18D-03     0.43D-03     4     0       0.00      0.01    diag
   6     -115.04914857      -0.00000080     0.32D-04     0.93D-04     5     0       0.01      0.02    diag
   7     -115.04914860      -0.00000003     0.67D-05     0.15D-04     6     0       0.00      0.02    diag
   8     -115.04914860      -0.00000000     0.22D-05     0.51D-05     7     0       0.00      0.02    fixocc
   9     -115.04914861      -0.00000000     0.45D-06     0.14D-05     8     0       0.01      0.03    diag
  10     -115.04914861      -0.00000000     0.74D-07     0.24D-06     9     0       0.00      0.03    diag/orth
  11     -115.04914861       0.00000000     0.18D-07     0.49D-07     9     0       0.00      0.03    diag
  12     -115.04914861      -0.00000000     0.45D-08     0.14D-07     9     0       0.01      0.04    diag
  13     -115.04914861       0.00000000     0.67D-09     0.19D-08     9     0       0.00      0.04    diag
  14     -115.04914861       0.00000000     0.15D-09     0.39D-09     9     0       0.00      0.04    diag
  15     -115.04914861      -0.00000000     0.61D-10     0.11D-09     9     0       0.00      0.04    diag
  16     -115.04914861       0.00000000     0.13D-10     0.32D-10     9     0       0.00      0.04    diag
  17     -115.04914861      -0.00000000     0.23D-11     0.45D-11     0     0       0.01      0.05    diag

 Final occupancy:   9

 !RHF STATE 1.1 Energy               -115.049148605025
  RHF One-electron energy            -236.940104870289
  RHF Two-electron energy              81.550733913992
  RHF Kinetic energy                  114.943338043625
  RHF Nuclear energy                   40.340222351272
  RHF Virial quotient                  -1.000920545403

 !RHF STATE 1.1 Dipole moment          -0.38738556    -0.59772556    -0.00000284
 Dipole moment /Debye                  -0.98463587    -1.51926683    -0.00000723

 Orbital energies:

           1.1          2.1          3.1          4.1          5.1          6.1          7.1          8.1          9.1         10.1
    -20.550185   -11.274798    -1.351060    -0.920855    -0.684022    -0.613827    -0.585053    -0.496749    -0.442769     0.184453

          11.1
      0.224146


 HOMO      9.1    -0.442769 =     -12.0484eV
 LUMO     10.1     0.184453 =       5.0192eV
 LUMO-HOMO         0.627222 =      17.0676eV

 Orbitals saved in record  2100.2


 **********************************************************************************************************************************
 DATASETS  * FILE   NREC   LENGTH (MB)   RECORD NAMES
              1      18       28.73       500      610      700      900      950      970     1000      129      960     1100   
                                          VAR    BASINP    GEOM    SYMINP    ZMAT    AOBASIS   BASIS     P2S    ABASIS      S 
                                         1400     1410     1200     1210     1080     1600     1650     1700   
                                           T        V       H0       H01     AOSYM     SMH    MOLCAS    OPER   

              2       4        0.47       700     1000      520     2100   
                                         GEOM     BASIS   MCVARS     RHF  

 PROGRAMS   *        TOTAL   RHF-SCF       INT
 CPU TIMES  *         0.45      0.05      0.28
 REAL TIME  *         1.43 SEC
 DISK USED  *        29.40 MB (local),      105.31 MB (total)
 GA USED    *         0.00 MB       (max)       0.00 MB       (current)
 **********************************************************************************************************************************


 PROGRAM * CCSD (Closed-shell coupled cluster)     Authors: C. Hampel, H.-J. Werner, 1991, M. Deegan, P.J. Knowles, 1992


 Convergence thresholds:  THRVAR = 1.00D-08  THRDEN = 1.00D-12

 CCSD(T)     terms to be evaluated (factor= 1.000)


 Number of core orbitals:           2 (   2 )
 Number of closed-shell orbitals:   7 (   7 )
 Number of external orbitals:      39 (  39 )

 Molecular orbitals read from record     2100.2  Type=RHF/CANONICAL  

 Number of N-1 electron functions:               7
 Number of N-2 electron functions:              28
 Number of singly external CSFs:               273
 Number of doubly external CSFs:             37401
 Total number of CSFs:                       37675

 Length of J-op  integral file:               0.00 MB
 Length of K-op  integral file:               0.16 MB
 Length of 3-ext integral record:             0.00 MB

 Memory could be reduced to 0.73 Mwords without degradation in triples

 Integral transformation finished. Total CPU:   0.02 sec, npass=  1  Memory used:   0.66 MW

 Reference energy:                   -115.04914861

 MP2 singlet pair energy:              -0.21862396
 MP2 triplet pair energy:              -0.11983942
 MP2 correlation energy:               -0.33846338
 MP2 total energy:                   -115.38761198

 SCS-MP2 correlation energy:           -0.33691550   (PS=  1.200000  PT=  0.333333)
 SCS-MP2 total energy:               -115.38606410

 ITER.      SQ.NORM     CORR.ENERGY   TOTAL ENERGY   ENERGY CHANGE        DEN1      VAR(S)    VAR(P)  DIIS     TIME  TIME/IT
   1      1.10731784    -0.36127211  -115.41042071    -0.02280873    -0.01413498  0.91D-03  0.17D-02  1  1     0.04     0.04
   2      1.11584153    -0.36321770  -115.41236631    -0.00194560    -0.00924720  0.20D-04  0.16D-03  2  2     0.06     0.03
   3      1.11771993    -0.36334493  -115.41249354    -0.00012723    -0.00120212  0.94D-05  0.86D-05  3  3     0.08     0.03
   4      1.11823394    -0.36334368  -115.41249228     0.00000125    -0.00025448  0.33D-06  0.67D-06  4  4     0.10     0.03
   5      1.11833166    -0.36334410  -115.41249271    -0.00000043    -0.00003589  0.98D-07  0.49D-07  5  5     0.12     0.03
   6      1.11835060    -0.36334276  -115.41249136     0.00000134    -0.00000435  0.16D-07  0.41D-08  6  6     0.14     0.03
   7      1.11835531    -0.36334234  -115.41249095     0.00000042    -0.00000035  0.20D-08  0.71D-09  6  1     0.16     0.03
   8      1.11835656    -0.36334245  -115.41249105    -0.00000010     0.00000074  0.26D-09  0.71D-10  6  3     0.18     0.03
   9      1.11835762    -0.36334232  -115.41249093     0.00000012    -0.00000038  0.13D-10  0.10D-10  6  2     0.20     0.03
  10      1.11835755    -0.36334232  -115.41249093    -0.00000000     0.00000007  0.11D-11  0.87D-12  6  5     0.22     0.03
  11      1.11835758    -0.36334232  -115.41249093     0.00000000    -0.00000000  0.19D-12  0.50D-13  6  4     0.23     0.03
  12      1.11835756    -0.36334232  -115.41249093    -0.00000000     0.00000001  0.19D-13  0.10D-13  6  1     0.25     0.03
  13      1.11835757    -0.36334232  -115.41249093    -0.00000000    -0.00000000  0.23D-14  0.93D-15  6  6     0.27     0.03
  14      1.11835757    -0.36334232  -115.41249093     0.00000000    -0.00000000  0.22D-15  0.12D-15  6  3     0.29     0.03
  15      1.11835757    -0.36334232  -115.41249093    -0.00000000    -0.00000000  0.25D-16  0.16D-16  6  2     0.31     0.03
  16      1.11835757    -0.36334232  -115.41249093    -0.00000000    -0.00000000  0.55D-17  0.16D-17  6  5     0.33     0.03
  17      1.11835757    -0.36334232  -115.41249093    -0.00000000    -0.00000000  0.53D-18  0.25D-18  6  4     0.35     0.03
  18      1.11835757    -0.36334232  -115.41249093     0.00000000    -0.00000000  0.82D-19  0.42D-19  6  1     0.37     0.03
  19      1.11835757    -0.36334232  -115.41249093    -0.00000000    -0.00000000  0.92D-20  0.42D-20  6  6     0.39     0.03
  20      1.11835757    -0.36334232  -115.41249093     0.00000000     0.00000000  0.13D-20  0.55D-21  6  3     0.42     0.03

 Norm of t1 vector:      0.04158227      S-energy:    -0.00000000      T1 diagnostic:  0.00785831
                                                                       D1 diagnostic:  0.01736030
                                                                       D2 diagnostic:  0.13449024 (internal)


 Total CPU time for triples:      0.08 sec


 RESULTS
 =======

  Reference energy                   -115.049148605025
  CCSD singlet pair energy             -0.254575473299
  CCSD triplet pair energy             -0.108766851128
  CCSD correlation energy              -0.363342324427

  Triples (T) contribution             -0.007731915376
  Total correlation energy             -0.371074239803

  CCSD total energy                  -115.412490929452
  CCSD[T] energy                     -115.420512097689
  CCSD-T energy                      -115.420073281656
 !CCSD(T) total energy               -115.420222844828

 Timing summary (sec):

 STEP                 CPU(USER)    SYS     CPU(TOT)    WALL
 Transformation          0.02      0.01      0.03      0.03
 CCSD iterations         0.40      0.05      0.45      0.60
 Triples                 0.08      0.00      0.08      0.09

 Program statistics:

 Available memory in ccsd:               999999795
 Min. memory needed in ccsd:                136177
 Max. memory used in ccsd:                  162910
 Max. memory used in cckext:                178997 (20 integral passes)



 **********************************************************************************************************************************
 DATASETS  * FILE   NREC   LENGTH (MB)   RECORD NAMES
              1      19       31.13       500      610      700      900      950      970     1000      129      960     1100   
                                          VAR    BASINP    GEOM    SYMINP    ZMAT    AOBASIS   BASIS     P2S    ABASIS      S 
                                         1400     1410     1200     1210     1080     1600     1650     1700     1380   
                                           T        V       H0       H01     AOSYM     SMH    MOLCAS    OPER     JKOP   

              2       4        0.47       700     1000      520     2100   
                                         GEOM     BASIS   MCVARS     RHF  

 PROGRAMS   *        TOTAL   CCSD(T)   RHF-SCF       INT
 CPU TIMES  *         0.99      0.54      0.05      0.28
 REAL TIME  *         2.23 SEC
 DISK USED  *        35.56 MB (local),      115.96 MB (total)
 SF USED    *         5.97 MB
 GA USED    *         0.00 MB       (max)       0.00 MB       (current)
 **********************************************************************************************************************************

 CCSD(T)/cc-pVDZ energy=   -115.420222844828

         CCSD(T)         RHF-SCF
   -115.42022284   -115.04914861
 **********************************************************************************************************************************
 Molpro calculation terminated
