
    -----------------------------------------------------------------------
          Psi4: An Open-Source Ab Initio Electronic Structure Package
                               Psi4 1.4a2.dev629 

                         Git: Rev {master} 2938fc2 dirty


    D. G. A. Smith, L. A. Burns, A. C. Simmonett, R. M. Parrish,
    M. C. Schieber, R. Galvelis, P. Kraus, H. Kruse, R. Di Remigio,
    A. Alenaizan, A. M. James, S. Lehtola, J. P. Misiewicz, M. Scheurer,
    R. A. Shaw, J. B. Schriber, Y. Xie, Z. L. Glick, D. A. Sirianni,
    J. S. O'Brien, J. M. Waldrop, A. Kumar, E. G. Hohenstein,
    B. P. Pritchard, B. R. Brooks, H. F. Schaefer III, A. Yu. Sokolov,
    K. Patkowski, A. E. DePrince III, U. Bozkaya, R. A. King,
    F. A. Evangelista, J. M. Turney, T. D. Crawford, C. D. Sherrill,
    J. Chem. Phys. 152(18) 184108 (2020). https://doi.org/10.1063/5.0006002

                            Additional Code Authors
    E. T. Seidl, C. L. Janssen, E. F. Valeev, M. L. Leininger,
    J. F. Gonthier, R. M. Richard, H. R. McAlexander, M. Saitow, X. Wang,
    P. Verma, and M. H. Lechner

             Previous Authors, Complete List of Code Contributors,
                       and Citations for Specific Modules
    https://github.com/psi4/psi4/blob/master/codemeta.json
    https://github.com/psi4/psi4/graphs/contributors
    http://psicode.org/psi4manual/master/introduction.html#citing-psifour

    -----------------------------------------------------------------------


    Psi4 started on: Monday, 06 September 2021 06:16PM

    Process ID: 16237
    Host:       n016
    PSIDATADIR: /opt/psi/4/master/share/psi4
    Memory:     500.0 MiB
    Threads:    1
    
  ==> Input File <==

--------------------------------------------------------------------------
# o-Benzyne preliminary computations

memory 14 gb

molecule {
  0 1
  units bohr
 H    0.0000000000   -1.4167936973    0.9969121606
 O    0.0000000000    0.0000000000   -0.1274807012
 H    0.0000000000    1.4167936973    0.9969121606
}

set {
  basis cc-pvdz
  reference rhf
  e_convergence 10 
  d_convergence 10
  r_convergence 8
  maxiter 300
  freeze_core True
}

e, wfn = energy('ccsd(t)', return_wfn = True)
psi4.print_out('Giraffe The Energy is %.12f \n'%(e))
--------------------------------------------------------------------------

  Memory set to  13.039 GiB by Python driver.

Scratch directory: /tmp/

*** tstart() called on n016
*** at Mon Sep  6 18:16:38 2021

   => Loading Basis Set <=

    Name: CC-PVDZ
    Role: ORBITAL
    Keyword: BASIS
    atoms 1, 3 entry H          line    22 file /opt/psi/4/master/share/psi4/basis/cc-pvdz.gbs 
    atoms 2    entry O          line   198 file /opt/psi/4/master/share/psi4/basis/cc-pvdz.gbs 


         ---------------------------------------------------------
                                   SCF
               by Justin Turney, Rob Parrish, Andy Simmonett
                          and Daniel G. A. Smith
                              RHF Reference
                        1 Threads,  13351 MiB Core
         ---------------------------------------------------------

  ==> Geometry <==

    Molecular point group: c2v
    Full point group: C2v

    Geometry (in Bohr), charge = 0, multiplicity = 1:

       Center              X                  Y                   Z               Mass       
    ------------   -----------------  -----------------  -----------------  -----------------
         H            0.000000000000    -1.416793697300     0.998556577146     1.007825032230
         O            0.000000000000     0.000000000000    -0.125836284654    15.994914619570
         H           -0.000000000000     1.416793697300     0.998556577146     1.007825032230

  Running in c2v symmetry.

  Rotational constants: A =     26.60041  B =     14.87873  C =      9.54167 [cm^-1]
  Rotational constants: A = 797460.24284  B = 446053.10271  C = 286052.10943 [MHz]
  Nuclear repulsion =    9.198814980739428

  Charge       = 0
  Multiplicity = 1
  Electrons    = 10
  Nalpha       = 5
  Nbeta        = 5

  ==> Algorithm <==

  SCF Algorithm Type is PK.
  DIIS enabled.
  MOM disabled.
  Fractional occupation disabled.
  Guess Type is SAD.
  Energy threshold   = 1.00e-10
  Density threshold  = 1.00e-10
  Integral threshold = 0.00e+00

  ==> Primary Basis <==

  Basis Set: CC-PVDZ
    Blend: CC-PVDZ
    Number of shells: 12
    Number of basis function: 24
    Number of Cartesian functions: 25
    Spherical Harmonics?: true
    Max angular momentum: 2

  ==> Integral Setup <==

  Using in-core PK algorithm.
   Calculation information:
      Number of atoms:                   3
      Number of AO shells:              12
      Number of primitives:             32
      Number of atomic orbitals:        25
      Number of basis functions:        24

      Integral cutoff                 1.00e-12
      Number of threads:                 1

  Performing in-core PK
  Using 90300 doubles for integral storage.
  We computed 3081 shell quartets total.
  Whereas there are 3081 unique shell quartets.

  ==> DiskJK: Disk-Based J/K Matrices <==

    J tasked:                  Yes
    K tasked:                  Yes
    wK tasked:                  No
    Memory [MiB]:            10013
    Schwarz Cutoff:          1E-12

    OpenMP threads:              1

  Minimum eigenvalue in the overlap matrix is 3.2293425131E-02.
  Reciprocal condition number of the overlap matrix is 1.0242344097E-02.
    Using symmetric orthogonalization.

  ==> Pre-Iterations <==

  SCF Guess: Superposition of Atomic Densities via on-the-fly atomic UHF (no occupation information).

   -------------------------
    Irrep   Nso     Nmo    
   -------------------------
     A1        11      11 
     A2         2       2 
     B1         4       4 
     B2         7       7 
   -------------------------
    Total      24      24
   -------------------------

  ==> Iterations <==

                        Total Energy        Delta E     RMS |[F,P]|

   @RHF iter SAD:   -75.51329686645968   -7.55133e+01   0.00000e+00 
   @RHF iter   1:   -75.95383253397733   -4.40536e-01   3.03339e-02 DIIS
   @RHF iter   2:   -76.00724663935280   -5.34141e-02   1.73490e-02 DIIS
   @RHF iter   3:   -76.02636751828398   -1.91209e-02   1.58003e-03 DIIS
   @RHF iter   4:   -76.02675012124473   -3.82603e-04   3.62824e-04 DIIS
   @RHF iter   5:   -76.02676926027772   -1.91390e-05   6.62764e-05 DIIS
   @RHF iter   6:   -76.02677015312888   -8.92851e-07   1.03110e-05 DIIS
   @RHF iter   7:   -76.02677017660592   -2.34770e-08   1.34280e-06 DIIS
   @RHF iter   8:   -76.02677017700721   -4.01286e-10   3.11074e-07 DIIS
   @RHF iter   9:   -76.02677017703326   -2.60485e-11   5.86662e-08 DIIS
   @RHF iter  10:   -76.02677017703411   -8.52651e-13   4.80828e-09 DIIS
   @RHF iter  11:   -76.02677017703411    0.00000e+00   8.41992e-10 DIIS
   @RHF iter  12:   -76.02677017703419   -8.52651e-14   4.78686e-11 DIIS
  Energy and wave function converged.


  ==> Post-Iterations <==

    Orbital Energies [Eh]
    ---------------------

    Doubly Occupied:                                                      

       1A1   -20.551163     2A1    -1.337858     1B2    -0.696689  
       3A1    -0.569441     1B1    -0.493656  

    Virtual:                                                              

       4A1     0.185293     2B2     0.256436     3B2     0.784693  
       5A1     0.860690     6A1     1.164691     2B1     1.200026  
       4B2     1.254739     7A1     1.431704     1A2     1.480921  
       3B1     1.666862     8A1     1.864268     5B2     1.943260  
       6B2     2.449490     9A1     2.493361     4B1     3.293021  
       2A2     3.333733    10A1     3.516034    11A1     3.855627  
       7B2     4.155515  

    Final Occupation by Irrep:
             A1    A2    B1    B2 
    DOCC [     3,    0,    1,    1 ]

  @RHF Final Energy:   -76.02677017703419

   => Energetics <=

    Nuclear Repulsion Energy =              9.1988149807394279
    One-Electron Energy =                -123.1535556540223837
    Two-Electron Energy =                  37.9279704962487756
    Total Energy =                        -76.0267701770341802

Computation Completed


Properties will be evaluated at   0.000000,   0.000000,   0.000000 [a0]

Properties computed using the SCF density matrix

  Nuclear Dipole Moment: [e a0]
     X:     0.0000      Y:     0.0000      Z:     0.9904

  Electronic Dipole Moment: [e a0]
     X:     0.0000      Y:     0.0000      Z:    -0.1732

  Dipole Moment: [e a0]
     X:     0.0000      Y:     0.0000      Z:     0.8172     Total:     0.8172

  Dipole Moment: [D]
     X:     0.0000      Y:     0.0000      Z:     2.0772     Total:     2.0772


*** tstop() called on n016 at Mon Sep  6 18:16:39 2021
Module time:
	user time   =       1.24 seconds =       0.02 minutes
	system time =       0.01 seconds =       0.00 minutes
	total time  =          1 seconds =       0.02 minutes
Total time:
	user time   =       1.24 seconds =       0.02 minutes
	system time =       0.01 seconds =       0.00 minutes
	total time  =          1 seconds =       0.02 minutes
 MINTS: Wrapper to libmints.
   by Justin Turney

   Calculation information:
      Number of threads:                 1
      Number of atoms:                   3
      Number of AO shells:              12
      Number of SO shells:               9
      Number of primitives:             32
      Number of atomic orbitals:        25
      Number of basis functions:        24

      Number of irreps:                  4
      Integral cutoff                 0.00e+00
      Number of functions per irrep: [  11    2    4    7 ]

 OEINTS: Overlap, kinetic, potential, dipole, and quadrupole integrals
         stored in file 35.

      Computing two-electron integrals...done
      Computed 11576 non-zero two-electron integrals.
        Stored in file 33.


*** tstart() called on n016
*** at Mon Sep  6 18:16:39 2021


	Wfn Parameters:
	--------------------
	Wavefunction         = CCSD_T
	Number of irreps     = 4
	Number of MOs        = 24
	Number of active MOs = 23
	AO-Basis             = NONE
	Semicanonical        = false
	Reference            = RHF
	Print Level          = 1

	IRREP	# MOs	# FZDC	# DOCC	# SOCC	# VIRT	# FZVR
	-----	-----	------	------	------	------	------
	 A1	   11	    1	    2	    0	    8	    0
	 A2	   2	    0	    0	    0	    2	    0
	 B1	   4	    0	    1	    0	    3	    0
	 B2	   7	    0	    1	    0	    6	    0
	Transforming integrals...
	IWL integrals will be deleted.
	(OO|OO)...
	Presorting SO-basis two-electron integrals.
	Sorting File: SO Ints (nn|nn) nbuckets = 1
	Transforming the one-electron integrals and constructing Fock matrices
	Starting first half-transformation.
	Sorting half-transformed integrals.
	First half integral transformation complete.
	Starting second half-transformation.
	Two-electron integral transformation complete.
	(OO|OV)...
	Starting second half-transformation.
	Two-electron integral transformation complete.
	(OO|VV)...
	Starting second half-transformation.
	Two-electron integral transformation complete.
	(OV|OO)...
	Starting first half-transformation.
	Sorting half-transformed integrals.
	First half integral transformation complete.
	Starting second half-transformation.
	Two-electron integral transformation complete.
	(OV|OV)...
	Starting second half-transformation.
	Two-electron integral transformation complete.
	(OV|VV)...
	Starting second half-transformation.
	Two-electron integral transformation complete.
	(VV|OO)...
	Starting first half-transformation.
	Sorting half-transformed integrals.
	First half integral transformation complete.
	Starting second half-transformation.
	Two-electron integral transformation complete.
	(VV|OV)...
	Starting second half-transformation.
	Two-electron integral transformation complete.
	(VV|VV)...
	Starting second half-transformation.
	Two-electron integral transformation complete.
	Frozen core energy     =    -61.31653853858913

	Size of irrep 0 of <ab|cd> integrals:      0.013 (MW) /      0.102 (MB)
	Size of irrep 1 of <ab|cd> integrals:      0.005 (MW) /      0.037 (MB)
	Size of irrep 2 of <ab|cd> integrals:      0.005 (MW) /      0.041 (MB)
	Size of irrep 3 of <ab|cd> integrals:      0.012 (MW) /      0.093 (MB)
	Total:                                     0.034 (MW) /      0.274 (MB)

	Size of irrep 0 of <ia|bc> integrals:      0.003 (MW) /      0.023 (MB)
	Size of irrep 1 of <ia|bc> integrals:      0.001 (MW) /      0.007 (MB)
	Size of irrep 2 of <ia|bc> integrals:      0.001 (MW) /      0.009 (MB)
	Size of irrep 3 of <ia|bc> integrals:      0.002 (MW) /      0.019 (MB)
	Total:                                     0.007 (MW) /      0.058 (MB)

	Size of irrep 0 of tijab amplitudes:       0.001 (MW) /      0.005 (MB)
	Size of irrep 1 of tijab amplitudes:       0.000 (MW) /      0.001 (MB)
	Size of irrep 2 of tijab amplitudes:       0.000 (MW) /      0.002 (MB)
	Size of irrep 3 of tijab amplitudes:       0.000 (MW) /      0.003 (MB)
	Total:                                     0.002 (MW) /      0.012 (MB)

	Nuclear Rep. energy          =      9.19881498073943
	SCF energy                   =    -76.02677017703419
	One-electron energy          =    -41.62280555618916
	Two-electron energy          =     17.71375893700463
	Reference energy             =    -76.02677017703424

*** tstop() called on n016 at Mon Sep  6 18:16:40 2021
Module time:
	user time   =       0.04 seconds =       0.00 minutes
	system time =       0.06 seconds =       0.00 minutes
	total time  =          1 seconds =       0.02 minutes
Total time:
	user time   =       1.38 seconds =       0.02 minutes
	system time =       0.07 seconds =       0.00 minutes
	total time  =          2 seconds =       0.03 minutes
            **************************
            *                        *
            *        CCENERGY        *
            *                        *
            **************************

    Nuclear Rep. energy (wfn)     =    9.198814980739428
    SCF energy          (wfn)     =  -76.026770177034194
    Reference energy    (file100) =  -76.026770177034237

    Input parameters:
    -----------------
    Wave function   =     CCSD_T
    Reference wfn   =     RHF
    Brueckner       =     No
    Memory (Mbytes) =     14000.0
    Maxiter         =    300
    R_Convergence   =     1.0e-08
    E_Convergence   =     1.0e-10
    Restart         =     Yes
    DIIS            =     Yes
    AO Basis        =     NONE
    ABCD            =     NEW
    Cache Level     =     2
    Cache Type      =     LOW
    Print Level     =     1
    Num. of threads =     1
    # Amps to Print =     10
    Print MP2 Amps? =     No
    Analyze T2 Amps =     No
    Print Pair Ener =     No
    Local CC        =     No
    SCS-MP2         =     False
    SCSN-MP2        =     False
    SCS-CCSD        =     False

MP2 correlation energy -0.2017612031951719
                Solving CC Amplitude Equations
                ------------------------------
  Iter             Energy              RMS        T1Diag      D1Diag    New D1Diag    D2Diag
  ----     ---------------------    ---------   ----------  ----------  ----------   --------
     0        -0.201761203195172    0.000e+00    0.000000    0.000000    0.000000    0.109577
     1        -0.206932168443657    2.662e-02    0.004509    0.008648    0.008648    0.116529
     2        -0.210880271658225    9.369e-03    0.005335    0.009962    0.009962    0.121866
     3        -0.211291230784741    2.425e-03    0.005815    0.010734    0.010734    0.123075
     4        -0.211302277982030    5.555e-04    0.005860    0.010906    0.010906    0.123272
     5        -0.211313365774856    1.631e-04    0.005885    0.011013    0.011013    0.123307
     6        -0.211311581216793    5.385e-05    0.005894    0.011056    0.011056    0.123300
     7        -0.211311366863731    1.463e-05    0.005897    0.011071    0.011071    0.123298
     8        -0.211311243909675    2.540e-06    0.005897    0.011072    0.011072    0.123298
     9        -0.211311198054659    6.132e-07    0.005897    0.011073    0.011073    0.123298
    10        -0.211311212244096    1.240e-07    0.005897    0.011073    0.011073    0.123298
    11        -0.211311210947635    2.634e-08    0.005897    0.011073    0.011073    0.123298
    12        -0.211311211360822    4.389e-09    0.005897    0.011073    0.011073    0.123298
    13        -0.211311211248691    9.537e-10    0.005897    0.011073    0.011073    0.123298
    14        -0.211311211241280    1.914e-10    0.005897    0.011073    0.011073    0.123298
    15        -0.211311211238471    5.254e-11    0.005897    0.011073    0.011073    0.123298

    Iterations converged.


    Largest TIA Amplitudes:
              1   0         0.0074270204
              3  17        -0.0073390393
              3  13         0.0060375683
              1   5        -0.0050155593
              3  15         0.0046041986
              0   2         0.0041971147
              0   0         0.0037181123
              2  11         0.0033104025
              2  10         0.0030617267
              1   1         0.0030132235

    Largest TIjAb Amplitudes:
      2   2  10  10        -0.0513937671
      3   3  14  14        -0.0361701202
      1   1   2   2        -0.0348435138
      3   3  13  13        -0.0295128991
      1   2   2  10         0.0283342537
      2   1  10   2         0.0283342537
      3   3   1   1        -0.0278141551
      1   1  14  14        -0.0257916948
      2   3  10  15         0.0229175413
      3   2  15  10         0.0229175413

    SCF energy       (wfn)                    =  -76.026770177034194
    Reference energy (file100)                =  -76.026770177034237

    Opposite-spin MP2 correlation energy      =   -0.151011152748215
    Same-spin MP2 correlation energy          =   -0.050750050446957
    Singles MP2 correlation energy            =   -0.000000000000000
    MP2 correlation energy                    =   -0.201761203195172
      * MP2 total energy                      =  -76.228531380229413

    Opposite-spin CCSD correlation energy     =   -0.165977856440109
    Same-spin CCSD correlation energy         =   -0.045333354798362
    Singles CCSD correlation energy           =    0.000000000000000
    CCSD correlation energy                   =   -0.211311211238471
      * CCSD total energy                     =  -76.238081388272704

            **************************
            *                        *
            *        CCTRIPLES       *
            *                        *
            **************************


    Wave function   =    CCSD_T
    Reference wfn   =      RHF

    Nuclear Rep. energy (wfn)                =    9.198814980739428
    SCF energy          (wfn)                =  -76.026770177034194
    Reference energy    (file100)            =  -76.026770177034237
    CCSD energy         (file100)            =   -0.211311211238471
    Total CCSD energy   (file100)            =  -76.238081388272704

    Number of ijk index combinations:               20
    Memory available in words        :      1750000000
    ~Words needed per explicit thread:            2048
    Number of threads for explicit ijk threading:    1

    MKL num_threads set to 1 for explicit threading.

    (T) energy                                =   -0.003047581368341
      * CCSD(T) total energy                  =  -76.241128969641053

Giraffe The Energy is -76.241128969641 

    Psi4 stopped on: Monday, 06 September 2021 06:16PM
    Psi4 wall time for execution: 0:00:05.70

*** Psi4 exiting successfully. Buy a developer a beer!
