
 Primary working directories    : /tmp/601556.22.gen4.q
 Secondary working directories  : /tmp/601556.22.gen4.q
 Wavefunction directory         : /home/vulcan/mel64643/wfu/
 Main file repository           : /tmp/601556.22.gen4.q/

 ARCHNAME  : Linux/x86_64
 FC        : /opt/intel/compilers_and_libraries_2016.1.150/linux/bin/intel64/ifort
 FCVERSION : 16.0.1
 BLASLIB   : -mkl
 id        : ccgc

 Nodes     nprocs
 n035         1
 ga_uses_ma=false, calling ma_init with nominal heap.
 GA-space will be limited to   8.0 MW (determined by -G option)

 Using customized tuning parameters: mindgm=10; mindgv=16; mindgc=4; mindgr=1; noblas=0; mincuda=1000; minvec=7
 default implementation of scratch files=df  

 ***,Optimization of min3
 memory,1000,m
 gthresh,energy=1.0d-12,orbital=1.0d-10,oneint=1.0d-16,twoint=1.0d-16,optgrad=1.0d-6,compress=1.0d-13
 geomtyp=xyz
 
  bohr
  geometry = {
  6
  arbitrary comment
  C   -1.3747740875   -0.0267242901   -0.0000001201
  O    1.3061470906    0.1197257960    0.0000000527
  H   -2.0809993291    1.9159424001   -0.0000792632
  H   -2.1079029088   -0.9802337731    1.6802183491
  H   -2.1078941266   -0.9803660288   -1.6801457575
  H    1.9416992014   -1.5784762242   -0.0000016711
 }
 
 basis=cc-pvtz
 {rhf;maxit,200}
 {ccsd(t);maxit,200}

 Variables initialized (661), CPU time= 0.00 sec
 Commands  initialized (458), CPU time= 0.01 sec, 486 directives.
 Default parameters read. Elapsed time= 0.06 sec

 Checking input...
 Passed
1


                                         ***  PROGRAM SYSTEM MOLPRO  ***
                         Copyright, University College Cardiff Consultants Limited, 2008

                                    Version 2010.1 linked May 16 2016 07:17:05


 **********************************************************************************************************************************
 LABEL *   Optimization of min3                                                          
 Linux-4.4.3/n035(x86_64) 64 bit mpp version                                             DATE: 06-Nov-21          TIME: 15:42:01  
 **********************************************************************************************************************************

 SHA1:             9e8077add272b0f3cad6f7df79ec5211205f459d
 **********************************************************************************************************************************

 THRESHOLDS:

 ZERO    =  1.00D-12  ONEINT  =  1.00D-16  TWOINT  =  1.00D-16  PREFAC  =  1.00D-14  LOCALI  =  1.00D-09  EORDER  =  1.00D-04
 ENERGY  =  1.00D-12  ETEST   =  0.00D+00  EDENS   =  0.00D+00  THRDEDEF=  1.00D-06  GRADIENT=  1.00D-02  STEP    =  1.00D-03
 ORBITAL =  1.00D-10  CIVEC   =  1.00D-05  COEFF   =  1.00D-04  PRINTCI =  5.00D-02  PUNCHCI =  9.90D+01  OPTGRAD =  1.00D-06
 OPTENERG=  1.00D-06  OPTSTEP =  3.00D-04  THRGRAD =  1.00D-10  COMPRESS=  1.00D-13  VARMIN  =  1.00D-07  VARMAX  =  1.00D-03
 THRDOUB =  0.00D+00  THRDIV  =  1.00D-05  THRRED  =  1.00D-07  THRPSP  =  1.00D+00  THRDC   =  1.00D-10  THRCS   =  1.00D-10
 THRNRM  =  1.00D-08  THREQ   =  0.00D+00  THRDE   =  1.00D+00  THRREF  =  1.00D-05  SPARFAC =  1.00D+00  THRDLP  =  1.00D-07
 THRDIA  =  1.00D-10  THRDLS  =  1.00D-07  THRGPS  =  0.00D+00  THRKEX  =  0.00D+00  THRDIS  =  2.00D-01  THRVAR  =  1.00D-10
 THRLOC  =  1.00D-06  THRGAP  =  1.00D-06  THRLOCT = -1.00D+00  THRGAPT = -1.00D+00  THRORB  =  1.00D-06  THRMLTP =  0.00D+00
 THRCPQCI=  1.00D-10  KEXTA   =  0.00D+00  THRCOARS=  0.00D+00  SYMTOL  =  1.00D-06  GRADTOL =  1.00D-06  THROVL  =  1.00D-08
 THRORTH =  1.00D-08  GRID    =  1.00D-06  GRIDMAX =  1.00D-03  DTMAX   =  0.00D+00

 SETTING GEOMTYP        =    XYZ
 ZUNIT=BOHR
 

 Variable memory set to 1000000000 words,  buffer space   230000 words

 SETTING BASIS          =    CC-PVTZ


 Recomputing integrals since basis changed


 Using spherical harmonics

 Library entry C      S cc-pVTZ              selected for orbital group  1
 Library entry C      P cc-pVTZ              selected for orbital group  1
 Library entry C      D cc-pVTZ              selected for orbital group  1
 Library entry C      F cc-pVTZ              selected for orbital group  1
 Library entry O      S cc-pVTZ              selected for orbital group  2
 Library entry O      P cc-pVTZ              selected for orbital group  2
 Library entry O      D cc-pVTZ              selected for orbital group  2
 Library entry O      F cc-pVTZ              selected for orbital group  2
 Library entry H      S cc-pVTZ              selected for orbital group  3
 Library entry H      P cc-pVTZ              selected for orbital group  3
 Library entry H      D cc-pVTZ              selected for orbital group  3

1PROGRAM * SEWARD (Integral evaluation for generally contracted gaussian basis sets)     Author: Roland Lindh, 1990

 Geometry written to block  1 of record 700


 Point group  C1  



 ATOMIC COORDINATES

 NR  ATOM    CHARGE       X              Y              Z

   1  C       6.00   -1.374774088   -0.026724290   -0.000000120
   2  O       8.00    1.306147091    0.119725796    0.000000053
   3  H       1.00   -2.080999329    1.915942400   -0.000079263
   4  H       1.00   -2.107902909   -0.980233773    1.680218349
   5  H       1.00   -2.107894127   -0.980366029   -1.680145758
   6  H       1.00    1.941699201   -1.578476224   -0.000001671

 Bond lengths in Bohr (Angstrom)

 1-2  2.684918247  1-3  2.067052967  1-4  2.066347577  1-5  2.066346273  2-6  1.813233738
     ( 1.420797544)     ( 1.093837320)     ( 1.093464043)     ( 1.093463354)     ( 0.959521968)

 Bond angles

  1-2-6  107.39158602   2-1-3  106.85114625   2-1-4  112.29875892   2-1-5  112.29873362

  3-1-4  108.20945442   3-1-5  108.20942651   4-1-5  108.80321979

 NUCLEAR CHARGE:                   18
 NUMBER OF PRIMITIVE AOS:         162
 NUMBER OF SYMMETRY AOS:          148
 NUMBER OF CONTRACTIONS:          116   ( 116A   )
 NUMBER OF CORE ORBITALS:           2   (   2A   )
 NUMBER OF VALENCE ORBITALS:       12   (  12A   )


 NUCLEAR REPULSION ENERGY   40.29896900


 Eigenvalues of metric

         1 0.134E-02 0.182E-02 0.190E-02 0.235E-02 0.330E-02 0.461E-02 0.738E-02 0.100E-01


 Contracted 2-electron integrals neglected if value below      1.0D-16
 AO integral compression algorithm  1   Integral accuracy      1.0D-16

     196.346 MB (compressed) written to integral file ( 92.1%)

     Node minimum: 196.346 MB, node maximum: 196.346 MB


 NUMBER OF SORTED TWO-ELECTRON INTEGRALS:   23028291.     BUFFER LENGTH:  32768
 NUMBER OF SEGMENTS:   2  SEGMENT LENGTH:   15997996      RECORD LENGTH: 524288

 Memory used in sort:      16.56 MW

 SORT1 READ    26631627. AND WROTE    22813185. INTEGRALS IN     67 RECORDS. CPU TIME:     0.25 SEC, REAL TIME:     0.41 SEC
 SORT2 READ    22813185. AND WROTE    23028291. INTEGRALS IN    749 RECORDS. CPU TIME:     0.22 SEC, REAL TIME:     0.33 SEC

 FILE SIZES:   FILE 1:   175.9 MBYTE,  FILE 4:   281.1 MBYTE,   TOTAL:    456.9 MBYTE

 OPERATOR DM      FOR CENTER  0  COORDINATES:    0.000000    0.000000    0.000000


 **********************************************************************************************************************************
 DATASETS  * FILE   NREC   LENGTH (MB)   RECORD NAMES
              1      19      176.02       500      610      700      900      950      970     1000      129      960     1100   
                                          VAR    BASINP    GEOM    SYMINP    ZMAT    AOBASIS   BASIS     P2S    ABASIS      S 
                                         1400     1410     1200     1210     1080     1600     1650     1300     1700   
                                           T        V       H0       H01     AOSYM     SMH    MOLCAS    ERIS     OPER   

 PROGRAMS   *        TOTAL       INT
 CPU TIMES  *         1.75      1.70
 REAL TIME  *         2.30 SEC
 DISK USED  *       653.90 MB      
 GA USED    *         0.00 MB       (max)       0.00 MB       (current)
 **********************************************************************************************************************************

1PROGRAM * RHF-SCF (CLOSED SHELL)       Authors: W. Meyer, H.-J. Werner


 NUMBER OF ELECTRONS:       9+    9-    SPACE SYMMETRY=1    SPIN SYMMETRY: Singlet 
 CONVERGENCE THRESHOLDS:    1.00E-10 (Density)    1.00E-13 (Energy)
 MAX. NUMBER OF ITERATIONS:      200
 INTERPOLATION TYPE:            DIIS
 INTERPOLATION STEPS:              2 (START)      1 (STEP)
 LEVEL SHIFTS:                  0.00 (CLOSED)  0.00 (OPEN) 



 Orbital guess generated from atomic densities. Full valence occupancy:   14

 Molecular orbital dump at record        2100.2

 ITERATION    DDIFF          GRAD             ENERGY        2-EL.EN.            DIPOLE MOMENTS         DIIS
    1      0.000D+00      0.000D+00      -115.05313165    164.420026   -0.48571   -0.90402   -0.00000    0
    2      0.000D+00      0.474D-02      -115.08143719    161.973277   -0.29761   -0.50272   -0.00000    1
    3      0.784D-02      0.254D-02      -115.08852652    163.142439   -0.38935   -0.60085   -0.00000    2
    4      0.257D-02      0.497D-03      -115.08903340    162.987130   -0.38245   -0.59516   -0.00000    3
    5      0.686D-03      0.981D-04      -115.08906433    162.994300   -0.38606   -0.59056   -0.00000    4
    6      0.186D-03      0.186D-04      -115.08906569    162.992822   -0.38646   -0.59058   -0.00000    5
    7      0.478D-04      0.392D-05      -115.08906575    162.991939   -0.38665   -0.59038   -0.00000    6
    8      0.911D-05      0.118D-05      -115.08906575    162.992396   -0.38668   -0.59035   -0.00000    7
    9      0.231D-05      0.322D-06      -115.08906575    162.992289   -0.38669   -0.59034   -0.00000    6
   10      0.765D-06      0.600D-07      -115.08906575    162.992300   -0.38669   -0.59034   -0.00000    6
   11      0.159D-06      0.151D-07      -115.08906575    162.992304   -0.38669   -0.59034   -0.00000    6
   12      0.299D-07      0.637D-08      -115.08906575    162.992302   -0.38669   -0.59034   -0.00000    7
   13      0.112D-07      0.172D-08      -115.08906575    162.992302   -0.38669   -0.59034   -0.00000    7
   14      0.348D-08      0.354D-09      -115.08906575    162.992302   -0.38669   -0.59034   -0.00000    7
   15      0.850D-09      0.907D-10      -115.08906575    162.992302   -0.38669   -0.59034   -0.00000    7
   16      0.184D-09      0.225D-10      -115.08906575    162.992302   -0.38669   -0.59034   -0.00000    7
   17      0.519D-10      0.727D-11      -115.08906575    162.992302   -0.38669   -0.59034   -0.00000    7
   18      0.144D-10      0.158D-11      -115.08906575    162.992302   -0.38669   -0.59034   -0.00000    7
   19      0.305D-11      0.505D-12      -115.08906575    162.992302   -0.38669   -0.59034   -0.00000    7
   20      0.114D-11      0.126D-12      -115.08906575    162.992302   -0.38669   -0.59034   -0.00000    7
   21      0.338D-12      0.481D-13      -115.08906575    162.992302   -0.38669   -0.59034   -0.00000    7
   22      0.135D-12      0.264D-13      -115.08906575    162.992302   -0.38669   -0.59034   -0.00000    8
   23      0.974D-13      0.175D-13      -115.08906575    162.992302   -0.38669   -0.59034   -0.00000    8
   24      0.507D-13      0.259D-13      -115.08906575    162.992302   -0.38669   -0.59034   -0.00000    0

 Final occupancy:   9

 !RHF STATE 1.1 Energy               -115.089065750492
 Nuclear energy                        40.29896900
 One-electron energy                 -236.88418575
 Two-electron energy                   81.49615100
 Virial quotient                       -1.00131936
 !RHF STATE 1.1 Dipole moment          -0.38668983    -0.59034230    -0.00000262
 Dipole moment /Debye                  -0.98280315    -1.50040217    -0.00000667

 Orbital energies:

         1.1          2.1          3.1          4.1          5.1          6.1          7.1          8.1          9.1         10.1
    -20.552675   -11.270041    -1.354142    -0.922742    -0.687957    -0.618024    -0.589381    -0.501639    -0.449341     0.138380

        11.1
      0.178561


 **********************************************************************************************************************************
 DATASETS  * FILE   NREC   LENGTH (MB)   RECORD NAMES
              1      19      176.02       500      610      700      900      950      970     1000      129      960     1100   
                                          VAR    BASINP    GEOM    SYMINP    ZMAT    AOBASIS   BASIS     P2S    ABASIS      S 
                                         1400     1410     1200     1210     1080     1600     1650     1300     1700   
                                           T        V       H0       H01     AOSYM     SMH    MOLCAS    ERIS     OPER   

              2       3        0.63       700     1000     2100   
                                         GEOM     BASIS     RHF  

 PROGRAMS   *        TOTAL       RHF       INT
 CPU TIMES  *         6.00      4.24      1.70
 REAL TIME  *         7.03 SEC
 DISK USED  *       653.90 MB      
 GA USED    *         0.00 MB       (max)       0.00 MB       (current)
 **********************************************************************************************************************************


1PROGRAM * CCSD (Closed-shell coupled cluster)     Authors: C. Hampel, H.-J. Werner, 1991, M. Deegan, P.J. Knowles, 1992


 Convergence thresholds:  THRVAR = 1.00D-08  THRDEN = 1.00D-12

 CCSD(T)     terms to be evaluated (factor= 1.000)


 Number of core orbitals:           2 (   2 )
 Number of closed-shell orbitals:   7 (   7 )
 Number of external orbitals:     107 ( 107 )

 Molecular orbitals read from record     2100.2  Type=RHF/CANONICAL (state 1.1)

 Number of N-1 electron functions:               7
 Number of N-2 electron functions:              28
 Number of singly external CSFs:               749
 Number of doubly external CSFs:            280875
 Total number of CSFs:                      281625

 Length of J-op  integral file:               0.00 MB
 Length of K-op  integral file:               0.96 MB
 Length of 3-ext integral record:             0.00 MB

 Memory could be reduced to 12.77 Mwords without degradation in triples

 Integral transformation finished. Total CPU:   0.72 sec, npass=  1  Memory used:   7.23 MW

 Reference energy:                   -115.08906575

 MP2 singlet pair energy:              -0.28104997
 MP2 triplet pair energy:              -0.14730591
 MP2 correlation energy:               -0.42835588
 MP2 total energy:                   -115.51742163

 SCS-MP2 correlation energy:           -0.42891697   (PS=  1.200000  PT=  0.333333)
 SCS-MP2 total energy:               -115.51798272

 ITER.      SQ.NORM     CORR.ENERGY   TOTAL ENERGY   ENERGY CHANGE        DEN1      VAR(S)    VAR(P)  DIIS     TIME
   1      1.11808214    -0.44564410  -115.53470986    -0.01728823    -0.00693158  0.12D-02  0.18D-02  1  1     1.60
   2      1.12597245    -0.44683106  -115.53589681    -0.00118696    -0.00945438  0.16D-04  0.22D-03  2  2     2.50
   3      1.12856910    -0.44690802  -115.53597377    -0.00007696    -0.00178630  0.75D-05  0.10D-04  3  3     3.41
   4      1.12921031    -0.44690950  -115.53597525    -0.00000147    -0.00033336  0.35D-06  0.84D-06  4  4     4.31
   5      1.12931587    -0.44691135  -115.53597710    -0.00000185    -0.00003996  0.11D-06  0.66D-07  5  5     5.23
   6      1.12934086    -0.44690919  -115.53597494     0.00000216    -0.00000746  0.18D-07  0.50D-08  6  6     6.14
   7      1.12934443    -0.44690910  -115.53597485     0.00000009    -0.00000027  0.26D-08  0.89D-09  6  2     7.05
   8      1.12934577    -0.44690905  -115.53597480     0.00000005     0.00000002  0.42D-09  0.11D-09  6  1     7.97
   9      1.12934651    -0.44690899  -115.53597474     0.00000005    -0.00000003  0.28D-10  0.17D-10  6  3     8.88
  10      1.12934658    -0.44690901  -115.53597476    -0.00000002     0.00000007  0.26D-11  0.19D-11  6  4     9.78
  11      1.12934645    -0.44690902  -115.53597477    -0.00000001     0.00000011  0.23D-12  0.12D-12  6  6    10.69
  12      1.12934643    -0.44690902  -115.53597477    -0.00000000     0.00000001  0.27D-13  0.11D-13  6  5    11.61
  13      1.12934643    -0.44690902  -115.53597477    -0.00000000    -0.00000000  0.56D-14  0.17D-14  6  2    12.52
  14      1.12934643    -0.44690902  -115.53597477     0.00000000    -0.00000000  0.44D-15  0.14D-15  6  1    13.43
  15      1.12934643    -0.44690902  -115.53597477    -0.00000000    -0.00000000  0.63D-16  0.28D-16  6  3    14.34
  16      1.12934643    -0.44690902  -115.53597477     0.00000000     0.00000000  0.18D-16  0.34D-17  6  4    15.26
  17      1.12934643    -0.44690902  -115.53597477    -0.00000000     0.00000000  0.12D-17  0.73D-18  6  5    16.17
  18      1.12934643    -0.44690902  -115.53597477    -0.00000000     0.00000000  0.93D-19  0.45D-19  6  6    17.08
  19      1.12934643    -0.44690902  -115.53597477     0.00000000    -0.00000000  0.19D-19  0.98D-20  6  2    18.00
  20      1.12934643    -0.44690902  -115.53597477     0.00000000    -0.00000000  0.13D-20  0.74D-21  6  1    18.90

 Norm of t1 vector:      0.04469648      S-energy:    -0.00000000      T1 diagnostic:  0.00844684
                                                                       D1 diagnostic:  0.01723974


 Total CPU time for triples:      9.34 sec


 RESULTS
 =======

  Reference energy                   -115.089065750492
  CCSD singlet pair energy             -0.313170286261
  CCSD triplet pair energy             -0.133738734506
  CCSD correlation energy              -0.446909020768

  Triples (T) contribution             -0.014795004287
  Total correlation energy             -0.461704025055

  CCSD total energy                  -115.535974771259
  CCSD[T] energy                     -115.551236426239
  CCSD-T energy                      -115.550503899434
 !CCSD(T) total energy               -115.550769775547

 Timing summary (sec):

 STEP                 CPU(USER)    SYS     CPU(TOT)    WALL
 Transformation          0.74      0.08      0.82      0.82
 CCSD iterations        18.16      0.72     18.88     18.94
 Triples                 9.34      0.11      9.45      9.45

 Program statistics:

 Available memory in ccsd:               999999704
 Min. memory needed in ccsd:                915605
 Max. memory used in ccsd:                 1141922
 Max. memory used in cckext:                874802 (20 integral passes)



 **********************************************************************************************************************************
 DATASETS  * FILE   NREC   LENGTH (MB)   RECORD NAMES
              1      20      215.42       500      610      700      900      950      970     1000      129      960     1100   
                                          VAR    BASINP    GEOM    SYMINP    ZMAT    AOBASIS   BASIS     P2S    ABASIS      S 
                                         1400     1410     1200     1210     1080     1600     1650     1300     1700     1380   
                                           T        V       H0       H01     AOSYM     SMH    MOLCAS    ERIS     OPER     JKOP   

              2       3        0.63       700     1000     2100   
                                         GEOM     BASIS     RHF  

 PROGRAMS   *        TOTAL   CCSD(T)       RHF       INT
 CPU TIMES  *        34.25     28.25      4.24      1.70
 REAL TIME  *        36.27 SEC
 DISK USED  *       653.90 MB      
 GA USED    *         0.00 MB       (max)       0.00 MB       (current)
 **********************************************************************************************************************************

        CCSD(T)         RHF-SCF 
   -115.55076978   -115.08906575
 **********************************************************************************************************************************
 Variable memory released
