
 Primary working directories    : /tmp/667822.1.gen6.q
 Secondary working directories  : /tmp/667822.1.gen6.q
 Wavefunction directory         : /home/vulcan/nlk36701/wfu/
 Main file repository           : /tmp/667822.1.gen6.q/

 ARCHNAME  : Linux/x86_64
 FC        : /opt/intel/compilers_and_libraries_2016.1.150/linux/bin/intel64/ifort
 FCVERSION : 16.0.1
 BLASLIB   : -mkl
 id        : ccgc

 Nodes     nprocs
 n084         1
 ga_uses_ma=false, calling ma_init with nominal heap.
 GA-space will be limited to   8.0 MW (determined by -G option)

 Using customized tuning parameters: mindgm=10; mindgv=16; mindgc=4; mindgr=1; noblas=0; mincuda=1000; minvec=7
 default implementation of scratch files=df  

 ***,Optimization of min3
 memory,1000,m
 gthresh,energy=1.0d-12,orbital=1.0d-10,oneint=1.0d-16,twoint=1.0d-16,optgrad=1.0d-6,compress=1.0d-13
 geomtyp=xyz
 
  bohr
  geometry = {
  3
  arbitrary comment
  H   -0.0000000000   -1.4246254000    0.9959240800
  O    0.0000000000    0.0000000000   -0.1255045400
  H   -0.0000000000    1.4246254000    0.9959240800
 }
 
 basis=cc-pvtz
 {rhf;maxit,200}
 {ccsd(t);maxit,200}

 Variables initialized (661), CPU time= 0.00 sec
 Commands  initialized (458), CPU time= 0.00 sec, 486 directives.
 Default parameters read. Elapsed time= 0.04 sec

 Checking input...
 Passed
1


                                         ***  PROGRAM SYSTEM MOLPRO  ***
                         Copyright, University College Cardiff Consultants Limited, 2008

                                    Version 2010.1 linked May 16 2016 07:17:05


 **********************************************************************************************************************************
 LABEL *   Optimization of min3                                                          
 Linux-4.4.3/n084(x86_64) 64 bit mpp version                                             DATE: 28-Mar-22          TIME: 11:16:00  
 **********************************************************************************************************************************

 SHA1:             9e8077add272b0f3cad6f7df79ec5211205f459d
 **********************************************************************************************************************************

 THRESHOLDS:

 ZERO    =  1.00D-12  ONEINT  =  1.00D-16  TWOINT  =  1.00D-16  PREFAC  =  1.00D-14  LOCALI  =  1.00D-09  EORDER  =  1.00D-04
 ENERGY  =  1.00D-12  ETEST   =  0.00D+00  EDENS   =  0.00D+00  THRDEDEF=  1.00D-06  GRADIENT=  1.00D-02  STEP    =  1.00D-03
 ORBITAL =  1.00D-10  CIVEC   =  1.00D-05  COEFF   =  1.00D-04  PRINTCI =  5.00D-02  PUNCHCI =  9.90D+01  OPTGRAD =  1.00D-06
 OPTENERG=  1.00D-06  OPTSTEP =  3.00D-04  THRGRAD =  1.00D-10  COMPRESS=  1.00D-13  VARMIN  =  1.00D-07  VARMAX  =  1.00D-03
 THRDOUB =  0.00D+00  THRDIV  =  1.00D-05  THRRED  =  1.00D-07  THRPSP  =  1.00D+00  THRDC   =  1.00D-10  THRCS   =  1.00D-10
 THRNRM  =  1.00D-08  THREQ   =  0.00D+00  THRDE   =  1.00D+00  THRREF  =  1.00D-05  SPARFAC =  1.00D+00  THRDLP  =  1.00D-07
 THRDIA  =  1.00D-10  THRDLS  =  1.00D-07  THRGPS  =  0.00D+00  THRKEX  =  0.00D+00  THRDIS  =  2.00D-01  THRVAR  =  1.00D-10
 THRLOC  =  1.00D-06  THRGAP  =  1.00D-06  THRLOCT = -1.00D+00  THRGAPT = -1.00D+00  THRORB  =  1.00D-06  THRMLTP =  0.00D+00
 THRCPQCI=  1.00D-10  KEXTA   =  0.00D+00  THRCOARS=  0.00D+00  SYMTOL  =  1.00D-06  GRADTOL =  1.00D-06  THROVL  =  1.00D-08
 THRORTH =  1.00D-08  GRID    =  1.00D-06  GRIDMAX =  1.00D-03  DTMAX   =  0.00D+00

 SETTING GEOMTYP        =    XYZ
 ZUNIT=BOHR
 

 Variable memory set to 1000000000 words,  buffer space   230000 words

 SETTING BASIS          =    CC-PVTZ


 Recomputing integrals since basis changed


 Using spherical harmonics

 Library entry H      S cc-pVTZ              selected for orbital group  1
 Library entry H      P cc-pVTZ              selected for orbital group  1
 Library entry H      D cc-pVTZ              selected for orbital group  1
 Library entry O      S cc-pVTZ              selected for orbital group  2
 Library entry O      P cc-pVTZ              selected for orbital group  2
 Library entry O      D cc-pVTZ              selected for orbital group  2
 Library entry O      F cc-pVTZ              selected for orbital group  2

1PROGRAM * SEWARD (Integral evaluation for generally contracted gaussian basis sets)     Author: Roland Lindh, 1990

 Geometry written to block  1 of record 700


 Point group  C2v 



 ATOMIC COORDINATES

 NR  ATOM    CHARGE       X              Y              Z

   1  H       1.00    0.000000000   -1.424625400    0.995924080
   2  H       1.00    0.000000000    1.424625400    0.995924080
   3  O       8.00    0.000000000    0.000000000   -0.125504540

 Bond lengths in Bohr (Angstrom)

 1-3  1.813052586  2-3  1.813052586
     ( 0.959426107)     ( 0.959426107)

 Bond angles

  1-3-2  103.58217002

 NUCLEAR CHARGE:                   10
 NUMBER OF PRIMITIVE AOS:          81
 NUMBER OF SYMMETRY AOS:           74
 NUMBER OF CONTRACTIONS:           58   (  23A1  +  11B1  +  17B2  +   7A2  )
 NUMBER OF CORE ORBITALS:           1   (   1A1  +   0B1  +   0B2  +   0A2  )
 NUMBER OF VALENCE ORBITALS:        6   (   3A1  +   1B1  +   2B2  +   0A2  )


 NUCLEAR REPULSION ENERGY    9.17586517


 Eigenvalues of metric

         1 0.259E-02 0.582E-02 0.109E-01 0.419E-01 0.841E-01 0.114E+00 0.167E+00 0.270E+00
         2 0.403E-01 0.109E+00 0.245E+00 0.448E+00 0.525E+00 0.703E+00 0.110E+01 0.134E+01
         3 0.475E-02 0.762E-02 0.480E-01 0.690E-01 0.923E-01 0.170E+00 0.278E+00 0.322E+00
         4 0.116E+00 0.317E+00 0.540E+00 0.880E+00 0.121E+01 0.132E+01 0.229E+01


 Contracted 2-electron integrals neglected if value below      1.0D-16
 AO integral compression algorithm  1   Integral accuracy      1.0D-16

     4.456 MB (compressed) written to integral file ( 99.6%)

     Node minimum: 4.456 MB, node maximum: 4.456 MB


 NUMBER OF SORTED TWO-ELECTRON INTEGRALS:     396151.     BUFFER LENGTH:  32768
 NUMBER OF SEGMENTS:   1  SEGMENT LENGTH:     396151      RECORD LENGTH: 524288

 Memory used in sort:       0.95 MW

 SORT1 READ      546378. AND WROTE      367096. INTEGRALS IN      2 RECORDS. CPU TIME:     0.01 SEC, REAL TIME:     0.01 SEC
 SORT2 READ      367096. AND WROTE      396151. INTEGRALS IN     17 RECORDS. CPU TIME:     0.02 SEC, REAL TIME:     0.02 SEC

 FILE SIZES:   FILE 1:     5.6 MBYTE,  FILE 4:     8.4 MBYTE,   TOTAL:     14.1 MBYTE

 OPERATOR DM      FOR CENTER  0  COORDINATES:    0.000000    0.000000    0.000000


 **********************************************************************************************************************************
 DATASETS  * FILE   NREC   LENGTH (MB)   RECORD NAMES
              1      19        5.66       500      610      700      900      950      970     1000      129      960     1100   
                                          VAR    BASINP    GEOM    SYMINP    ZMAT    AOBASIS   BASIS     P2S    ABASIS      S 
                                         1400     1410     1200     1210     1080     1600     1650     1300     1700   
                                           T        V       H0       H01     AOSYM     SMH    MOLCAS    ERIS     OPER   

 PROGRAMS   *        TOTAL       INT
 CPU TIMES  *         0.16      0.13
 REAL TIME  *         0.36 SEC
 DISK USED  *        19.05 MB      
 GA USED    *         0.00 MB       (max)       0.00 MB       (current)
 **********************************************************************************************************************************

1PROGRAM * RHF-SCF (CLOSED SHELL)       Authors: W. Meyer, H.-J. Werner


 NUMBER OF ELECTRONS:       5+    5-
 CONVERGENCE THRESHOLDS:    1.00E-10 (Density)    1.00E-13 (Energy)
 MAX. NUMBER OF ITERATIONS:      200
 INTERPOLATION TYPE:            DIIS
 INTERPOLATION STEPS:              2 (START)      1 (STEP)
 LEVEL SHIFTS:                  0.00 (CLOSED)  0.00 (OPEN) 



 Orbital guess generated from atomic densities. Full valence occupancy:    4   1   2   0

 Molecular orbital dump at record        2100.2

 Initial alpha occupancy:   3   1   1   0
 Initial beta  occupancy:   3   1   1   0
 Wave function symmetry:    1

 ITERATION    DDIFF          GRAD             ENERGY        2-EL.EN.            DIPOLE MOMENTS         DIIS
    1      0.000D+00      0.000D+00       -76.01875081     77.737086    0.00000    0.00000    1.15467    0
    2      0.000D+00      0.191D-01       -76.04672218     74.307463    0.00000    0.00000    0.71150    1
    3      0.331D-01      0.114D-01       -76.05673604     75.769065    0.00000    0.00000    0.81194    2
    4      0.109D-01      0.108D-02       -76.05692522     75.689579    0.00000    0.00000    0.80667    3
    5      0.161D-02      0.304D-03       -76.05694512     75.701339    0.00000    0.00000    0.80403    4
    6      0.558D-03      0.579D-04       -76.05694616     75.699975    0.00000    0.00000    0.80339    5
    7      0.126D-03      0.997D-05       -76.05694619     75.700086    0.00000    0.00000    0.80324    6
    8      0.256D-04      0.148D-05       -76.05694619     75.700030    0.00000    0.00000    0.80322    5
    9      0.337D-05      0.278D-06       -76.05694619     75.700057    0.00000    0.00000    0.80322    6
   10      0.621D-06      0.611D-07       -76.05694619     75.700052    0.00000    0.00000    0.80322    6
   11      0.120D-06      0.143D-07       -76.05694619     75.700052    0.00000    0.00000    0.80322    6
   12      0.379D-07      0.287D-08       -76.05694619     75.700052    0.00000    0.00000    0.80322    6
   13      0.694D-08      0.580D-09       -76.05694619     75.700052    0.00000    0.00000    0.80322    6
   14      0.172D-08      0.164D-09       -76.05694619     75.700052    0.00000    0.00000    0.80322    6
   15      0.456D-09      0.387D-10       -76.05694619     75.700052    0.00000    0.00000    0.80322    6
   16      0.903D-10      0.119D-10       -76.05694619     75.700052    0.00000    0.00000    0.80322    0

 Final occupancy:   3   1   1   0

 !RHF STATE 1.1 Energy                -76.056946193404
 Nuclear energy                         9.17586517
 One-electron energy                 -123.08283752
 Two-electron energy                   37.85002616
 Virial quotient                       -1.00076709
 !RHF STATE 1.1 Dipole moment           0.00000000     0.00000000     0.80321639
 Dipole moment /Debye                   0.00000000     0.00000000     2.04143871

 Orbital energies:

         1.1          2.1          3.1          4.1          5.1
    -20.555585    -1.345240    -0.579155     0.141864     0.604355

         1.2          2.2          3.2
     -0.504608     0.787211     0.951096

         1.3          2.3          3.3
     -0.706805     0.204046     0.541748

         1.4          2.4
      0.862648     2.063150


 **********************************************************************************************************************************
 DATASETS  * FILE   NREC   LENGTH (MB)   RECORD NAMES
              1      19        5.66       500      610      700      900      950      970     1000      129      960     1100   
                                          VAR    BASINP    GEOM    SYMINP    ZMAT    AOBASIS   BASIS     P2S    ABASIS      S 
                                         1400     1410     1200     1210     1080     1600     1650     1300     1700   
                                           T        V       H0       H01     AOSYM     SMH    MOLCAS    ERIS     OPER   

              2       3        0.32       700     1000     2100   
                                         GEOM     BASIS     RHF  

 PROGRAMS   *        TOTAL       RHF       INT
 CPU TIMES  *         0.19      0.03      0.13
 REAL TIME  *         0.40 SEC
 DISK USED  *        19.05 MB      
 GA USED    *         0.00 MB       (max)       0.00 MB       (current)
 **********************************************************************************************************************************


1PROGRAM * CCSD (Closed-shell coupled cluster)     Authors: C. Hampel, H.-J. Werner, 1991, M. Deegan, P.J. Knowles, 1992


 Convergence thresholds:  THRVAR = 1.00D-08  THRDEN = 1.00D-12

 CCSD(T)     terms to be evaluated (factor= 1.000)


 Number of core orbitals:           1 (   1   0   0   0 )
 Number of closed-shell orbitals:   4 (   2   1   1   0 )
 Number of external orbitals:      53 (  20  10  16   7 )

 Molecular orbitals read from record     2100.2  Type=RHF/CANONICAL (state 1.1)

 Number of N-1 electron functions:               4
 Number of N-2 electron functions:              10
 Number of singly external CSFs:                66
 Number of doubly external CSFs:              5929
 Total number of CSFs:                        5996

 Length of J-op  integral file:               0.00 MB
 Length of K-op  integral file:               0.10 MB
 Length of 3-ext integral record:             0.00 MB

 Memory could be reduced to 0.56 Mwords without degradation in triples

 Integral transformation finished. Total CPU:   0.01 sec, npass=  1  Memory used:   0.12 MW

 Reference energy:                    -76.05694619

 MP2 singlet pair energy:              -0.16636705
 MP2 triplet pair energy:              -0.09534411
 MP2 correlation energy:               -0.26171115
 MP2 total energy:                    -76.31865735

 SCS-MP2 correlation energy:           -0.25896568   (PS=  1.200000  PT=  0.333333)
 SCS-MP2 total energy:                -76.31591187

 ITER.      SQ.NORM     CORR.ENERGY   TOTAL ENERGY   ENERGY CHANGE        DEN1      VAR(S)    VAR(P)  DIIS     TIME
   1      1.06063157    -0.26711057   -76.32405676    -0.00539942    -0.00040566  0.45D-03  0.82D-03  1  1     0.01
   2      1.06377584    -0.26752941   -76.32447560    -0.00041883    -0.00448426  0.76D-05  0.87D-04  2  2     0.02
   3      1.06480808    -0.26759158   -76.32453777    -0.00006217    -0.00081598  0.15D-05  0.40D-05  3  3     0.02
   4      1.06507749    -0.26760173   -76.32454793    -0.00001016    -0.00016180  0.10D-06  0.20D-06  4  4     0.03
   5      1.06511367    -0.26759912   -76.32454531     0.00000262    -0.00001857  0.35D-07  0.11D-07  5  5     0.03
   6      1.06511968    -0.26759897   -76.32454517     0.00000014    -0.00000172  0.54D-08  0.12D-08  6  6     0.04
   7      1.06512131    -0.26759910   -76.32454529    -0.00000012    -0.00000031  0.82D-09  0.16D-09  6  1     0.04
   8      1.06512191    -0.26759911   -76.32454531    -0.00000001     0.00000042  0.29D-10  0.13D-10  6  2     0.05
   9      1.06512212    -0.26759910   -76.32454529     0.00000002    -0.00000008  0.12D-11  0.11D-11  6  3     0.05
  10      1.06512215    -0.26759909   -76.32454528     0.00000000     0.00000002  0.41D-13  0.57D-13  6  4     0.06
  11      1.06512216    -0.26759909   -76.32454528     0.00000000    -0.00000001  0.18D-14  0.42D-14  6  5     0.06
  12      1.06512216    -0.26759909   -76.32454528    -0.00000000     0.00000000  0.16D-15  0.29D-15  6  6     0.07
  13      1.06512216    -0.26759909   -76.32454528    -0.00000000     0.00000000  0.28D-16  0.23D-16  6  1     0.07
  14      1.06512216    -0.26759909   -76.32454528    -0.00000000     0.00000000  0.47D-17  0.22D-17  6  2     0.08
  15      1.06512216    -0.26759909   -76.32454528    -0.00000000     0.00000000  0.13D-17  0.20D-18  6  3     0.09
  16      1.06512216    -0.26759909   -76.32454528    -0.00000000     0.00000000  0.11D-18  0.19D-19  6  4     0.09
  17      1.06512216    -0.26759909   -76.32454528    -0.00000000     0.00000000  0.93D-20  0.24D-20  6  5     0.10
  18      1.06512216    -0.26759909   -76.32454528    -0.00000000    -0.00000000  0.42D-21  0.20D-21  6  6     0.10

 Norm of t1 vector:      0.02624376      S-energy:    -0.00000000      T1 diagnostic:  0.00656094
                                                                       D1 diagnostic:  0.01083351


 Total CPU time for triples:      0.02 sec


 RESULTS
 =======

  Reference energy                    -76.056946193404
  CCSD singlet pair energy             -0.182588313646
  CCSD triplet pair energy             -0.085010776961
  CCSD correlation energy              -0.267599090608

  Triples (T) contribution             -0.007671234895
  Total correlation energy             -0.275270325503

  CCSD total energy                   -76.324545284011
  CCSD[T] energy                      -76.332410229042
  CCSD-T energy                       -76.332079418676
 !CCSD(T) total energy                -76.332216518906

 Timing summary (sec):

 STEP                 CPU(USER)    SYS     CPU(TOT)    WALL
 Transformation          0.01      0.00      0.01      0.01
 CCSD iterations         0.09      0.01      0.10      0.14
 Triples                 0.02      0.00      0.02      0.02

 Program statistics:

 Available memory in ccsd:               999999836
 Min. memory needed in ccsd:                 31875
 Max. memory used in ccsd:                   36141
 Max. memory used in cckext:                 65678 (18 integral passes)



 **********************************************************************************************************************************
 DATASETS  * FILE   NREC   LENGTH (MB)   RECORD NAMES
              1      20        6.43       500      610      700      900      950      970     1000      129      960     1100   
                                          VAR    BASINP    GEOM    SYMINP    ZMAT    AOBASIS   BASIS     P2S    ABASIS      S 
                                         1400     1410     1200     1210     1080     1600     1650     1300     1700     1380   
                                           T        V       H0       H01     AOSYM     SMH    MOLCAS    ERIS     OPER     JKOP   

              2       3        0.32       700     1000     2100   
                                         GEOM     BASIS     RHF  

 PROGRAMS   *        TOTAL   CCSD(T)       RHF       INT
 CPU TIMES  *         0.32      0.13      0.03      0.13
 REAL TIME  *         0.59 SEC
 DISK USED  *        19.05 MB      
 GA USED    *         0.00 MB       (max)       0.00 MB       (current)
 **********************************************************************************************************************************

        CCSD(T)         RHF-SCF 
    -76.33221652    -76.05694619
 **********************************************************************************************************************************
 Variable memory released
