
    -----------------------------------------------------------------------
          Psi4: An Open-Source Ab Initio Electronic Structure Package
                               Psi4 1.4a2.dev629 

                         Git: Rev {master} 2938fc2 dirty


    D. G. A. Smith, L. A. Burns, A. C. Simmonett, R. M. Parrish,
    M. C. Schieber, R. Galvelis, P. Kraus, H. Kruse, R. Di Remigio,
    A. Alenaizan, A. M. James, S. Lehtola, J. P. Misiewicz, M. Scheurer,
    R. A. Shaw, J. B. Schriber, Y. Xie, Z. L. Glick, D. A. Sirianni,
    J. S. O'Brien, J. M. Waldrop, A. Kumar, E. G. Hohenstein,
    B. P. Pritchard, B. R. Brooks, H. F. Schaefer III, A. Yu. Sokolov,
    K. Patkowski, A. E. DePrince III, U. Bozkaya, R. A. King,
    F. A. Evangelista, J. M. Turney, T. D. Crawford, C. D. Sherrill,
    J. Chem. Phys. 152(18) 184108 (2020). https://doi.org/10.1063/5.0006002

                            Additional Code Authors
    E. T. Seidl, C. L. Janssen, E. F. Valeev, M. L. Leininger,
    J. F. Gonthier, R. M. Richard, H. R. McAlexander, M. Saitow, X. Wang,
    P. Verma, and M. H. Lechner

             Previous Authors, Complete List of Code Contributors,
                       and Citations for Specific Modules
    https://github.com/psi4/psi4/blob/master/codemeta.json
    https://github.com/psi4/psi4/graphs/contributors
    http://psicode.org/psi4manual/master/introduction.html#citing-psifour

    -----------------------------------------------------------------------


    Psi4 started on: Monday, 06 September 2021 06:16PM

    Process ID: 17231
    Host:       n008
    PSIDATADIR: /opt/psi/4/master/share/psi4
    Memory:     500.0 MiB
    Threads:    1
    
  ==> Input File <==

--------------------------------------------------------------------------
# o-Benzyne preliminary computations

memory 14 gb

molecule {
  0 1
  units bohr
 H    0.0000000000   -1.4261040262    0.9952752989
 O    0.0000000000    0.0049657576   -0.1202980606
 H    0.0000000000    1.4211382686    0.9913663817
}

set {
  basis cc-pvdz
  reference rhf
  e_convergence 10 
  d_convergence 10
  r_convergence 8
  maxiter 300
  freeze_core True
}

e, wfn = energy('ccsd(t)', return_wfn = True)
psi4.print_out('Giraffe The Energy is %.12f \n'%(e))
--------------------------------------------------------------------------

  Memory set to  13.039 GiB by Python driver.

Scratch directory: /tmp/

*** tstart() called on n008
*** at Mon Sep  6 18:16:08 2021

   => Loading Basis Set <=

    Name: CC-PVDZ
    Role: ORBITAL
    Keyword: BASIS
    atoms 1, 3 entry H          line    22 file /opt/psi/4/master/share/psi4/basis/cc-pvdz.gbs 
    atoms 2    entry O          line   198 file /opt/psi/4/master/share/psi4/basis/cc-pvdz.gbs 


         ---------------------------------------------------------
                                   SCF
               by Justin Turney, Rob Parrish, Andy Simmonett
                          and Daniel G. A. Smith
                              RHF Reference
                        1 Threads,  13351 MiB Core
         ---------------------------------------------------------

  ==> Geometry <==

    Molecular point group: cs
    Full point group: Cs

    Geometry (in Bohr), charge = 0, multiplicity = 1:

       Center              X                  Y                   Z               Mass       
    ------------   -----------------  -----------------  -----------------  -----------------
         H            1.430236170601    -0.990942841315     0.000000000000     1.007825032230
         O           -0.000833613199     0.124630518185     0.000000000000    15.994914619570
         H           -1.417006124199    -0.987033924115     0.000000000000     1.007825032230

  Running in cs symmetry.

  Rotational constants: A =     27.12025  B =     14.73519  C =      9.54767 [cm^-1]
  Rotational constants: A = 813044.64857  B = 441749.97093  C = 286232.06084 [MHz]
  Nuclear repulsion =    9.203632371381957

  Charge       = 0
  Multiplicity = 1
  Electrons    = 10
  Nalpha       = 5
  Nbeta        = 5

  ==> Algorithm <==

  SCF Algorithm Type is PK.
  DIIS enabled.
  MOM disabled.
  Fractional occupation disabled.
  Guess Type is SAD.
  Energy threshold   = 1.00e-10
  Density threshold  = 1.00e-10
  Integral threshold = 0.00e+00

  ==> Primary Basis <==

  Basis Set: CC-PVDZ
    Blend: CC-PVDZ
    Number of shells: 12
    Number of basis function: 24
    Number of Cartesian functions: 25
    Spherical Harmonics?: true
    Max angular momentum: 2

  ==> Integral Setup <==

  Using in-core PK algorithm.
   Calculation information:
      Number of atoms:                   3
      Number of AO shells:              12
      Number of primitives:             32
      Number of atomic orbitals:        25
      Number of basis functions:        24

      Integral cutoff                 1.00e-12
      Number of threads:                 1

  Performing in-core PK
  Using 90300 doubles for integral storage.
  We computed 3081 shell quartets total.
  Whereas there are 3081 unique shell quartets.

  ==> DiskJK: Disk-Based J/K Matrices <==

    J tasked:                  Yes
    K tasked:                  Yes
    wK tasked:                  No
    Memory [MiB]:            10013
    Schwarz Cutoff:          1E-12

    OpenMP threads:              1

  Minimum eigenvalue in the overlap matrix is 3.4041630028E-02.
  Reciprocal condition number of the overlap matrix is 9.1613060809E-03.
    Using symmetric orthogonalization.

  ==> Pre-Iterations <==

  SCF Guess: Superposition of Atomic Densities via on-the-fly atomic UHF (no occupation information).

   -------------------------
    Irrep   Nso     Nmo    
   -------------------------
     A'        18      18 
     A"         6       6 
   -------------------------
    Total      24      24
   -------------------------

  ==> Iterations <==

                        Total Energy        Delta E     RMS |[F,P]|

   @RHF iter SAD:   -75.51328184636297   -7.55133e+01   0.00000e+00 
   @RHF iter   1:   -75.95403358849013   -4.40752e-01   2.20300e-02 DIIS
   @RHF iter   2:   -76.00736171991599   -5.33281e-02   1.25762e-02 DIIS
   @RHF iter   3:   -76.02639937504581   -1.90377e-02   1.14644e-03 DIIS
   @RHF iter   4:   -76.02678189957324   -3.82525e-04   2.62404e-04 DIIS
   @RHF iter   5:   -76.02680093146952   -1.90319e-05   4.81450e-05 DIIS
   @RHF iter   6:   -76.02680183274134   -9.01272e-07   7.60387e-06 DIIS
   @RHF iter   7:   -76.02680185751417   -2.47728e-08   1.03423e-06 DIIS
   @RHF iter   8:   -76.02680185798201   -4.67836e-10   2.39697e-07 DIIS
   @RHF iter   9:   -76.02680185801158   -2.95728e-11   4.25117e-08 DIIS
   @RHF iter  10:   -76.02680185801249   -9.09495e-13   3.51936e-09 DIIS
   @RHF iter  11:   -76.02680185801239    9.94760e-14   6.41976e-10 DIIS
   @RHF iter  12:   -76.02680185801245   -5.68434e-14   8.04858e-11 DIIS
  Energy and wave function converged.


  ==> Post-Iterations <==

    Orbital Energies [Eh]
    ---------------------

    Doubly Occupied:                                                      

       1Ap   -20.550604     2Ap    -1.337575     3Ap    -0.698613  
       4Ap    -0.567911     1App   -0.493417  

    Virtual:                                                              

       5Ap     0.185572     6Ap     0.256442     7Ap     0.787747  
       8Ap     0.857906     9Ap     1.163902     2App    1.200224  
      10Ap     1.253890    11Ap     1.439124     3App    1.478416  
       4App    1.671567    12Ap     1.865850    13Ap     1.939238  
      14Ap     2.451232    15Ap     2.495548     5App    3.289146  
       6App    3.337796    16Ap     3.514136    17Ap     3.862144  
      18Ap     4.151875  

    Final Occupation by Irrep:
             Ap   App 
    DOCC [     4,    1 ]

  @RHF Final Energy:   -76.02680185801245

   => Energetics <=

    Nuclear Repulsion Energy =              9.2036323713819570
    One-Electron Energy =                -123.1646275050615174
    Two-Electron Energy =                  37.9341932756671198
    Total Energy =                        -76.0268018580124476

Computation Completed


Properties will be evaluated at   0.000000,   0.000000,   0.000000 [a0]

Properties computed using the SCF density matrix

  Nuclear Dipole Moment: [e a0]
     X:     0.0066      Y:    -0.9809      Z:     0.0000

  Electronic Dipole Moment: [e a0]
     X:    -0.0031      Y:     0.1687      Z:     0.0000

  Dipole Moment: [e a0]
     X:     0.0035      Y:    -0.8122      Z:     0.0000     Total:     0.8122

  Dipole Moment: [D]
     X:     0.0089      Y:    -2.0644      Z:     0.0000     Total:     2.0644


*** tstop() called on n008 at Mon Sep  6 18:16:09 2021
Module time:
	user time   =       0.99 seconds =       0.02 minutes
	system time =       0.01 seconds =       0.00 minutes
	total time  =          1 seconds =       0.02 minutes
Total time:
	user time   =       0.99 seconds =       0.02 minutes
	system time =       0.01 seconds =       0.00 minutes
	total time  =          1 seconds =       0.02 minutes
 MINTS: Wrapper to libmints.
   by Justin Turney

   Calculation information:
      Number of threads:                 1
      Number of atoms:                   3
      Number of AO shells:              12
      Number of SO shells:              12
      Number of primitives:             32
      Number of atomic orbitals:        25
      Number of basis functions:        24

      Number of irreps:                  2
      Integral cutoff                 0.00e+00
      Number of functions per irrep: [  18    6 ]

 OEINTS: Overlap, kinetic, potential, dipole, and quadrupole integrals
         stored in file 35.

      Computing two-electron integrals...done
      Computed 22696 non-zero two-electron integrals.
        Stored in file 33.


*** tstart() called on n008
*** at Mon Sep  6 18:16:09 2021


	Wfn Parameters:
	--------------------
	Wavefunction         = CCSD_T
	Number of irreps     = 2
	Number of MOs        = 24
	Number of active MOs = 23
	AO-Basis             = NONE
	Semicanonical        = false
	Reference            = RHF
	Print Level          = 1

	IRREP	# MOs	# FZDC	# DOCC	# SOCC	# VIRT	# FZVR
	-----	-----	------	------	------	------	------
	 Ap	   18	    1	    3	    0	    14	    0
	 App	   6	    0	    1	    0	    5	    0
	Transforming integrals...
	IWL integrals will be deleted.
	(OO|OO)...
	Presorting SO-basis two-electron integrals.
	Sorting File: SO Ints (nn|nn) nbuckets = 1
	Transforming the one-electron integrals and constructing Fock matrices
	Starting first half-transformation.
	Sorting half-transformed integrals.
	First half integral transformation complete.
	Starting second half-transformation.
	Two-electron integral transformation complete.
	(OO|OV)...
	Starting second half-transformation.
	Two-electron integral transformation complete.
	(OO|VV)...
	Starting second half-transformation.
	Two-electron integral transformation complete.
	(OV|OO)...
	Starting first half-transformation.
	Sorting half-transformed integrals.
	First half integral transformation complete.
	Starting second half-transformation.
	Two-electron integral transformation complete.
	(OV|OV)...
	Starting second half-transformation.
	Two-electron integral transformation complete.
	(OV|VV)...
	Starting second half-transformation.
	Two-electron integral transformation complete.
	(VV|OO)...
	Starting first half-transformation.
	Sorting half-transformed integrals.
	First half integral transformation complete.
	Starting second half-transformation.
	Two-electron integral transformation complete.
	(VV|OV)...
	Starting second half-transformation.
	Two-electron integral transformation complete.
	(VV|VV)...
	Starting second half-transformation.
	Two-electron integral transformation complete.
	Frozen core energy     =    -61.31816079832584

	Size of irrep 0 of <ab|cd> integrals:      0.049 (MW) /      0.391 (MB)
	Size of irrep 1 of <ab|cd> integrals:      0.020 (MW) /      0.157 (MB)
	Total:                                     0.068 (MW) /      0.548 (MB)

	Size of irrep 0 of <ia|bc> integrals:      0.010 (MW) /      0.083 (MB)
	Size of irrep 1 of <ia|bc> integrals:      0.004 (MW) /      0.032 (MB)
	Total:                                     0.014 (MW) /      0.116 (MB)

	Size of irrep 0 of tijab amplitudes:       0.002 (MW) /      0.018 (MB)
	Size of irrep 1 of tijab amplitudes:       0.001 (MW) /      0.007 (MB)
	Total:                                     0.003 (MW) /      0.024 (MB)

	Nuclear Rep. energy          =      9.20363237138196
	SCF energy                   =    -76.02680185801245
	One-electron energy          =    -41.62951400852788
	Two-electron energy          =     17.71724057745933
	Reference energy             =    -76.02680185801243

*** tstop() called on n008 at Mon Sep  6 18:16:10 2021
Module time:
	user time   =       0.06 seconds =       0.00 minutes
	system time =       0.04 seconds =       0.00 minutes
	total time  =          1 seconds =       0.02 minutes
Total time:
	user time   =       1.12 seconds =       0.02 minutes
	system time =       0.06 seconds =       0.00 minutes
	total time  =          2 seconds =       0.03 minutes
            **************************
            *                        *
            *        CCENERGY        *
            *                        *
            **************************

    Nuclear Rep. energy (wfn)     =    9.203632371381957
    SCF energy          (wfn)     =  -76.026801858012448
    Reference energy    (file100) =  -76.026801858012433

    Input parameters:
    -----------------
    Wave function   =     CCSD_T
    Reference wfn   =     RHF
    Brueckner       =     No
    Memory (Mbytes) =     14000.0
    Maxiter         =    300
    R_Convergence   =     1.0e-08
    E_Convergence   =     1.0e-10
    Restart         =     Yes
    DIIS            =     Yes
    AO Basis        =     NONE
    ABCD            =     NEW
    Cache Level     =     2
    Cache Type      =     LOW
    Print Level     =     1
    Num. of threads =     1
    # Amps to Print =     10
    Print MP2 Amps? =     No
    Analyze T2 Amps =     No
    Print Pair Ener =     No
    Local CC        =     No
    SCS-MP2         =     False
    SCSN-MP2        =     False
    SCS-CCSD        =     False

MP2 correlation energy -0.2016277319631345
                Solving CC Amplitude Equations
                ------------------------------
  Iter             Energy              RMS        T1Diag      D1Diag    New D1Diag    D2Diag
  ----     ---------------------    ---------   ----------  ----------  ----------   --------
     0        -0.201627731963134    0.000e+00    0.000000    0.000000    0.000000    0.109439
     1        -0.206821304595557    2.656e-02    0.004489    0.008609    0.008609    0.116400
     2        -0.210760675397412    9.345e-03    0.005316    0.009921    0.009921    0.121722
     3        -0.211167589928287    2.412e-03    0.005792    0.010739    0.010739    0.122919
     4        -0.211178739130595    5.540e-04    0.005838    0.010915    0.010915    0.123114
     5        -0.211189723911664    1.634e-04    0.005863    0.011018    0.011018    0.123148
     6        -0.211187918721573    5.412e-05    0.005872    0.011060    0.011060    0.123142
     7        -0.211187699801003    1.467e-05    0.005875    0.011074    0.011074    0.123140
     8        -0.211187577211772    2.537e-06    0.005876    0.011075    0.011075    0.123140
     9        -0.211187531523448    6.101e-07    0.005876    0.011076    0.011076    0.123140
    10        -0.211187545656748    1.234e-07    0.005876    0.011076    0.011076    0.123140
    11        -0.211187544363761    2.625e-08    0.005876    0.011076    0.011076    0.123140
    12        -0.211187544769172    4.399e-09    0.005876    0.011076    0.011076    0.123140
    13        -0.211187544655878    9.631e-10    0.005876    0.011076    0.011076    0.123140
    14        -0.211187544648107    1.972e-10    0.005876    0.011076    0.011076    0.123140
    15        -0.211187544645368    5.702e-11    0.005876    0.011076    0.011076    0.123140

    Iterations converged.


    Largest TIA Amplitudes:
              2   0         0.0073995223
              1   9        -0.0071564998
              1   1         0.0060014102
              2  10        -0.0048490527
              1   5         0.0045400182
              0   4         0.0041946317
              0   0         0.0037911621
              3  16         0.0032834508
              3  14         0.0030304548
              2   3         0.0029812426

    Largest TIjAb Amplitudes:
      3   3  14  14        -0.0513922135
      1   1   2   2        -0.0360808502
      2   2   4   4        -0.0351632018
      1   1   1   1        -0.0292616115
      2   3   4  14         0.0284897584
      3   2  14   4         0.0284897584
      1   1   3   3        -0.0281477990
      2   2   2   2        -0.0257169852
      1   3   5  14         0.0228424479
      3   1  14   5         0.0228424479

    SCF energy       (wfn)                    =  -76.026801858012448
    Reference energy (file100)                =  -76.026801858012433

    Opposite-spin MP2 correlation energy      =   -0.150910522683982
    Same-spin MP2 correlation energy          =   -0.050717209279152
    Singles MP2 correlation energy            =   -0.000000000000000
    MP2 correlation energy                    =   -0.201627731963134
      * MP2 total energy                      =  -76.228429589975562

    Opposite-spin CCSD correlation energy     =   -0.165871704061221
    Same-spin CCSD correlation energy         =   -0.045315840584147
    Singles CCSD correlation energy           =    0.000000000000000
    CCSD correlation energy                   =   -0.211187544645368
      * CCSD total energy                     =  -76.237989402657803

            **************************
            *                        *
            *        CCTRIPLES       *
            *                        *
            **************************


    Wave function   =    CCSD_T
    Reference wfn   =      RHF

    Nuclear Rep. energy (wfn)                =    9.203632371381957
    SCF energy          (wfn)                =  -76.026801858012448
    Reference energy    (file100)            =  -76.026801858012433
    CCSD energy         (file100)            =   -0.211187544645368
    Total CCSD energy   (file100)            =  -76.237989402657803

    Number of ijk index combinations:               20
    Memory available in words        :      1750000000
    ~Words needed per explicit thread:           10976
    Number of threads for explicit ijk threading:    1

    MKL num_threads set to 1 for explicit threading.

    (T) energy                                =   -0.003036053830944
      * CCSD(T) total energy                  =  -76.241025456488742

Giraffe The Energy is -76.241025456489 

    Psi4 stopped on: Monday, 06 September 2021 06:16PM
    Psi4 wall time for execution: 0:00:05.03

*** Psi4 exiting successfully. Buy a developer a beer!
