
 Primary working directories    : /tmp/786251.11.gen4.q
 Secondary working directories  : /tmp/786251.11.gen4.q
 Wavefunction directory         : /home/vulcan/nlk36701/wfu/
 Main file repository           : /tmp/786251.11.gen4.q/

 ARCHNAME  : Linux/x86_64
 FC        : /opt/intel/compilers_and_libraries_2016.1.150/linux/bin/intel64/ifort
 FCVERSION : 16.0.1
 BLASLIB   : -mkl
 id        : ccgc

 Nodes     nprocs
 n067         1
 ga_uses_ma=false, calling ma_init with nominal heap.
 GA-space will be limited to   8.0 MW (determined by -G option)

 Using customized tuning parameters: mindgm=10; mindgv=16; mindgc=4; mindgr=1; noblas=0; mincuda=1000; minvec=7
 default implementation of scratch files=df  

 ***,Optimization of min3
 memory,1000,m
 gthresh,energy=1.0d-12,orbital=1.0d-10,oneint=1.0d-16,twoint=1.0d-16,optgrad=1.0d-6,compress=1.0d-13
 geomtyp=xyz
 
  bohr
  geometry = {
  3
  arbitrary comment
  H   -0.0000000000   -1.4299792057    0.9929638579
  O    0.0000000000   -0.0049637879   -0.1234914625
  H    0.0000000000    1.4349429935    0.9968712246
 }
 
 basis=cc-pvdz
 {rhf;maxit,200}
 scfDZ=energy
 {ccsd(t);maxit,200}
 mp2DZ = emp2
 ccsdDZ=energc
 ccsdt_DZ=energy
 
 show[1,f20.15],scfDZ
 show[1,f20.15],mp2DZ
 show[1,f20.15],ccsdDZ
 show[1,f20.15],ccsdt_DZ

 Variables initialized (661), CPU time= 0.00 sec
 Commands  initialized (458), CPU time= 0.00 sec, 486 directives.
 Default parameters read. Elapsed time= 0.05 sec

 Checking input...
 Passed
1


                                         ***  PROGRAM SYSTEM MOLPRO  ***
                         Copyright, University College Cardiff Consultants Limited, 2008

                                    Version 2010.1 linked May 16 2016 07:17:05


 **********************************************************************************************************************************
 LABEL *   Optimization of min3                                                          
 Linux-4.4.3/n067(x86_64) 64 bit mpp version                                             DATE: 03-Aug-22          TIME: 12:15:35  
 **********************************************************************************************************************************

 SHA1:             9e8077add272b0f3cad6f7df79ec5211205f459d
 **********************************************************************************************************************************

 THRESHOLDS:

 ZERO    =  1.00D-12  ONEINT  =  1.00D-16  TWOINT  =  1.00D-16  PREFAC  =  1.00D-14  LOCALI  =  1.00D-09  EORDER  =  1.00D-04
 ENERGY  =  1.00D-12  ETEST   =  0.00D+00  EDENS   =  0.00D+00  THRDEDEF=  1.00D-06  GRADIENT=  1.00D-02  STEP    =  1.00D-03
 ORBITAL =  1.00D-10  CIVEC   =  1.00D-05  COEFF   =  1.00D-04  PRINTCI =  5.00D-02  PUNCHCI =  9.90D+01  OPTGRAD =  1.00D-06
 OPTENERG=  1.00D-06  OPTSTEP =  3.00D-04  THRGRAD =  1.00D-10  COMPRESS=  1.00D-13  VARMIN  =  1.00D-07  VARMAX  =  1.00D-03
 THRDOUB =  0.00D+00  THRDIV  =  1.00D-05  THRRED  =  1.00D-07  THRPSP  =  1.00D+00  THRDC   =  1.00D-10  THRCS   =  1.00D-10
 THRNRM  =  1.00D-08  THREQ   =  0.00D+00  THRDE   =  1.00D+00  THRREF  =  1.00D-05  SPARFAC =  1.00D+00  THRDLP  =  1.00D-07
 THRDIA  =  1.00D-10  THRDLS  =  1.00D-07  THRGPS  =  0.00D+00  THRKEX  =  0.00D+00  THRDIS  =  2.00D-01  THRVAR  =  1.00D-10
 THRLOC  =  1.00D-06  THRGAP  =  1.00D-06  THRLOCT = -1.00D+00  THRGAPT = -1.00D+00  THRORB  =  1.00D-06  THRMLTP =  0.00D+00
 THRCPQCI=  1.00D-10  KEXTA   =  0.00D+00  THRCOARS=  0.00D+00  SYMTOL  =  1.00D-06  GRADTOL =  1.00D-06  THROVL  =  1.00D-08
 THRORTH =  1.00D-08  GRID    =  1.00D-06  GRIDMAX =  1.00D-03  DTMAX   =  0.00D+00

 SETTING GEOMTYP        =    XYZ
 ZUNIT=BOHR
 

 Variable memory set to 1000000000 words,  buffer space   230000 words

 SETTING BASIS          =    CC-PVDZ


 Recomputing integrals since basis changed


 Using spherical harmonics

 Library entry H      S cc-pVDZ              selected for orbital group  1
 Library entry H      P cc-pVDZ              selected for orbital group  1
 Library entry O      S cc-pVDZ              selected for orbital group  2
 Library entry O      P cc-pVDZ              selected for orbital group  2
 Library entry O      D cc-pVDZ              selected for orbital group  2

1PROGRAM * SEWARD (Integral evaluation for generally contracted gaussian basis sets)     Author: Roland Lindh, 1990

 Geometry written to block  1 of record 700


 Point group  Cs  



 ATOMIC COORDINATES

 NR  ATOM    CHARGE       X              Y              Z

   1  H       1.00    0.000000000   -1.429979206    0.992963858
   2  O       8.00    0.000000000   -0.004963788   -0.123491462
   3  H       1.00    0.000000000    1.434942993    0.996871225

 Bond lengths in Bohr (Angstrom)

 1-2  1.810287663  2-3  1.824429799
     ( 0.957962973)     ( 0.965446669)

 Bond angles

  1-2-3  104.03663154

 NUCLEAR CHARGE:                   10
 NUMBER OF PRIMITIVE AOS:          41
 NUMBER OF SYMMETRY AOS:           40
 NUMBER OF CONTRACTIONS:           24   (  18A'  +   6A"  )
 NUMBER OF CORE ORBITALS:           1   (   1A'  +   0A"  )
 NUMBER OF VALENCE ORBITALS:        6   (   5A'  +   1A"  )


 NUCLEAR REPULSION ENERGY    9.15316812


 Eigenvalues of metric

         1 0.177E-01 0.450E-01 0.512E-01 0.988E-01 0.160E+00 0.171E+00 0.223E+00 0.516E+00
         2 0.183E+00 0.525E+00 0.622E+00 0.110E+01 0.133E+01 0.224E+01


 Contracted 2-electron integrals neglected if value below      1.0D-16
 AO integral compression algorithm  1   Integral accuracy      1.0D-16

     0.524 MB (compressed) written to integral file (100.0%)

     Node minimum: 0.524 MB, node maximum: 0.524 MB


 NUMBER OF SORTED TWO-ELECTRON INTEGRALS:      25710.     BUFFER LENGTH:  32768
 NUMBER OF SEGMENTS:   1  SEGMENT LENGTH:      25710      RECORD LENGTH: 524288

 Memory used in sort:       0.58 MW

 SORT1 READ       33005. AND WROTE       23239. INTEGRALS IN      1 RECORDS. CPU TIME:     0.00 SEC, REAL TIME:     0.00 SEC
 SORT2 READ       23239. AND WROTE       25710. INTEGRALS IN      2 RECORDS. CPU TIME:     0.00 SEC, REAL TIME:     0.00 SEC

 FILE SIZES:   FILE 1:     2.8 MBYTE,  FILE 4:     4.2 MBYTE,   TOTAL:      7.0 MBYTE

 OPERATOR DM      FOR CENTER  0  COORDINATES:    0.000000    0.000000    0.000000


 **********************************************************************************************************************************
 DATASETS  * FILE   NREC   LENGTH (MB)   RECORD NAMES
              1      19        2.79       500      610      700      900      950      970     1000      129      960     1100   
                                          VAR    BASINP    GEOM    SYMINP    ZMAT    AOBASIS   BASIS     P2S    ABASIS      S 
                                         1400     1410     1200     1210     1080     1600     1650     1300     1700   
                                           T        V       H0       H01     AOSYM     SMH    MOLCAS    ERIS     OPER   

 PROGRAMS   *        TOTAL       INT
 CPU TIMES  *         0.12      0.08
 REAL TIME  *         0.30 SEC
 DISK USED  *         8.05 MB      
 GA USED    *         0.00 MB       (max)       0.00 MB       (current)
 **********************************************************************************************************************************

1PROGRAM * RHF-SCF (CLOSED SHELL)       Authors: W. Meyer, H.-J. Werner


 NUMBER OF ELECTRONS:       5+    5-
 CONVERGENCE THRESHOLDS:    1.00E-10 (Density)    1.00E-13 (Energy)
 MAX. NUMBER OF ITERATIONS:      200
 INTERPOLATION TYPE:            DIIS
 INTERPOLATION STEPS:              2 (START)      1 (STEP)
 LEVEL SHIFTS:                  0.00 (CLOSED)  0.00 (OPEN) 



 Orbital guess generated from atomic densities. Full valence occupancy:    6   1

 Molecular orbital dump at record        2100.2

 Initial alpha occupancy:   4   1
 Initial beta  occupancy:   4   1
 Wave function symmetry:    1

 ITERATION    DDIFF          GRAD             ENERGY        2-EL.EN.            DIPOLE MOMENTS         DIIS
    1      0.000D+00      0.000D+00       -75.98811494     77.812236    0.00000    0.01012    1.15265    0
    2      0.000D+00      0.309D-01       -76.01779063     74.552629    0.00000    0.00374    0.75555    1
    3      0.576D-01      0.162D-01       -76.02628935     75.876676    0.00000    0.00445    0.83052    2
    4      0.190D-01      0.184D-02       -76.02650824     75.779282    0.00000    0.00379    0.81805    3
    5      0.355D-02      0.493D-03       -76.02652607     75.791323    0.00000    0.00354    0.81432    4
    6      0.111D-02      0.775D-04       -76.02652665     75.791278    0.00000    0.00348    0.81367    5
    7      0.175D-03      0.112D-04       -76.02652666     75.791218    0.00000    0.00347    0.81355    6
    8      0.312D-04      0.926D-06       -76.02652666     75.791205    0.00000    0.00346    0.81355    5
    9      0.207D-05      0.136D-06       -76.02652666     75.791211    0.00000    0.00346    0.81355    5
   10      0.301D-06      0.431D-07       -76.02652666     75.791208    0.00000    0.00346    0.81355    5
   11      0.739D-07      0.147D-07       -76.02652666     75.791209    0.00000    0.00346    0.81355    5
   12      0.294D-07      0.239D-08       -76.02652666     75.791209    0.00000    0.00346    0.81355    6
   13      0.603D-08      0.423D-09       -76.02652666     75.791209    0.00000    0.00346    0.81355    6
   14      0.101D-08      0.725D-10       -76.02652666     75.791209    0.00000    0.00346    0.81355    6
   15      0.172D-09      0.148D-10       -76.02652666     75.791209    0.00000    0.00346    0.81355    6
   16      0.329D-10      0.348D-11       -76.02652666     75.791209    0.00000    0.00346    0.81355    0

 Final occupancy:   4   1

 !RHF STATE 1.1 Energy                -76.026526657664
 Nuclear energy                         9.15316812
 One-electron energy                 -123.07529904
 Two-electron energy                   37.89560426
 Virial quotient                       -1.00071175
 !RHF STATE 1.1 Dipole moment           0.00000000     0.00346360     0.81354792
 Dipole moment /Debye                   0.00000000     0.00880302     2.06769712

 Orbital energies:

         1.1          2.1          3.1          4.1          5.1          6.1
    -20.551473    -1.334829    -0.696019    -0.566720     0.184712     0.255652

         1.2          2.2          3.2
     -0.493005     1.200189     1.476688


 **********************************************************************************************************************************
 DATASETS  * FILE   NREC   LENGTH (MB)   RECORD NAMES
              1      19        2.79       500      610      700      900      950      970     1000      129      960     1100   
                                          VAR    BASINP    GEOM    SYMINP    ZMAT    AOBASIS   BASIS     P2S    ABASIS      S 
                                         1400     1410     1200     1210     1080     1600     1650     1300     1700   
                                           T        V       H0       H01     AOSYM     SMH    MOLCAS    ERIS     OPER   

              2       3        0.30       700     1000     2100   
                                         GEOM     BASIS     RHF  

 PROGRAMS   *        TOTAL       RHF       INT
 CPU TIMES  *         0.12      0.00      0.08
 REAL TIME  *         0.33 SEC
 DISK USED  *         8.05 MB      
 GA USED    *         0.00 MB       (max)       0.00 MB       (current)
 **********************************************************************************************************************************
 SETTING SCFDZ          =       -76.02652666  AU                              


1PROGRAM * CCSD (Closed-shell coupled cluster)     Authors: C. Hampel, H.-J. Werner, 1991, M. Deegan, P.J. Knowles, 1992


 Convergence thresholds:  THRVAR = 1.00D-08  THRDEN = 1.00D-12

 CCSD(T)     terms to be evaluated (factor= 1.000)


 Number of core orbitals:           1 (   1   0 )
 Number of closed-shell orbitals:   4 (   3   1 )
 Number of external orbitals:      19 (  14   5 )

 Molecular orbitals read from record     2100.2  Type=RHF/CANONICAL (state 1.1)

 Number of N-1 electron functions:               4
 Number of N-2 electron functions:              10
 Number of singly external CSFs:                47
 Number of doubly external CSFs:              1563
 Total number of CSFs:                        1611

 Length of J-op  integral file:               0.00 MB
 Length of K-op  integral file:               0.06 MB
 Length of 3-ext integral record:             0.00 MB

 Memory could be reduced to 0.31 Mwords without degradation in triples

 Integral transformation finished. Total CPU:   0.00 sec, npass=  1  Memory used:   0.09 MW

 Reference energy:                    -76.02652666

 MP2 singlet pair energy:              -0.12582718
 MP2 triplet pair energy:              -0.07616270
 MP2 correlation energy:               -0.20198988
 MP2 total energy:                    -76.22851653

 SCS-MP2 correlation energy:           -0.19838274   (PS=  1.200000  PT=  0.333333)
 SCS-MP2 total energy:                -76.22490939

 ITER.      SQ.NORM     CORR.ENERGY   TOTAL ENERGY   ENERGY CHANGE        DEN1      VAR(S)    VAR(P)  DIIS     TIME
   1      1.05303747    -0.21054234   -76.23706900    -0.00855247    -0.00496020  0.28D-03  0.68D-03  1  1     0.01
   2      1.05621597    -0.21147821   -76.23800487    -0.00093587    -0.00389572  0.53D-05  0.57D-04  2  2     0.01
   3      1.05700447    -0.21155307   -76.23807973    -0.00007486    -0.00059605  0.20D-05  0.23D-05  3  3     0.01
   4      1.05718253    -0.21155589   -76.23808255    -0.00000282    -0.00009705  0.13D-06  0.13D-06  4  4     0.01
   5      1.05721594    -0.21155444   -76.23808110     0.00000145    -0.00001546  0.34D-07  0.75D-08  5  5     0.01
   6      1.05722063    -0.21155438   -76.23808104     0.00000006     0.00000038  0.43D-08  0.82D-09  6  6     0.01
   7      1.05722333    -0.21155433   -76.23808098     0.00000006    -0.00000027  0.16D-09  0.68D-10  6  1     0.01
   8      1.05722371    -0.21155428   -76.23808094     0.00000005     0.00000006  0.39D-11  0.47D-11  6  2     0.01
   9      1.05722381    -0.21155427   -76.23808093     0.00000001    -0.00000005  0.89D-13  0.29D-12  6  3     0.01
  10      1.05722384    -0.21155427   -76.23808092     0.00000000    -0.00000002  0.19D-14  0.82D-14  6  4     0.02
  11      1.05722384    -0.21155427   -76.23808092     0.00000000    -0.00000000  0.16D-15  0.32D-15  6  6     0.02
  12      1.05722384    -0.21155427   -76.23808092     0.00000000    -0.00000000  0.41D-17  0.12D-16  6  5     0.02
  13      1.05722384    -0.21155427   -76.23808092    -0.00000000    -0.00000000  0.10D-17  0.90D-18  6  1     0.02
  14      1.05722384    -0.21155427   -76.23808092     0.00000000    -0.00000000  0.27D-18  0.79D-19  6  2     0.02
  15      1.05722384    -0.21155427   -76.23808092     0.00000000    -0.00000000  0.60D-19  0.81D-20  6  3     0.02
  16      1.05722384    -0.21155427   -76.23808092     0.00000000    -0.00000000  0.50D-20  0.15D-20  6  4     0.02

 Norm of t1 vector:      0.02383128      S-energy:    -0.00000000      T1 diagnostic:  0.00595782
                                                                       D1 diagnostic:  0.01129164

 Doubles amplitudes (print threshold =  0.500E-01):

         I         J         SYM. A    SYM. B    A         B      T(IJ, AB)

         4         4         2         2         1         1     -0.05142007


 Total CPU time for triples:      0.01 sec


 RESULTS
 =======

  Reference energy                    -76.026526657664
  CCSD singlet pair energy             -0.143582587961
  CCSD triplet pair energy             -0.067971677724
  CCSD correlation energy              -0.211554265685

  Triples (T) contribution             -0.003059338231
  Total correlation energy             -0.214613603917

  CCSD total energy                   -76.238080923349
  CCSD[T] energy                      -76.241226602270
  CCSD-T energy                       -76.241084818219
 !CCSD(T) total energy                -76.241140261580

 Timing summary (sec):

 STEP                 CPU(USER)    SYS     CPU(TOT)    WALL
 CCSD iterations         0.02      0.01      0.03      0.05
 Triples                 0.01      0.00      0.01      0.00

 Program statistics:

 Available memory in ccsd:               999999836
 Min. memory needed in ccsd:                 10413
 Max. memory used in ccsd:                   11148
 Max. memory used in cckext:                 44198 (16 integral passes)



 **********************************************************************************************************************************
 DATASETS  * FILE   NREC   LENGTH (MB)   RECORD NAMES
              1      20        2.90       500      610      700      900      950      970     1000      129      960     1100   
                                          VAR    BASINP    GEOM    SYMINP    ZMAT    AOBASIS   BASIS     P2S    ABASIS      S 
                                         1400     1410     1200     1210     1080     1600     1650     1300     1700     1380   
                                           T        V       H0       H01     AOSYM     SMH    MOLCAS    ERIS     OPER     JKOP   

              2       3        0.30       700     1000     2100   
                                         GEOM     BASIS     RHF  

 PROGRAMS   *        TOTAL   CCSD(T)       RHF       INT
 CPU TIMES  *         0.16      0.04      0.00      0.08
 REAL TIME  *         0.40 SEC
 DISK USED  *         8.05 MB      
 GA USED    *         0.00 MB       (max)       0.00 MB       (current)
 **********************************************************************************************************************************
 SETTING MP2DZ          =       -76.22851653  AU                              
 SETTING CCSDDZ         =       -76.23808092  AU                              
 SETTING CCSDT_DZ       =       -76.24114026  AU                              
 SCFDZ            =     -76.026526657663851 AU
 MP2DZ            =     -76.228516532792270 AU
 CCSDDZ           =     -76.238080923349315 AU
 CCSDT_DZ         =     -76.241140261580384 AU

        CCSD(T)         RHF-SCF 
    -76.24114026    -76.02652666
 **********************************************************************************************************************************
 Variable memory released
