
    -----------------------------------------------------------------------
          Psi4: An Open-Source Ab Initio Electronic Structure Package
                               Psi4 1.4a2.dev629 

                         Git: Rev {master} 2938fc2 dirty


    D. G. A. Smith, L. A. Burns, A. C. Simmonett, R. M. Parrish,
    M. C. Schieber, R. Galvelis, P. Kraus, H. Kruse, R. Di Remigio,
    A. Alenaizan, A. M. James, S. Lehtola, J. P. Misiewicz, M. Scheurer,
    R. A. Shaw, J. B. Schriber, Y. Xie, Z. L. Glick, D. A. Sirianni,
    J. S. O'Brien, J. M. Waldrop, A. Kumar, E. G. Hohenstein,
    B. P. Pritchard, B. R. Brooks, H. F. Schaefer III, A. Yu. Sokolov,
    K. Patkowski, A. E. DePrince III, U. Bozkaya, R. A. King,
    F. A. Evangelista, J. M. Turney, T. D. Crawford, C. D. Sherrill,
    J. Chem. Phys. 152(18) 184108 (2020). https://doi.org/10.1063/5.0006002

                            Additional Code Authors
    E. T. Seidl, C. L. Janssen, E. F. Valeev, M. L. Leininger,
    J. F. Gonthier, R. M. Richard, H. R. McAlexander, M. Saitow, X. Wang,
    P. Verma, and M. H. Lechner

             Previous Authors, Complete List of Code Contributors,
                       and Citations for Specific Modules
    https://github.com/psi4/psi4/blob/master/codemeta.json
    https://github.com/psi4/psi4/graphs/contributors
    http://psicode.org/psi4manual/master/introduction.html#citing-psifour

    -----------------------------------------------------------------------


    Psi4 started on: Wednesday, 21 September 2022 04:20PM

    Process ID: 215172
    Host:       n070
    PSIDATADIR: /opt/psi/4/master/share/psi4
    Memory:     500.0 MiB
    Threads:    1
    
  ==> Input File <==

--------------------------------------------------------------------------
# o-Benzyne preliminary computations

memory 14 gb

molecule {
  0 1
  units bohr
 C   -1.3750747331   -0.0242791164   -0.0008375267
 O    1.3060151141    0.1206925627   -0.0035768679
 H   -2.0778667241    1.9096126704    0.0012064973
 H   -2.1072416872   -0.9803958289    1.6812312903
 H   -2.1107323815   -0.9782815831   -1.6826411494
 H    1.9411762517   -1.5774808248    0.0046093465
}

set {
  basis cc-pvtz
  reference rhf
  e_convergence 10 
  d_convergence 10
  r_convergence 8
  maxiter 300
  freeze_core True
}

e, wfn = energy('ccsd(t)', return_wfn = True)
psi4.print_out('Giraffe The Energy is %.12f \n'%(e))
--------------------------------------------------------------------------

  Memory set to  13.039 GiB by Python driver.

Scratch directory: /tmp/

*** tstart() called on n070
*** at Wed Sep 21 16:20:57 2022

   => Loading Basis Set <=

    Name: CC-PVTZ
    Role: ORBITAL
    Keyword: BASIS
    atoms 1   entry C          line   186 file /opt/psi/4/master/share/psi4/basis/cc-pvtz.gbs 
    atoms 2   entry O          line   262 file /opt/psi/4/master/share/psi4/basis/cc-pvtz.gbs 
    atoms 3-6 entry H          line    23 file /opt/psi/4/master/share/psi4/basis/cc-pvtz.gbs 


         ---------------------------------------------------------
                                   SCF
               by Justin Turney, Rob Parrish, Andy Simmonett
                          and Daniel G. A. Smith
                              RHF Reference
                        1 Threads,  13351 MiB Core
         ---------------------------------------------------------

  ==> Geometry <==

    Molecular point group: c1
    Full point group: C1

    Geometry (in Bohr), charge = 0, multiplicity = 1:

       Center              X                  Y                   Z               Mass       
    ------------   -----------------  -----------------  -----------------  -----------------
         C           -1.375073593821    -0.024274261031     0.001124039969    12.000000000000
         O            1.306016253379     0.120697418069    -0.001615301231    15.994914619570
         H           -2.077865584821     1.909617525769     0.003168063969     1.007825032230
         H           -2.107240547921    -0.980390973531     1.683192856969     1.007825032230
         H           -2.110731242221    -0.978276727731    -1.680679582731     1.007825032230
         H            1.941177390979    -1.577475969431     0.006570913169     1.007825032230

  Running in c1 symmetry.

  Rotational constants: A =      4.28207  B =      0.82705  C =      0.79795 [cm^-1]
  Rotational constants: A = 128373.37035  B =  24794.32926  C =  23921.98044 [MHz]
  Nuclear repulsion =   40.307740197746746

  Charge       = 0
  Multiplicity = 1
  Electrons    = 18
  Nalpha       = 9
  Nbeta        = 9

  ==> Algorithm <==

  SCF Algorithm Type is PK.
  DIIS enabled.
  MOM disabled.
  Fractional occupation disabled.
  Guess Type is SAD.
  Energy threshold   = 1.00e-10
  Density threshold  = 1.00e-10
  Integral threshold = 0.00e+00

  ==> Primary Basis <==

  Basis Set: CC-PVTZ
    Blend: CC-PVTZ
    Number of shells: 44
    Number of basis function: 116
    Number of Cartesian functions: 130
    Spherical Harmonics?: true
    Max angular momentum: 3

  ==> Integral Setup <==

  Using in-core PK algorithm.
   Calculation information:
      Number of atoms:                   6
      Number of AO shells:              44
      Number of primitives:             84
      Number of atomic orbitals:       130
      Number of basis functions:       116

      Integral cutoff                 1.00e-12
      Number of threads:                 1

  Performing in-core PK
  Using 46056582 doubles for integral storage.
  We computed 490475 shell quartets total.
  Whereas there are 490545 unique shell quartets.

  ==> DiskJK: Disk-Based J/K Matrices <==

    J tasked:                  Yes
    K tasked:                  Yes
    wK tasked:                  No
    Memory [MiB]:            10013
    Schwarz Cutoff:          1E-12

    OpenMP threads:              1

  Minimum eigenvalue in the overlap matrix is 1.8504388110E-03.
  Reciprocal condition number of the overlap matrix is 2.7981538449E-04.
    Using symmetric orthogonalization.

  ==> Pre-Iterations <==

  SCF Guess: Superposition of Atomic Densities via on-the-fly atomic UHF (no occupation information).

   -------------------------
    Irrep   Nso     Nmo    
   -------------------------
     A        116     116 
   -------------------------
    Total     116     116
   -------------------------

  ==> Iterations <==

                        Total Energy        Delta E     RMS |[F,P]|

   @RHF iter SAD:  -114.41439285928632   -1.14414e+02   0.00000e+00 
   @RHF iter   1:  -115.01448542417980   -6.00093e-01   3.41257e-03 DIIS
   @RHF iter   2:  -115.07131139999943   -5.68260e-02   1.95512e-03 DIIS
   @RHF iter   3:  -115.08815169686062   -1.68403e-02   3.00935e-04 DIIS
   @RHF iter   4:  -115.08903599544523   -8.84299e-04   8.77549e-05 DIIS
   @RHF iter   5:  -115.08910948798261   -7.34925e-05   2.14377e-05 DIIS
   @RHF iter   6:  -115.08911434969683   -4.86171e-06   4.73777e-06 DIIS
   @RHF iter   7:  -115.08911471725708   -3.67560e-07   1.09822e-06 DIIS
   @RHF iter   8:  -115.08911473878385   -2.15268e-08   2.26669e-07 DIIS
   @RHF iter   9:  -115.08911473969209   -9.08244e-10   4.21330e-08 DIIS
   @RHF iter  10:  -115.08911473972223   -3.01412e-11   1.08652e-08 DIIS
   @RHF iter  11:  -115.08911473972394   -1.70530e-12   2.22842e-09 DIIS
   @RHF iter  12:  -115.08911473972408   -1.42109e-13   3.98686e-10 DIIS
   @RHF iter  13:  -115.08911473972391    1.70530e-13   7.35295e-11 DIIS
  Energy and wave function converged.


  ==> Post-Iterations <==

    Orbital Energies [Eh]
    ---------------------

    Doubly Occupied:                                                      

       1A    -20.552620     2A    -11.269754     3A     -1.354102  
       4A     -0.923076     5A     -0.687873     6A     -0.617659  
       7A     -0.590046     8A     -0.502057     9A     -0.449146  

    Virtual:                                                              

      10A      0.138409    11A      0.178612    12A      0.220168  
      13A      0.223731    14A      0.290536    15A      0.386808  
      16A      0.404482    17A      0.544501    18A      0.583150  
      19A      0.623034    20A      0.625001    21A      0.637995  
      22A      0.689882    23A      0.703318    24A      0.720936  
      25A      0.833279    26A      0.864638    27A      0.872111  
      28A      0.927873    29A      1.067827    30A      1.100401  
      31A      1.177510    32A      1.189288    33A      1.261334  
      34A      1.272491    35A      1.281866    36A      1.365213  
      37A      1.446636    38A      1.491715    39A      1.521774  
      40A      1.544732    41A      1.582029    42A      1.619397  
      43A      1.772878    44A      2.092316    45A      2.179921  
      46A      2.196951    47A      2.299755    48A      2.322920  
      49A      2.489946    50A      2.511181    51A      2.578304  
      52A      2.805044    53A      2.949583    54A      3.054985  
      55A      3.108515    56A      3.115323    57A      3.145090  
      58A      3.222185    59A      3.242297    60A      3.312529  
      61A      3.313792    62A      3.342107    63A      3.384099  
      64A      3.499489    65A      3.612506    66A      3.633444  
      67A      3.698499    68A      3.705927    69A      3.743810  
      70A      3.759964    71A      3.813650    72A      3.835713  
      73A      3.904100    74A      4.010074    75A      4.028112  
      76A      4.117256    77A      4.159421    78A      4.168520  
      79A      4.245983    80A      4.254611    81A      4.285308  
      82A      4.396840    83A      4.435185    84A      4.463769  
      85A      4.555104    86A      4.579114    87A      4.709664  
      88A      4.780193    89A      4.991174    90A      5.030308  
      91A      5.050150    92A      5.199029    93A      5.264675  
      94A      5.309284    95A      5.365984    96A      5.435049  
      97A      5.538705    98A      5.541605    99A      5.557630  
     100A      5.784725   101A      5.943463   102A      6.187781  
     103A      6.205959   104A      6.243003   105A      6.423806  
     106A      6.635540   107A      6.994317   108A      7.125667  
     109A      7.175974   110A      7.235878   111A      7.352373  
     112A      7.428141   113A      7.594451   114A      7.907705  
     115A     12.127732   116A     13.687647  

    Final Occupation by Irrep:
              A 
    DOCC [     9 ]

  @RHF Final Energy:  -115.08911473972391

   => Energetics <=

    Nuclear Repulsion Energy =             40.3077401977467460
    One-Electron Energy =                -236.9010446034350821
    Two-Electron Energy =                  81.5041896659644323
    Total Energy =                       -115.0891147397239109

Computation Completed


Properties will be evaluated at   0.000000,   0.000000,   0.000000 [a0]

Properties computed using the SCF density matrix

  Nuclear Dipole Moment: [e a0]
     X:    -2.1570      Y:    -0.8066      Z:     0.0061

  Electronic Dipole Moment: [e a0]
     X:     1.7698      Y:     0.2184      Z:    -0.0025

  Dipole Moment: [e a0]
     X:    -0.3872      Y:    -0.5882      Z:     0.0036     Total:     0.7042

  Dipole Moment: [D]
     X:    -0.9842      Y:    -1.4950      Z:     0.0091     Total:     1.7899


*** tstop() called on n070 at Wed Sep 21 16:21:02 2022
Module time:
	user time   =       4.89 seconds =       0.08 minutes
	system time =       0.09 seconds =       0.00 minutes
	total time  =          5 seconds =       0.08 minutes
Total time:
	user time   =       4.89 seconds =       0.08 minutes
	system time =       0.09 seconds =       0.00 minutes
	total time  =          5 seconds =       0.08 minutes
 MINTS: Wrapper to libmints.
   by Justin Turney

   Calculation information:
      Number of threads:                 1
      Number of atoms:                   6
      Number of AO shells:              44
      Number of SO shells:              44
      Number of primitives:             84
      Number of atomic orbitals:       130
      Number of basis functions:       116

      Number of irreps:                  1
      Integral cutoff                 0.00e+00
      Number of functions per irrep: [ 116 ]

 OEINTS: Overlap, kinetic, potential, dipole, and quadrupole integrals
         stored in file 35.

      Computing two-electron integrals...done
      Computed 22872265 non-zero two-electron integrals.
        Stored in file 33.


*** tstart() called on n070
*** at Wed Sep 21 16:21:04 2022


	Wfn Parameters:
	--------------------
	Wavefunction         = CCSD_T
	Number of irreps     = 1
	Number of MOs        = 116
	Number of active MOs = 114
	AO-Basis             = NONE
	Semicanonical        = false
	Reference            = RHF
	Print Level          = 1

	IRREP	# MOs	# FZDC	# DOCC	# SOCC	# VIRT	# FZVR
	-----	-----	------	------	------	------	------
	 A	   116	    2	    7	    0	    107	    0
	Transforming integrals...
	IWL integrals will be deleted.
	(OO|OO)...
	Presorting SO-basis two-electron integrals.
	Sorting File: SO Ints (nn|nn) nbuckets = 1
	Transforming the one-electron integrals and constructing Fock matrices
	Starting first half-transformation.
	Sorting half-transformed integrals.
	First half integral transformation complete.
	Starting second half-transformation.
	Two-electron integral transformation complete.
	(OO|OV)...
	Starting second half-transformation.
	Two-electron integral transformation complete.
	(OO|VV)...
	Starting second half-transformation.
	Two-electron integral transformation complete.
	(OV|OO)...
	Starting first half-transformation.
	Sorting half-transformed integrals.
	First half integral transformation complete.
	Starting second half-transformation.
	Two-electron integral transformation complete.
	(OV|OV)...
	Starting second half-transformation.
	Two-electron integral transformation complete.
	(OV|VV)...
	Starting second half-transformation.
	Two-electron integral transformation complete.
	(VV|OO)...
	Starting first half-transformation.
	Sorting half-transformed integrals.
	First half integral transformation complete.
	Starting second half-transformation.
	Two-electron integral transformation complete.
	(VV|OV)...
	Starting second half-transformation.
	Two-electron integral transformation complete.
	(VV|VV)...
	Starting second half-transformation.
	Two-electron integral transformation complete.
	Frozen core energy     =   -106.48983617691719

	Size of irrep 0 of <ab|cd> integrals:    131.080 (MW) /   1048.637 (MB)
	Total:                                   131.080 (MW) /   1048.637 (MB)

	Size of irrep 0 of <ia|bc> integrals:      8.575 (MW) /     68.602 (MB)
	Total:                                     8.575 (MW) /     68.602 (MB)

	Size of irrep 0 of tijab amplitudes:       0.561 (MW) /      4.488 (MB)
	Total:                                     0.561 (MW) /      4.488 (MB)

	Nuclear Rep. energy          =     40.30774019774675
	SCF energy                   =   -115.08911473972391
	One-electron energy          =    -87.56611950809319
	Two-electron energy          =     38.65910074754012
	Reference energy             =   -115.08911473972353

*** tstop() called on n070 at Wed Sep 21 16:21:15 2022
Module time:
	user time   =       7.72 seconds =       0.13 minutes
	system time =       3.12 seconds =       0.05 minutes
	total time  =         11 seconds =       0.18 minutes
Total time:
	user time   =      14.22 seconds =       0.24 minutes
	system time =       3.39 seconds =       0.06 minutes
	total time  =         18 seconds =       0.30 minutes
            **************************
            *                        *
            *        CCENERGY        *
            *                        *
            **************************

    Nuclear Rep. energy (wfn)     =   40.307740197746746
    SCF energy          (wfn)     = -115.089114739723911
    Reference energy    (file100) = -115.089114739723527

    Input parameters:
    -----------------
    Wave function   =     CCSD_T
    Reference wfn   =     RHF
    Brueckner       =     No
    Memory (Mbytes) =     14000.0
    Maxiter         =    300
    R_Convergence   =     1.0e-08
    E_Convergence   =     1.0e-10
    Restart         =     Yes
    DIIS            =     Yes
    AO Basis        =     NONE
    ABCD            =     NEW
    Cache Level     =     2
    Cache Type      =     LOW
    Print Level     =     1
    Num. of threads =     1
    # Amps to Print =     10
    Print MP2 Amps? =     No
    Analyze T2 Amps =     No
    Print Pair Ener =     No
    Local CC        =     No
    SCS-MP2         =     False
    SCSN-MP2        =     False
    SCS-CCSD        =     False

MP2 correlation energy -0.4283342360847707
                Solving CC Amplitude Equations
                ------------------------------
  Iter             Energy              RMS        T1Diag      D1Diag    New D1Diag    D2Diag
  ----     ---------------------    ---------   ----------  ----------  ----------   --------
     0        -0.428334236084771    0.000e+00    0.000000    0.000000    0.000000    0.128386
     1        -0.435619564597465    4.785e-02    0.007307    0.014794    0.014794    0.129725
     2        -0.445454326327650    1.576e-02    0.007423    0.014729    0.014729    0.135515
     3        -0.446925524687723    5.532e-03    0.008330    0.016878    0.016878    0.136963
     4        -0.446833727392119    1.221e-03    0.008390    0.016994    0.016994    0.137199
     5        -0.446876620318703    4.460e-04    0.008429    0.017140    0.017140    0.137301
     6        -0.446884127948505    1.283e-04    0.008440    0.017197    0.017197    0.137309
     7        -0.446881635474310    4.759e-05    0.008443    0.017214    0.017214    0.137306
     8        -0.446881663424215    1.752e-05    0.008444    0.017224    0.017224    0.137306
     9        -0.446881746699261    4.965e-06    0.008445    0.017226    0.017226    0.137306
    10        -0.446881496360892    1.573e-06    0.008445    0.017226    0.017226    0.137306
    11        -0.446881561804188    4.897e-07    0.008445    0.017226    0.017226    0.137306
    12        -0.446881546995132    1.201e-07    0.008445    0.017226    0.017226    0.137306
    13        -0.446881550486615    4.351e-08    0.008445    0.017226    0.017226    0.137306
    14        -0.446881551701608    1.232e-08    0.008445    0.017226    0.017226    0.137306
    15        -0.446881551742086    5.141e-09    0.008445    0.017226    0.017226    0.137306
    16        -0.446881551764985    1.584e-09    0.008445    0.017226    0.017226    0.137306

    Iterations converged.


    Largest TIA Amplitudes:
              3   6        -0.0081344132
              3  14         0.0076002386
              6  14        -0.0067282724
              3   9         0.0067219632
              4   7         0.0058764955
              5   8         0.0058199897
              4   3        -0.0057808594
              6   6         0.0054855087
              3   2         0.0054843419
              4   5        -0.0051545265

    Largest TIjAb Amplitudes:
      3   3   9   9        -0.0231260143
      4   4   7   7        -0.0215787223
      6   6  14  14        -0.0210966077
      5   5  12  12        -0.0203805755
      2   2   7   7        -0.0190547302
      4   4   8   8        -0.0160900020
      3   3  14  14        -0.0151792665
      3   3   2   9        -0.0151131952
      3   3   9   2        -0.0151131952
      3   6   9   9        -0.0150207049

    SCF energy       (wfn)                    = -115.089114739723911
    Reference energy (file100)                = -115.089114739723527

    Opposite-spin MP2 correlation energy      =   -0.330131614809055
    Same-spin MP2 correlation energy          =   -0.098202621275716
    Singles MP2 correlation energy            =   -0.000000000000000
    MP2 correlation energy                    =   -0.428334236084771
      * MP2 total energy                      = -115.517448975808293

    Opposite-spin CCSD correlation energy     =   -0.357718830204443
    Same-spin CCSD correlation energy         =   -0.089162721560541
    Singles CCSD correlation energy           =    0.000000000000000
    CCSD correlation energy                   =   -0.446881551764985
      * CCSD total energy                     = -115.535996291488516

            **************************
            *                        *
            *        CCTRIPLES       *
            *                        *
            **************************


    Wave function   =    CCSD_T
    Reference wfn   =      RHF

    Nuclear Rep. energy (wfn)                =   40.307740197746746
    SCF energy          (wfn)                = -115.089114739723911
    Reference energy    (file100)            = -115.089114739723527
    CCSD energy         (file100)            =   -0.446881551764985
    Total CCSD energy   (file100)            = -115.535996291488516

    Number of ijk index combinations:               84
    Memory available in words        :      1750000000
    ~Words needed per explicit thread:         4900172
    Number of threads for explicit ijk threading:    1

    MKL num_threads set to 1 for explicit threading.

    (T) energy                                =   -0.014790163570115
      * CCSD(T) total energy                  = -115.550786455058628

Giraffe The Energy is -115.550786455059 

    Psi4 stopped on: Wednesday, 21 September 2022 04:21PM
    Psi4 wall time for execution: 0:00:51.51

*** Psi4 exiting successfully. Buy a developer a beer!
