
 Primary working directories    : /tmp/601556.14.gen6.q
 Secondary working directories  : /tmp/601556.14.gen6.q
 Wavefunction directory         : /home/vulcan/mel64643/wfu/
 Main file repository           : /tmp/601556.14.gen6.q/

 ARCHNAME  : Linux/x86_64
 FC        : /opt/intel/compilers_and_libraries_2016.1.150/linux/bin/intel64/ifort
 FCVERSION : 16.0.1
 BLASLIB   : -mkl
 id        : ccgc

 Nodes     nprocs
 n091         1
 ga_uses_ma=false, calling ma_init with nominal heap.
 GA-space will be limited to   8.0 MW (determined by -G option)

 Using customized tuning parameters: mindgm=10; mindgv=16; mindgc=4; mindgr=1; noblas=0; mincuda=1000; minvec=7
 default implementation of scratch files=df  

 ***,Optimization of min3
 memory,1000,m
 gthresh,energy=1.0d-12,orbital=1.0d-10,oneint=1.0d-16,twoint=1.0d-16,optgrad=1.0d-6,compress=1.0d-13
 geomtyp=xyz
 
  bohr
  geometry = {
  6
  arbitrary comment
  C   -1.3750701836   -0.0242765600   -0.0015402949
  O    1.3060129847    0.1206988373   -0.0010643996
  H   -2.0778787653    1.9096018845    0.0044129730
  H   -2.1113956015   -0.9760394222    1.6814629091
  H   -2.1065656333   -0.9826226166   -1.6824178251
  H    1.9411730390   -1.5774942431   -0.0008617725
 }
 
 basis=cc-pvtz
 {rhf;maxit,200}
 {ccsd(t);maxit,200}

 Variables initialized (661), CPU time= 0.01 sec
 Commands  initialized (458), CPU time= 0.00 sec, 486 directives.
 Default parameters read. Elapsed time= 0.04 sec

 Checking input...
 Passed
1


                                         ***  PROGRAM SYSTEM MOLPRO  ***
                         Copyright, University College Cardiff Consultants Limited, 2008

                                    Version 2010.1 linked May 16 2016 07:17:05


 **********************************************************************************************************************************
 LABEL *   Optimization of min3                                                          
 Linux-4.4.3/n091(x86_64) 64 bit mpp version                                             DATE: 06-Nov-21          TIME: 15:41:15  
 **********************************************************************************************************************************

 SHA1:             9e8077add272b0f3cad6f7df79ec5211205f459d
 **********************************************************************************************************************************

 THRESHOLDS:

 ZERO    =  1.00D-12  ONEINT  =  1.00D-16  TWOINT  =  1.00D-16  PREFAC  =  1.00D-14  LOCALI  =  1.00D-09  EORDER  =  1.00D-04
 ENERGY  =  1.00D-12  ETEST   =  0.00D+00  EDENS   =  0.00D+00  THRDEDEF=  1.00D-06  GRADIENT=  1.00D-02  STEP    =  1.00D-03
 ORBITAL =  1.00D-10  CIVEC   =  1.00D-05  COEFF   =  1.00D-04  PRINTCI =  5.00D-02  PUNCHCI =  9.90D+01  OPTGRAD =  1.00D-06
 OPTENERG=  1.00D-06  OPTSTEP =  3.00D-04  THRGRAD =  1.00D-10  COMPRESS=  1.00D-13  VARMIN  =  1.00D-07  VARMAX  =  1.00D-03
 THRDOUB =  0.00D+00  THRDIV  =  1.00D-05  THRRED  =  1.00D-07  THRPSP  =  1.00D+00  THRDC   =  1.00D-10  THRCS   =  1.00D-10
 THRNRM  =  1.00D-08  THREQ   =  0.00D+00  THRDE   =  1.00D+00  THRREF  =  1.00D-05  SPARFAC =  1.00D+00  THRDLP  =  1.00D-07
 THRDIA  =  1.00D-10  THRDLS  =  1.00D-07  THRGPS  =  0.00D+00  THRKEX  =  0.00D+00  THRDIS  =  2.00D-01  THRVAR  =  1.00D-10
 THRLOC  =  1.00D-06  THRGAP  =  1.00D-06  THRLOCT = -1.00D+00  THRGAPT = -1.00D+00  THRORB  =  1.00D-06  THRMLTP =  0.00D+00
 THRCPQCI=  1.00D-10  KEXTA   =  0.00D+00  THRCOARS=  0.00D+00  SYMTOL  =  1.00D-06  GRADTOL =  1.00D-06  THROVL  =  1.00D-08
 THRORTH =  1.00D-08  GRID    =  1.00D-06  GRIDMAX =  1.00D-03  DTMAX   =  0.00D+00

 SETTING GEOMTYP        =    XYZ
 ZUNIT=BOHR
 

 Variable memory set to 1000000000 words,  buffer space   230000 words

 SETTING BASIS          =    CC-PVTZ


 Recomputing integrals since basis changed


 Using spherical harmonics

 Library entry C      S cc-pVTZ              selected for orbital group  1
 Library entry C      P cc-pVTZ              selected for orbital group  1
 Library entry C      D cc-pVTZ              selected for orbital group  1
 Library entry C      F cc-pVTZ              selected for orbital group  1
 Library entry O      S cc-pVTZ              selected for orbital group  2
 Library entry O      P cc-pVTZ              selected for orbital group  2
 Library entry O      D cc-pVTZ              selected for orbital group  2
 Library entry O      F cc-pVTZ              selected for orbital group  2
 Library entry H      S cc-pVTZ              selected for orbital group  3
 Library entry H      P cc-pVTZ              selected for orbital group  3
 Library entry H      D cc-pVTZ              selected for orbital group  3

1PROGRAM * SEWARD (Integral evaluation for generally contracted gaussian basis sets)     Author: Roland Lindh, 1990

 Geometry written to block  1 of record 700


 Point group  C1  



 ATOMIC COORDINATES

 NR  ATOM    CHARGE       X              Y              Z

   1  C       6.00   -1.375070184   -0.024276560   -0.001540295
   2  O       8.00    1.306012985    0.120698837   -0.001064400
   3  H       1.00   -2.077878765    1.909601885    0.004412973
   4  H       1.00   -2.111395601   -0.976039422    1.681462909
   5  H       1.00   -2.106565633   -0.982622617   -1.682417825
   6  H       1.00    1.941173039   -1.577494243   -0.000861772

 Bond lengths in Bohr (Angstrom)

 1-2  2.685000009  1-3  2.057634851  1-4  2.068943559  1-5  2.068541039  2-6  1.813087994
     ( 1.420840811)     ( 1.088853468)     ( 1.094837778)     ( 1.094624774)     ( 0.959444844)

 Bond angles

  1-2-6  107.41169277   2-1-3  106.87684754   2-1-4  112.33800722   2-1-5  112.22670519

  3-1-4  107.96537293   3-1-5  108.48134503   4-1-5  108.78566900

 NUCLEAR CHARGE:                   18
 NUMBER OF PRIMITIVE AOS:         162
 NUMBER OF SYMMETRY AOS:          148
 NUMBER OF CONTRACTIONS:          116   ( 116A   )
 NUMBER OF CORE ORBITALS:           2   (   2A   )
 NUMBER OF VALENCE ORBITALS:       12   (  12A   )


 NUCLEAR REPULSION ENERGY   40.30779194


 Eigenvalues of metric

         1 0.133E-02 0.180E-02 0.191E-02 0.235E-02 0.330E-02 0.461E-02 0.738E-02 0.100E-01


 Contracted 2-electron integrals neglected if value below      1.0D-16
 AO integral compression algorithm  1   Integral accuracy      1.0D-16

     207.618 MB (compressed) written to integral file ( 97.3%)

     Node minimum: 207.618 MB, node maximum: 207.618 MB


 NUMBER OF SORTED TWO-ELECTRON INTEGRALS:   23028291.     BUFFER LENGTH:  32768
 NUMBER OF SEGMENTS:   2  SEGMENT LENGTH:   15997996      RECORD LENGTH: 524288

 Memory used in sort:      16.56 MW

 SORT1 READ    26631627. AND WROTE    22815980. INTEGRALS IN     67 RECORDS. CPU TIME:     0.21 SEC, REAL TIME:     0.35 SEC
 SORT2 READ    22815980. AND WROTE    23028291. INTEGRALS IN    792 RECORDS. CPU TIME:     0.17 SEC, REAL TIME:     0.28 SEC

 FILE SIZES:   FILE 1:   185.1 MBYTE,  FILE 4:   281.1 MBYTE,   TOTAL:    466.1 MBYTE

 OPERATOR DM      FOR CENTER  0  COORDINATES:    0.000000    0.000000    0.000000


 **********************************************************************************************************************************
 DATASETS  * FILE   NREC   LENGTH (MB)   RECORD NAMES
              1      19      185.22       500      610      700      900      950      970     1000      129      960     1100   
                                          VAR    BASINP    GEOM    SYMINP    ZMAT    AOBASIS   BASIS     P2S    ABASIS      S 
                                         1400     1410     1200     1210     1080     1600     1650     1300     1700   
                                           T        V       H0       H01     AOSYM     SMH    MOLCAS    ERIS     OPER   

 PROGRAMS   *        TOTAL       INT
 CPU TIMES  *         1.32      1.28
 REAL TIME  *         1.85 SEC
 DISK USED  *       674.37 MB      
 GA USED    *         0.00 MB       (max)       0.00 MB       (current)
 **********************************************************************************************************************************

1PROGRAM * RHF-SCF (CLOSED SHELL)       Authors: W. Meyer, H.-J. Werner


 NUMBER OF ELECTRONS:       9+    9-    SPACE SYMMETRY=1    SPIN SYMMETRY: Singlet 
 CONVERGENCE THRESHOLDS:    1.00E-10 (Density)    1.00E-13 (Energy)
 MAX. NUMBER OF ITERATIONS:      200
 INTERPOLATION TYPE:            DIIS
 INTERPOLATION STEPS:              2 (START)      1 (STEP)
 LEVEL SHIFTS:                  0.00 (CLOSED)  0.00 (OPEN) 



 Orbital guess generated from atomic densities. Full valence occupancy:   14

 Molecular orbital dump at record        2100.2

 ITERATION    DDIFF          GRAD             ENERGY        2-EL.EN.            DIPOLE MOMENTS         DIIS
    1      0.000D+00      0.000D+00      -115.05317340    164.437798   -0.48600   -0.90498    0.00116    0
    2      0.000D+00      0.474D-02      -115.08148882    161.988590   -0.29811   -0.50138    0.00047    1
    3      0.784D-02      0.254D-02      -115.08857253    163.158739   -0.38986   -0.59915    0.00051    2
    4      0.257D-02      0.497D-03      -115.08907938    163.003325   -0.38296   -0.59316    0.00046    3
    5      0.686D-03      0.981D-04      -115.08911031    163.010429   -0.38658   -0.58844    0.00043    4
    6      0.186D-03      0.186D-04      -115.08911167    163.009009   -0.38698   -0.58844    0.00043    5
    7      0.479D-04      0.393D-05      -115.08911173    163.008097   -0.38717   -0.58823    0.00043    6
    8      0.910D-05      0.119D-05      -115.08911173    163.008561   -0.38720   -0.58820    0.00043    7
    9      0.233D-05      0.323D-06      -115.08911173    163.008456   -0.38721   -0.58819    0.00043    6
   10      0.767D-06      0.597D-07      -115.08911173    163.008467   -0.38721   -0.58819    0.00043    6
   11      0.158D-06      0.150D-07      -115.08911173    163.008470   -0.38721   -0.58819    0.00043    6
   12      0.298D-07      0.632D-08      -115.08911173    163.008468   -0.38721   -0.58819    0.00043    7
   13      0.111D-07      0.171D-08      -115.08911173    163.008469   -0.38721   -0.58819    0.00043    7
   14      0.347D-08      0.353D-09      -115.08911173    163.008469   -0.38721   -0.58819    0.00043    7
   15      0.848D-09      0.904D-10      -115.08911173    163.008469   -0.38721   -0.58819    0.00043    7
   16      0.184D-09      0.225D-10      -115.08911173    163.008469   -0.38721   -0.58819    0.00043    7
   17      0.517D-10      0.731D-11      -115.08911173    163.008469   -0.38721   -0.58819    0.00043    7
   18      0.146D-10      0.157D-11      -115.08911173    163.008469   -0.38721   -0.58819    0.00043    7
   19      0.304D-11      0.498D-12      -115.08911173    163.008469   -0.38721   -0.58819    0.00043    7
   20      0.117D-11      0.124D-12      -115.08911173    163.008469   -0.38721   -0.58819    0.00043    7
   21      0.288D-12      0.484D-13      -115.08911173    163.008469   -0.38721   -0.58819    0.00043    7
   22      0.135D-12      0.298D-13      -115.08911173    163.008469   -0.38721   -0.58819    0.00043    8
   23      0.984D-13      0.285D-13      -115.08911173    163.008469   -0.38721   -0.58819    0.00043    8
   24      0.582D-13      0.210D-13      -115.08911173    163.008469   -0.38721   -0.58819    0.00043    9
   25      0.455D-13      0.244D-13      -115.08911173    163.008469   -0.38721   -0.58819    0.00043    9
   26      0.256D-13      0.196D-13      -115.08911173    163.008469   -0.38721   -0.58819    0.00043    9
   27      0.146D-13      0.210D-13      -115.08911173    163.008469   -0.38721   -0.58819    0.00043    0

 Final occupancy:   9

 !RHF STATE 1.1 Energy               -115.089111729941
 Nuclear energy                        40.30779194
 One-electron energy                 -236.90113795
 Two-electron energy                   81.50423427
 Virial quotient                       -1.00128814
 !RHF STATE 1.1 Dipole moment          -0.38721204    -0.58818735     0.00042600
 Dipole moment /Debye                  -0.98413039    -1.49492521     0.00108271

 Orbital energies:

         1.1          2.1          3.1          4.1          5.1          6.1          7.1          8.1          9.1         10.1
    -20.552620   -11.269754    -1.354103    -0.923076    -0.687873    -0.617667    -0.590041    -0.502055    -0.449144     0.138409

        11.1
      0.178611


 **********************************************************************************************************************************
 DATASETS  * FILE   NREC   LENGTH (MB)   RECORD NAMES
              1      19      185.22       500      610      700      900      950      970     1000      129      960     1100   
                                          VAR    BASINP    GEOM    SYMINP    ZMAT    AOBASIS   BASIS     P2S    ABASIS      S 
                                         1400     1410     1200     1210     1080     1600     1650     1300     1700   
                                           T        V       H0       H01     AOSYM     SMH    MOLCAS    ERIS     OPER   

              2       3        0.63       700     1000     2100   
                                         GEOM     BASIS     RHF  

 PROGRAMS   *        TOTAL       RHF       INT
 CPU TIMES  *         4.80      3.48      1.28
 REAL TIME  *         5.83 SEC
 DISK USED  *       674.37 MB      
 GA USED    *         0.00 MB       (max)       0.00 MB       (current)
 **********************************************************************************************************************************


1PROGRAM * CCSD (Closed-shell coupled cluster)     Authors: C. Hampel, H.-J. Werner, 1991, M. Deegan, P.J. Knowles, 1992


 Convergence thresholds:  THRVAR = 1.00D-08  THRDEN = 1.00D-12

 CCSD(T)     terms to be evaluated (factor= 1.000)


 Number of core orbitals:           2 (   2 )
 Number of closed-shell orbitals:   7 (   7 )
 Number of external orbitals:     107 ( 107 )

 Molecular orbitals read from record     2100.2  Type=RHF/CANONICAL (state 1.1)

 Number of N-1 electron functions:               7
 Number of N-2 electron functions:              28
 Number of singly external CSFs:               749
 Number of doubly external CSFs:            280875
 Total number of CSFs:                      281625

 Length of J-op  integral file:               0.00 MB
 Length of K-op  integral file:               0.96 MB
 Length of 3-ext integral record:             0.00 MB

 Memory could be reduced to 12.77 Mwords without degradation in triples

 Integral transformation finished. Total CPU:   0.45 sec, npass=  1  Memory used:   7.23 MW

 Reference energy:                   -115.08911173

 MP2 singlet pair energy:              -0.28103037
 MP2 triplet pair energy:              -0.14730410
 MP2 correlation energy:               -0.42833447
 MP2 total energy:                   -115.51744620

 SCS-MP2 correlation energy:           -0.42889233   (PS=  1.200000  PT=  0.333333)
 SCS-MP2 total energy:               -115.51800406

 ITER.      SQ.NORM     CORR.ENERGY   TOTAL ENERGY   ENERGY CHANGE        DEN1      VAR(S)    VAR(P)  DIIS     TIME
   1      1.11803193    -0.44561921  -115.53473094    -0.01728475    -0.00693411  0.12D-02  0.18D-02  1  1     0.97
   2      1.12591347    -0.44680428  -115.53591601    -0.00118507    -0.00944914  0.16D-04  0.22D-03  2  2     1.55
   3      1.12850498    -0.44688087  -115.53599260    -0.00007659    -0.00178366  0.75D-05  0.10D-04  3  3     2.12
   4      1.12914505    -0.44688230  -115.53599403    -0.00000143    -0.00033291  0.35D-06  0.84D-06  4  4     2.70
   5      1.12925051    -0.44688413  -115.53599586    -0.00000183    -0.00003994  0.11D-06  0.65D-07  5  5     3.27
   6      1.12927550    -0.44688196  -115.53599369     0.00000217    -0.00000746  0.18D-07  0.50D-08  6  6     3.84
   7      1.12927908    -0.44688187  -115.53599360     0.00000009    -0.00000027  0.26D-08  0.90D-09  6  2     4.41
   8      1.12928043    -0.44688182  -115.53599355     0.00000005     0.00000002  0.42D-09  0.11D-09  6  1     4.99
   9      1.12928116    -0.44688177  -115.53599350     0.00000005    -0.00000003  0.28D-10  0.17D-10  6  3     5.57
  10      1.12928124    -0.44688178  -115.53599351    -0.00000002     0.00000007  0.25D-11  0.19D-11  6  4     6.15
  11      1.12928110    -0.44688179  -115.53599352    -0.00000001     0.00000011  0.23D-12  0.12D-12  6  6     6.72
  12      1.12928109    -0.44688179  -115.53599352    -0.00000000     0.00000001  0.27D-13  0.11D-13  6  5     7.30
  13      1.12928109    -0.44688179  -115.53599352    -0.00000000    -0.00000000  0.56D-14  0.17D-14  6  2     7.87
  14      1.12928109    -0.44688179  -115.53599352     0.00000000    -0.00000000  0.44D-15  0.14D-15  6  1     8.45
  15      1.12928109    -0.44688179  -115.53599352    -0.00000000    -0.00000000  0.64D-16  0.28D-16  6  3     9.02
  16      1.12928109    -0.44688179  -115.53599352     0.00000000     0.00000000  0.18D-16  0.34D-17  6  4     9.60
  17      1.12928109    -0.44688179  -115.53599352    -0.00000000     0.00000000  0.13D-17  0.74D-18  6  5    10.18
  18      1.12928109    -0.44688179  -115.53599352    -0.00000000     0.00000000  0.11D-18  0.48D-19  6  6    10.75
  19      1.12928109    -0.44688179  -115.53599352     0.00000000    -0.00000000  0.25D-19  0.11D-19  6  2    11.33
  20      1.12928109    -0.44688179  -115.53599352     0.00000000    -0.00000000  0.24D-20  0.93D-21  6  1    11.91

 Norm of t1 vector:      0.04468547      S-energy:    -0.00000000      T1 diagnostic:  0.00844476
                                                                       D1 diagnostic:  0.01722782


 Total CPU time for triples:      5.98 sec


 RESULTS
 =======

  Reference energy                   -115.089111729941
  CCSD singlet pair energy             -0.313137550451
  CCSD triplet pair energy             -0.133744244109
  CCSD correlation energy              -0.446881794560

  Triples (T) contribution             -0.014790182675
  Total correlation energy             -0.461671977235

  CCSD total energy                  -115.535993524501
  CCSD[T] energy                     -115.551249884146
  CCSD-T energy                      -115.550518049881
 !CCSD(T) total energy               -115.550783707176

 Timing summary (sec):

 STEP                 CPU(USER)    SYS     CPU(TOT)    WALL
 Transformation          0.46      0.07      0.53      0.53
 CCSD iterations        11.45      0.60     12.05     12.09
 Triples                 5.98      0.11      6.09      6.09

 Program statistics:

 Available memory in ccsd:               999999704
 Min. memory needed in ccsd:                915605
 Max. memory used in ccsd:                 1141922
 Max. memory used in cckext:                874802 (20 integral passes)



 **********************************************************************************************************************************
 DATASETS  * FILE   NREC   LENGTH (MB)   RECORD NAMES
              1      20      224.62       500      610      700      900      950      970     1000      129      960     1100   
                                          VAR    BASINP    GEOM    SYMINP    ZMAT    AOBASIS   BASIS     P2S    ABASIS      S 
                                         1400     1410     1200     1210     1080     1600     1650     1300     1700     1380   
                                           T        V       H0       H01     AOSYM     SMH    MOLCAS    ERIS     OPER     JKOP   

              2       3        0.63       700     1000     2100   
                                         GEOM     BASIS     RHF  

 PROGRAMS   *        TOTAL   CCSD(T)       RHF       INT
 CPU TIMES  *        22.71     17.91      3.48      1.28
 REAL TIME  *        24.57 SEC
 DISK USED  *       674.37 MB      
 GA USED    *         0.00 MB       (max)       0.00 MB       (current)
 **********************************************************************************************************************************

        CCSD(T)         RHF-SCF 
   -115.55078371   -115.08911173
 **********************************************************************************************************************************
 Variable memory released
