
 Working directory              : /scratch/mel64643/tmp/40073198/
 Global scratch directory       : /scratch/mel64643/tmp/40073198/
 Wavefunction directory         : /home/mel64643/wfu/
 Main file repository           : /scratch/mel64643/tmp/40073198/

 id        : ccgc

 Nodes     nprocs
 a1-8         3
 Distribution of processes:   nprocs(total)=    4   nprocs(compute)=    3   nprocs(helper)=    1
 GA implementation: MPI file
 GA implementation (serial work in mppx): MPI file

 Using customized tuning parameters: mindgm=1; mindgv=20; mindgc=4; mindgr=1; noblas=0; minvec=7
 default implementation of scratch files=sf  


 Variables initialized (1015), CPU time= 0.01 sec
 ***,Optimization of min3
 memory,1000,m
 gthresh,energy=1.0d-12,orbital=1.0d-10,oneint=1.0d-16,twoint=1.0d-16,optgrad=1.0d-6,compress=1.0d-13
 geomtyp=xyz
 
  bohr
  geometry = {
  6
  arbitrary comment
  C   -1.3792759170   -0.0278446891    0.0000006276
  O    1.3065342624    0.1218116053    0.0000002008
  H   -2.0764551510    1.9103384809   -0.0000799675
  H   -2.1078138376   -0.9783458963    1.6825767100
  H   -2.1078067056   -0.9784771778   -1.6825046559
  H    1.9410931889   -1.5776144429   -0.0000013249
 }
 
 basis=cc-pvdz
 {rhf;maxit,200}
 {ccsd(t);maxit,200}
 Commands initialized (818), CPU time= 0.01 sec, 672 directives.
 Default parameters read. Elapsed time= 0.10 sec

 Checking input...
 Passed
1


                                         ***  PROGRAM SYSTEM MOLPRO  ***
                                       Copyright, TTI GmbH Stuttgart, 2015
                                    Version 2022.1 linked Mar  4 2022 00:40:14


 **********************************************************************************************************************************
 LABEL *   Optimization of min3                                                          
  64 bit mpp version                                                                     DATE: 07-Aug-25          TIME: 21:24:35  
 **********************************************************************************************************************************

 SHA1:             31073afc4d8441e10870424e0d77336a33bc4286
 **********************************************************************************************************************************

 Memory per process:      1000 MW
 Total memory per node:   3000 MW

 GA preallocation disabled
 GA check disabled

 Variable memory set to 1000.0 MW


 THRESHOLDS:

 ZERO    =  1.00D-12  ONEINT  =  1.00D-16  TWOINT  =  1.00D-16  PREFAC  =  1.00D-14  XXXXXX  =  1.00D-09  EORDER  =  1.00D-04
 ENERGY  =  1.00D-12  ETEST   =  0.00D+00  EDENS   =  0.00D+00  THRDEDEF=  1.00D-06  GRADIENT=  1.00D-05  STEP    =  1.00D-03
 ORBITAL =  1.00D-10  CIVEC   =  1.00D-05  COEFF   =  1.00D-04  PRINTCI =  5.00D-02  PUNCHCI =  9.90D+01  OPTGRAD =  1.00D-06
 OPTENERG=  1.00D-06  OPTSTEP =  3.00D-04  THRGRAD =  1.00D-10  COMPRESS=  1.00D-13  VARMIN  =  1.00D-07  VARMAX  =  1.00D-03
 THRDOUB =  0.00D+00  THRDIV  =  1.00D-05  THRRED  =  1.00D-07  THRPSP  =  1.00D+00  THRDC   =  1.00D-10  THRCS   =  1.00D-10
 THRNRM  =  1.00D-08  THREQ   =  0.00D+00  THRDE   =  1.00D+00  THRREF  =  1.00D-05  SPARFAC =  1.00D+00  THRDLP  =  1.00D-07
 THRDIA  =  1.00D-10  THRDLS  =  1.00D-07  THRGPS  =  0.00D+00  THRKEX  =  0.00D+00  THRDIS  =  2.00D-01  THRVAR  =  1.00D-10
 THRLOC  =  1.00D-06  THRGAP  =  1.00D-06  THRLOCT = -1.00D+00  THRGAPT = -1.00D+00  THRORB  =  1.00D-06  THRMLTP =  0.00D+00
 THRCPQCI=  1.00D-10  KEXTA   =  0.00D+00  THRCOARS=  0.00D+00  SYMTOL  =  1.00D-06  GRADTOL =  1.00D-06  THROVL  =  1.00D-08
 THRORTH =  1.00D-08  THRDLOVL= -1.00D+00  GRID    =  1.00D-06  GRIDMAX =  1.00D-03  DTMAX   =  0.00D+00  THROCCDE=  1.00D-01
 THROCCDE=  1.00D-01  THRPRINT=  2.50D-01

 SETTING GEOMTYP        =    XYZ
 ZUNIT=BOHR

 SETTING BASIS          =    CC-PVDZ


 Recomputing integrals since basis changed


 Using spherical harmonics

 Library entry C      S cc-pVDZ              selected for orbital group  1
 Library entry C      P cc-pVDZ              selected for orbital group  1
 Library entry C      D cc-pVDZ              selected for orbital group  1
 Library entry O      S cc-pVDZ              selected for orbital group  2
 Library entry O      P cc-pVDZ              selected for orbital group  2
 Library entry O      D cc-pVDZ              selected for orbital group  2
 Library entry H      S cc-pVDZ              selected for orbital group  3
 Library entry H      P cc-pVDZ              selected for orbital group  3


 PROGRAM * SEWARD (Integral evaluation for generally contracted gaussian basis sets)     Author: Roland Lindh, 1990

 Geometry written to block  1 of record 700


 Point group  C1  



 ATOMIC COORDINATES

 NR  ATOM    CHARGE       X              Y              Z

   1  C       6.00   -1.379275917   -0.027844689    0.000000628
   2  O       8.00    1.306534262    0.121811605    0.000000201
   3  H       1.00   -2.076455151    1.910338481   -0.000079967
   4  H       1.00   -2.107813838   -0.978345896    1.682576710
   5  H       1.00   -2.107806706   -0.978477178   -1.682504656
   6  H       1.00    1.941093189   -1.577614443   -0.000001325

 Bond lengths in Bohr (Angstrom)

 1-2  2.689976455  1-3  2.059760397  1-4  2.065255994  1-5  2.065256223  2-6  1.814032504
     ( 1.423474238)     ( 1.089978262)     ( 1.092886407)     ( 1.092886528)     ( 0.959944661)

 Bond angles

  1-2-6  107.28614611   2-1-3  106.59475847   2-1-4  112.19858600   2-1-5  112.19857288

  3-1-4  108.28236478   3-1-5  108.28219545   4-1-5  109.11317331

 NUCLEAR CHARGE:                   18
 NUMBER OF PRIMITIVE AOS:          82
 NUMBER OF SYMMETRY AOS:           80
 NUMBER OF CONTRACTIONS:           48   (   48A   )
 NUMBER OF INNER CORE ORBITALS:     0   (    0A   )
 NUMBER OF OUTER CORE ORBITALS:     2   (    2A   )
 NUMBER OF VALENCE ORBITALS:       12   (   12A   )


 NUCLEAR REPULSION ENERGY   40.27894398

 Eigenvalues of metric

         1 0.965E-02 0.177E-01 0.368E-01 0.372E-01 0.383E-01 0.472E-01 0.476E-01 0.519E-01


 Contracted 2-electron integrals neglected if value below      1.0D-16
 AO integral compression algorithm  1   Integral accuracy      1.0D-16

     6.816 MB (compressed) written to integral file ( 98.6%)

     Node minimum: 2.097 MB, node maximum: 2.359 MB


 NUMBER OF SORTED TWO-ELECTRON INTEGRALS:     231084.     BUFFER LENGTH:  32768
 NUMBER OF SEGMENTS:   1  SEGMENT LENGTH:     231084      RECORD LENGTH: 524288

 Memory used in sort:       0.79 MW

 SORT1 READ      832256. AND WROTE      227683. INTEGRALS IN      1 RECORDS. CPU TIME:     0.01 SEC, REAL TIME:     0.03 SEC
 SORT2 READ      682150. AND WROTE      692076. INTEGRALS IN     27 RECORDS. CPU TIME:     0.01 SEC, REAL TIME:     0.02 SEC

 Node minimum:      230300.  Node maximum:      231084. integrals

 OPERATOR DM      FOR CENTER  0  COORDINATES:    0.000000    0.000000    0.000000


 **********************************************************************************************************************************
 DATASETS  * FILE   NREC   LENGTH (MB)   RECORD NAMES
              1      18       28.73       500      610      700      900      950      970     1000      129      960     1100   
                                          VAR    BASINP    GEOM    SYMINP    ZMAT    AOBASIS   BASIS     P2S    ABASIS      S 
                                         1400     1410     1200     1210     1080     1600     1650     1700   
                                           T        V       H0       H01     AOSYM     SMH    MOLCAS    OPER   

 PROGRAMS   *        TOTAL       INT
 CPU TIMES  *         0.46      0.31
 REAL TIME  *         1.52 SEC
 DISK USED  *        29.07 MB (local),      104.32 MB (total)
 GA USED    *         0.00 MB       (max)       0.00 MB       (current)
 **********************************************************************************************************************************


 Program * Restricted Hartree-Fock

 Orbital guess generated from atomic densities. Full valence occupancy:   14

 Initial occupancy:   9

 NELEC=   18   SYM=1   MS2= 0   THRE=1.0D-12   THRD=1.0D-10   THRG=1.0D-10  HFMA2=F  DIIS_START=2   DIIS_MAX=10   DIIS_INCORE=F

 Level shifts:    0.00 (CLOSED)    0.00 (OPEN)    0.30 (GAP_MIN)

 ITER           ETOT              DE          GRAD        DDIFF     DIIS  NEXP   TIME(IT)  TIME(TOT)  DIAG
   1     -115.01407874    -115.01407874     0.00D+00     0.16D+00     0     0       0.00      0.00    start
   2     -115.04245075      -0.02837200     0.10D-01     0.21D-01     1     0       0.01      0.01    diag
   3     -115.04851652      -0.00606577     0.49D-02     0.64D-02     2     0       0.00      0.01    diag
   4     -115.04898075      -0.00046423     0.10D-02     0.20D-02     3     0       0.00      0.01    diag
   5     -115.04900186      -0.00002111     0.19D-03     0.43D-03     4     0       0.00      0.01    diag
   6     -115.04900266      -0.00000080     0.33D-04     0.93D-04     5     0       0.02      0.03    diag
   7     -115.04900270      -0.00000003     0.68D-05     0.15D-04     6     0       0.00      0.03    diag
   8     -115.04900270      -0.00000000     0.22D-05     0.51D-05     7     0       0.00      0.03    fixocc
   9     -115.04900270      -0.00000000     0.45D-06     0.14D-05     8     0       0.00      0.03    diag
  10     -115.04900270      -0.00000000     0.73D-07     0.24D-06     9     0       0.01      0.04    diag/orth
  11     -115.04900270      -0.00000000     0.17D-07     0.48D-07     9     0       0.00      0.04    diag
  12     -115.04900270       0.00000000     0.45D-08     0.14D-07     9     0       0.00      0.04    diag
  13     -115.04900270      -0.00000000     0.68D-09     0.19D-08     9     0       0.00      0.04    diag
  14     -115.04900270       0.00000000     0.15D-09     0.39D-09     9     0       0.01      0.05    diag
  15     -115.04900270       0.00000000     0.61D-10     0.11D-09     9     0       0.00      0.05    diag
  16     -115.04900270      -0.00000000     0.13D-10     0.32D-10     9     0       0.00      0.05    diag
  17     -115.04900270       0.00000000     0.23D-11     0.46D-11     0     0       0.00      0.05    diag

 Final occupancy:   9

 !RHF STATE 1.1 Energy               -115.049002698452
  RHF One-electron energy            -236.825302845071
  RHF Two-electron energy              81.497356163934
  RHF Kinetic energy                  114.941170424302
  RHF Nuclear energy                   40.278943982685
  RHF Virial quotient                  -1.000938151872

 !RHF STATE 1.1 Dipole moment          -0.39781067    -0.59682473    -0.00000258
 Dipole moment /Debye                  -1.01113387    -1.51697715    -0.00000655

 Orbital energies:

           1.1          2.1          3.1          4.1          5.1          6.1          7.1          8.1          9.1         10.1
    -20.549787   -11.274588    -1.348787    -0.921456    -0.682088    -0.614149    -0.583629    -0.497219    -0.443594     0.184595

          11.1
      0.224549


 HOMO      9.1    -0.443594 =     -12.0708eV
 LUMO     10.1     0.184595 =       5.0231eV
 LUMO-HOMO         0.628189 =      17.0939eV

 Orbitals saved in record  2100.2


 **********************************************************************************************************************************
 DATASETS  * FILE   NREC   LENGTH (MB)   RECORD NAMES
              1      18       28.73       500      610      700      900      950      970     1000      129      960     1100   
                                          VAR    BASINP    GEOM    SYMINP    ZMAT    AOBASIS   BASIS     P2S    ABASIS      S 
                                         1400     1410     1200     1210     1080     1600     1650     1700   
                                           T        V       H0       H01     AOSYM     SMH    MOLCAS    OPER   

              2       4        0.47       700     1000      520     2100   
                                         GEOM     BASIS   MCVARS     RHF  

 PROGRAMS   *        TOTAL   RHF-SCF       INT
 CPU TIMES  *         0.52      0.06      0.31
 REAL TIME  *         1.79 SEC
 DISK USED  *        29.40 MB (local),      105.31 MB (total)
 GA USED    *         0.00 MB       (max)       0.00 MB       (current)
 **********************************************************************************************************************************


 PROGRAM * CCSD (Closed-shell coupled cluster)     Authors: C. Hampel, H.-J. Werner, 1991, M. Deegan, P.J. Knowles, 1992


 Convergence thresholds:  THRVAR = 1.00D-08  THRDEN = 1.00D-12

 CCSD(T)     terms to be evaluated (factor= 1.000)


 Number of core orbitals:           2 (   2 )
 Number of closed-shell orbitals:   7 (   7 )
 Number of external orbitals:      39 (  39 )

 Molecular orbitals read from record     2100.2  Type=RHF/CANONICAL  

 Number of N-1 electron functions:               7
 Number of N-2 electron functions:              28
 Number of singly external CSFs:               273
 Number of doubly external CSFs:             37401
 Total number of CSFs:                       37675

 Length of J-op  integral file:               0.00 MB
 Length of K-op  integral file:               0.16 MB
 Length of 3-ext integral record:             0.00 MB

 Memory could be reduced to 0.73 Mwords without degradation in triples

 Integral transformation finished. Total CPU:   0.02 sec, npass=  1  Memory used:   0.66 MW

 Reference energy:                   -115.04900270

 MP2 singlet pair energy:              -0.21869475
 MP2 triplet pair energy:              -0.11984574
 MP2 correlation energy:               -0.33854049
 MP2 total energy:                   -115.38754319

 SCS-MP2 correlation energy:           -0.33700439   (PS=  1.200000  PT=  0.333333)
 SCS-MP2 total energy:               -115.38600708

 ITER.      SQ.NORM     CORR.ENERGY   TOTAL ENERGY   ENERGY CHANGE        DEN1      VAR(S)    VAR(P)  DIIS     TIME  TIME/IT
   1      1.10737709    -0.36133036  -115.41033306    -0.02278987    -0.01409904  0.91D-03  0.17D-02  1  1     0.05     0.04
   2      1.11591223    -0.36327707  -115.41227977    -0.00194672    -0.00925791  0.20D-04  0.16D-03  2  2     0.07     0.04
   3      1.11780085    -0.36340484  -115.41240754    -0.00012776    -0.00120842  0.95D-05  0.86D-05  3  3     0.09     0.03
   4      1.11831827    -0.36340350  -115.41240620     0.00000134    -0.00025570  0.34D-06  0.68D-06  4  4     0.11     0.04
   5      1.11841703    -0.36340391  -115.41240660    -0.00000041    -0.00003626  0.10D-06  0.49D-07  5  5     0.13     0.03
   6      1.11843623    -0.36340253  -115.41240523     0.00000137    -0.00000437  0.16D-07  0.41D-08  6  6     0.15     0.03
   7      1.11844104    -0.36340211  -115.41240481     0.00000042    -0.00000035  0.20D-08  0.73D-09  6  1     0.17     0.03
   8      1.11844233    -0.36340222  -115.41240491    -0.00000010     0.00000076  0.26D-09  0.73D-10  6  3     0.19     0.03
   9      1.11844340    -0.36340209  -115.41240479     0.00000013    -0.00000039  0.13D-10  0.11D-10  6  2     0.21     0.03
  10      1.11844333    -0.36340209  -115.41240479    -0.00000000     0.00000007  0.11D-11  0.89D-12  6  5     0.24     0.04
  11      1.11844336    -0.36340209  -115.41240479     0.00000000    -0.00000000  0.19D-12  0.51D-13  6  4     0.26     0.03
  12      1.11844334    -0.36340209  -115.41240479    -0.00000000     0.00000001  0.19D-13  0.10D-13  6  1     0.28     0.03
  13      1.11844334    -0.36340209  -115.41240479    -0.00000000    -0.00000000  0.24D-14  0.95D-15  6  6     0.30     0.03
  14      1.11844334    -0.36340209  -115.41240479     0.00000000    -0.00000000  0.22D-15  0.12D-15  6  3     0.32     0.03
  15      1.11844334    -0.36340209  -115.41240479    -0.00000000    -0.00000000  0.25D-16  0.17D-16  6  2     0.34     0.03
  16      1.11844334    -0.36340209  -115.41240479    -0.00000000    -0.00000000  0.56D-17  0.16D-17  6  5     0.36     0.03
  17      1.11844334    -0.36340209  -115.41240479    -0.00000000    -0.00000000  0.54D-18  0.25D-18  6  4     0.38     0.03
  18      1.11844334    -0.36340209  -115.41240479     0.00000000    -0.00000000  0.83D-19  0.43D-19  6  1     0.40     0.03
  19      1.11844334    -0.36340209  -115.41240479    -0.00000000    -0.00000000  0.95D-20  0.43D-20  6  6     0.42     0.04
  20      1.11844334    -0.36340209  -115.41240479     0.00000000     0.00000000  0.13D-20  0.56D-21  6  3     0.44     0.04

 Norm of t1 vector:      0.04174343      S-energy:    -0.00000000      T1 diagnostic:  0.00788877
                                                                       D1 diagnostic:  0.01767979
                                                                       D2 diagnostic:  0.13458203 (internal)


 Total CPU time for triples:      0.08 sec


 RESULTS
 =======

  Reference energy                   -115.049002698452
  CCSD singlet pair energy             -0.254662276229
  CCSD triplet pair energy             -0.108739816122
  CCSD correlation energy              -0.363402092350

  Triples (T) contribution             -0.007746028227
  Total correlation energy             -0.371148120578

  CCSD total energy                  -115.412404790802
  CCSD[T] energy                     -115.420441533281
  CCSD-T energy                      -115.420000450337
 !CCSD(T) total energy               -115.420150819030

 Timing summary (sec):

 STEP                 CPU(USER)    SYS     CPU(TOT)    WALL
 Transformation          0.03      0.01      0.04      0.04
 CCSD iterations         0.41      0.07      0.48      0.98
 Triples                 0.08      0.00      0.08      0.08

 Program statistics:

 Available memory in ccsd:               999999795
 Min. memory needed in ccsd:                136177
 Max. memory used in ccsd:                  162910
 Max. memory used in cckext:                178997 (20 integral passes)



 **********************************************************************************************************************************
 DATASETS  * FILE   NREC   LENGTH (MB)   RECORD NAMES
              1      19       31.13       500      610      700      900      950      970     1000      129      960     1100   
                                          VAR    BASINP    GEOM    SYMINP    ZMAT    AOBASIS   BASIS     P2S    ABASIS      S 
                                         1400     1410     1200     1210     1080     1600     1650     1700     1380   
                                           T        V       H0       H01     AOSYM     SMH    MOLCAS    OPER     JKOP   

              2       4        0.47       700     1000      520     2100   
                                         GEOM     BASIS   MCVARS     RHF  

 PROGRAMS   *        TOTAL   CCSD(T)   RHF-SCF       INT
 CPU TIMES  *         1.08      0.56      0.06      0.31
 REAL TIME  *         3.00 SEC
 DISK USED  *        35.56 MB (local),      115.96 MB (total)
 SF USED    *         5.97 MB
 GA USED    *         0.00 MB       (max)       0.00 MB       (current)
 **********************************************************************************************************************************

 CCSD(T)/cc-pVDZ energy=   -115.420150819030

         CCSD(T)         RHF-SCF
   -115.42015082   -115.04900270
 **********************************************************************************************************************************
 Molpro calculation terminated
