
 Primary working directories    : /tmp/333988.13.gen4.q
 Secondary working directories  : /tmp/333988.13.gen4.q
 Wavefunction directory         : /home/vulcan/mel64643/wfu/
 Main file repository           : /tmp/333988.13.gen4.q/

 ARCHNAME  : Linux/x86_64
 FC        : /opt/intel/compilers_and_libraries_2016.1.150/linux/bin/intel64/ifort
 FCVERSION : 16.0.1
 BLASLIB   : -mkl
 id        : ccgc

 Nodes     nprocs
 n030         3
 Number of processes for MPI-2 version of Molpro:   nprocs(total)=    4   nprocs(compute)=    3   nprocs(helper)=    1
 ga_uses_ma=false, calling ma_init with nominal heap.
 GA-space will be limited to   8.0 MW (determined by -G option)

 Using customized tuning parameters: mindgm=10; mindgv=16; mindgc=4; mindgr=1; noblas=0; mincuda=1000; minvec=7
 default implementation of scratch files=sf  

 ***,Optimization of min3
 memory,1000,m
 gthresh,energy=1.0d-10,orbital=1.0d-10,oneint=1.0d-16,twoint=1.0d-16,optgrad=1.0d-6,compress=1.0d-13
 geomtyp=xyz
 
  bohr
  geometry = {
  12
  arbitrary comment
  C         -3.1001748825          1.5846950481          0.0215460762
  C         -0.8641887414         -0.0698404107         -0.6645235003
  C         -1.1166730176         -2.7742283785          0.2477894968
  O          1.3087323400          1.0990499955          0.5901625083
  O          3.4491368459          0.1209103173         -0.2509688692
  H         -4.8069709462          0.8479808476         -0.8706067669
  H         -2.8090301227          3.5245492945         -0.6094342317
  H         -3.3824019401          1.5862571018          2.0654648071
  H         -0.4579726356         -0.0011897688         -2.6850541793
  H         -2.6948174359         -3.6969274606         -0.7085240349
  H         -1.4694979041         -2.8027477130          2.2811989776
  H          0.6088871332         -3.8244303794         -0.1508588329
 }
 
 basis=cc-pvtz
 {rhf;maxit,200}
 {uccsd(t);maxit,200}

 Variables initialized (661), CPU time= 0.00 sec
 Commands  initialized (458), CPU time= 0.01 sec, 486 directives.
 Default parameters read. Elapsed time= 0.05 sec

 Checking input...
 Passed
1


                                         ***  PROGRAM SYSTEM MOLPRO  ***
                         Copyright, University College Cardiff Consultants Limited, 2008

                                    Version 2010.1 linked May 16 2016 07:17:05


 **********************************************************************************************************************************
 LABEL *   Optimization of min3                                                          
 Linux-4.4.3/n030(x86_64) 64 bit mpp version                                             DATE: 15-Jul-20          TIME: 05:20:08  
 **********************************************************************************************************************************

 SHA1:             9e8077add272b0f3cad6f7df79ec5211205f459d
 **********************************************************************************************************************************

 THRESHOLDS:

 ZERO    =  1.00D-12  ONEINT  =  1.00D-16  TWOINT  =  1.00D-16  PREFAC  =  1.00D-14  LOCALI  =  1.00D-09  EORDER  =  1.00D-04
 ENERGY  =  1.00D-10  ETEST   =  0.00D+00  EDENS   =  0.00D+00  THRDEDEF=  1.00D-06  GRADIENT=  1.00D-02  STEP    =  1.00D-03
 ORBITAL =  1.00D-10  CIVEC   =  1.00D-05  COEFF   =  1.00D-04  PRINTCI =  5.00D-02  PUNCHCI =  9.90D+01  OPTGRAD =  1.00D-06
 OPTENERG=  1.00D-06  OPTSTEP =  3.00D-04  THRGRAD =  1.00D-10  COMPRESS=  1.00D-13  VARMIN  =  1.00D-07  VARMAX  =  1.00D-03
 THRDOUB =  0.00D+00  THRDIV  =  1.00D-05  THRRED  =  1.00D-07  THRPSP  =  1.00D+00  THRDC   =  1.00D-10  THRCS   =  1.00D-10
 THRNRM  =  1.00D-08  THREQ   =  0.00D+00  THRDE   =  1.00D+00  THRREF  =  1.00D-05  SPARFAC =  1.00D+00  THRDLP  =  1.00D-07
 THRDIA  =  1.00D-10  THRDLS  =  1.00D-07  THRGPS  =  0.00D+00  THRKEX  =  0.00D+00  THRDIS  =  2.00D-01  THRVAR  =  1.00D-10
 THRLOC  =  1.00D-06  THRGAP  =  1.00D-06  THRLOCT = -1.00D+00  THRGAPT = -1.00D+00  THRORB  =  1.00D-06  THRMLTP =  0.00D+00
 THRCPQCI=  1.00D-10  KEXTA   =  0.00D+00  THRCOARS=  0.00D+00  SYMTOL  =  1.00D-06  GRADTOL =  1.00D-06  THROVL  =  1.00D-08
 THRORTH =  1.00D-08  GRID    =  1.00D-06  GRIDMAX =  1.00D-03  DTMAX   =  0.00D+00

 SETTING GEOMTYP        =    XYZ
 ZUNIT=BOHR
 

 Variable memory set to 1000000000 words,  buffer space   230000 words

 SETTING BASIS          =    CC-PVTZ


 Recomputing integrals since basis changed


 Using spherical harmonics

 Library entry C      S cc-pVTZ              selected for orbital group  1
 Library entry C      P cc-pVTZ              selected for orbital group  1
 Library entry C      D cc-pVTZ              selected for orbital group  1
 Library entry C      F cc-pVTZ              selected for orbital group  1
 Library entry O      S cc-pVTZ              selected for orbital group  2
 Library entry O      P cc-pVTZ              selected for orbital group  2
 Library entry O      D cc-pVTZ              selected for orbital group  2
 Library entry O      F cc-pVTZ              selected for orbital group  2
 Library entry H      S cc-pVTZ              selected for orbital group  3
 Library entry H      P cc-pVTZ              selected for orbital group  3
 Library entry H      D cc-pVTZ              selected for orbital group  3

1PROGRAM * SEWARD (Integral evaluation for generally contracted gaussian basis sets)     Author: Roland Lindh, 1990

 Geometry written to block  1 of record 700


 Point group  C1  



 ATOMIC COORDINATES

 NR  ATOM    CHARGE       X              Y              Z

   1  C       6.00   -3.100174883    1.584695048    0.021546076
   2  C       6.00   -0.864188741   -0.069840411   -0.664523500
   3  C       6.00   -1.116673018   -2.774228379    0.247789497
   4  O       8.00    1.308732340    1.099049995    0.590162508
   5  O       8.00    3.449136846    0.120910317   -0.250968869
   6  H       1.00   -4.806970946    0.847980848   -0.870606767
   7  H       1.00   -2.809030123    3.524549294   -0.609434232
   8  H       1.00   -3.382401940    1.586257102    2.065464807
   9  H       1.00   -0.457972636   -0.001189769   -2.685054179
  10  H       1.00   -2.694817436   -3.696927461   -0.708524035
  11  H       1.00   -1.469497904   -2.802747713    2.281198978
  12  H       1.00    0.608887133   -3.824430379   -0.150858833

 Bond lengths in Bohr (Angstrom)

 1-2  2.864928109  1-6  2.061998378  1-7  2.060566892  1-8  2.063312466  2-3  2.865270946
     ( 1.516054661)     ( 1.091162547)     ( 1.090405037)     ( 1.091857932)     ( 1.516236082)

  2- 4  2.768054874   2- 9  2.062102970   3-10  2.063116325   3-11  2.063989552   3-12  2.058980954
       ( 1.464791553)       ( 1.091217894)       ( 1.091754139)       ( 1.092216230)       ( 1.089565794)

 4-5  2.499117979
     ( 1.322476277)

 Bond angles

  1-2-3  113.58218543   1-2-4  105.08485183   1-2-9  111.66401385   2-1-6  109.63810966

  2- 1- 7  111.10487990   2- 1- 8  110.14598964   2- 3-10  109.99507143   2- 3-11  109.98604808

  2- 3-12  110.23813695   2- 4- 5  110.76203383   3- 2- 4  108.86970837   3- 2- 9  111.14722024

  4-2-9  105.98819033   6-1-7  108.71230228   6-1-8  108.39987245   7-1-8  108.78104687

 10- 3-11  108.64607418  10- 3-12  108.85660177  11- 3-12  109.08433371

 NUCLEAR CHARGE:                   41
 NUMBER OF PRIMITIVE AOS:         354
 NUMBER OF SYMMETRY AOS:          322
 NUMBER OF CONTRACTIONS:          248   ( 248A   )
 NUMBER OF CORE ORBITALS:           5   (   5A   )
 NUMBER OF VALENCE ORBITALS:       27   (  27A   )


 NUCLEAR REPULSION ENERGY  186.72192787


 Eigenvalues of metric

         1 0.801E-03 0.956E-03 0.110E-02 0.124E-02 0.137E-02 0.150E-02 0.160E-02 0.165E-02


 Contracted 2-electron integrals neglected if value below      1.0D-16
 AO integral compression algorithm  1   Integral accuracy      1.0D-16

     3374.055 MB (compressed) written to integral file ( 82.1%)

     Node minimum: 1053.819 MB, node maximum: 1180.172 MB


 NUMBER OF SORTED TWO-ELECTRON INTEGRALS:  158903334.     BUFFER LENGTH:  32768
 NUMBER OF SEGMENTS:  10  SEGMENT LENGTH:   15997437      RECORD LENGTH: 524288

 Memory used in sort:      16.55 MW

 SORT1 READ   513524397. AND WROTE   152658170. INTEGRALS IN    442 RECORDS. CPU TIME:    17.54 SEC, REAL TIME:    22.57 SEC
 SORT2 READ   459462683. AND WROTE   476679126. INTEGRALS IN  13506 RECORDS. CPU TIME:     1.84 SEC, REAL TIME:    14.38 SEC

 Node minimum:   158882750.  Node maximum:   158903334. integrals

 OPERATOR DM      FOR CENTER  0  COORDINATES:    0.000000    0.000000    0.000000


 **********************************************************************************************************************************
 DATASETS  * FILE   NREC   LENGTH (MB)   RECORD NAMES
              1      18        5.04       500      610      700      900      950      970     1000      129      960     1100   
                                          VAR    BASINP    GEOM    SYMINP    ZMAT    AOBASIS   BASIS     P2S    ABASIS      S 
                                         1400     1410     1200     1210     1080     1600     1650     1700   
                                           T        V       H0       H01     AOSYM     SMH    MOLCAS    OPER   

 PROGRAMS   *        TOTAL       INT
 CPU TIMES  *        26.38     26.31
 REAL TIME  *        46.68 SEC
 DISK USED  *         8.87 GB      
 GA USED    *         0.01 MB       (max)       0.00 MB       (current)
 **********************************************************************************************************************************

1PROGRAM * RHF-SCF (OPEN SHELL)       Authors: W. Meyer, H.-J. Werner


 NUMBER OF ELECTRONS:      21+   20-    SPACE SYMMETRY=1    SPIN SYMMETRY: Doublet 
 CONVERGENCE THRESHOLDS:    1.00E-10 (Density)    1.00E-11 (Energy)
 MAX. NUMBER OF ITERATIONS:      200
 INTERPOLATION TYPE:            DIIS
 INTERPOLATION STEPS:              2 (START)      1 (STEP)
 LEVEL SHIFTS:                 -0.30 (CLOSED)  0.00 (OPEN) 



 Orbital guess generated from atomic densities. Full valence occupancy:   32

 Molecular orbital dump at record        2100.2

 ITERATION    DDIFF          GRAD             ENERGY        2-EL.EN.            DIPOLE MOMENTS         DIIS
    1      0.000D+00      0.000D+00      -267.26109274    559.989460   -1.77345   -0.06779   -0.09734    0
    2      0.000D+00      0.326D-02      -267.33464839    562.838234   -1.01455   -0.42769   -0.35985    1
    3      0.471D-02      0.229D-02      -267.36114038    561.788669   -1.18816   -0.24051   -0.21775    2
    4      0.211D-02      0.546D-03      -267.36937027    561.977234   -0.97661   -0.31303   -0.29912    3
    5      0.926D-03      0.484D-03      -267.37358795    562.019509   -0.92112   -0.31515   -0.30344    4
    6      0.583D-03      0.271D-03      -267.37551153    561.986857   -0.87969   -0.30857   -0.30140    5
    7      0.485D-03      0.133D-03      -267.37584910    561.972603   -0.88953   -0.29711   -0.29333    6
    8      0.258D-03      0.356D-04      -267.37587097    561.969827   -0.88918   -0.29381   -0.29181    7
    9      0.847D-04      0.189D-04      -267.37588187    561.970083   -0.89170   -0.29436   -0.29187    8
   10      0.448D-04      0.820D-05      -267.37588368    561.969990   -0.89285   -0.29373   -0.29159    9
   11      0.199D-04      0.321D-05      -267.37588393    561.969928   -0.89348   -0.29357   -0.29142    9
   12      0.785D-05      0.148D-05      -267.37588400    561.970153   -0.89362   -0.29367   -0.29146    9
   13      0.370D-05      0.530D-06      -267.37588400    561.970209   -0.89363   -0.29373   -0.29149    9
   14      0.150D-05      0.301D-06      -267.37588401    561.970209   -0.89362   -0.29374   -0.29150    9
   15      0.853D-06      0.151D-06      -267.37588401    561.970216   -0.89362   -0.29375   -0.29150    9
   16      0.464D-06      0.813D-07      -267.37588401    561.970220   -0.89361   -0.29375   -0.29150    9
   17      0.236D-06      0.481D-07      -267.37588401    561.970215   -0.89361   -0.29375   -0.29150    9
   18      0.217D-06      0.365D-07      -267.37588401    561.970214   -0.89361   -0.29375   -0.29150    9
   19      0.167D-06      0.288D-07      -267.37588401    561.970219   -0.89361   -0.29375   -0.29150    9
   20      0.281D-06      0.233D-07      -267.37588401    561.970218   -0.89361   -0.29375   -0.29150    9
   21      0.371D-06      0.150D-07      -267.37588401    561.970220   -0.89361   -0.29375   -0.29150    9
   22      0.313D-06      0.934D-08      -267.37588401    561.970222   -0.89360   -0.29375   -0.29150    9
   23      0.161D-06      0.417D-08      -267.37588401    561.970222   -0.89361   -0.29375   -0.29150    9
   24      0.535D-07      0.232D-08      -267.37588401    561.970222   -0.89361   -0.29375   -0.29150    9
   25      0.153D-07      0.951D-09      -267.37588401    561.970222   -0.89361   -0.29375   -0.29150    9
   26      0.835D-08      0.399D-09      -267.37588401    561.970222   -0.89361   -0.29375   -0.29150    9
   27      0.147D-08      0.186D-09      -267.37588401    561.970222   -0.89361   -0.29375   -0.29150    9
   28      0.504D-09      0.932D-10      -267.37588401    561.970222   -0.89361   -0.29375   -0.29150    9
   29      0.461D-09      0.514D-10      -267.37588401    561.970222   -0.89361   -0.29375   -0.29150    9
   30      0.303D-09      0.252D-10      -267.37588401    561.970222   -0.89361   -0.29375   -0.29150    9
   31      0.699D-10      0.264D-10      -267.37588401    561.970222   -0.89361   -0.29375   -0.29150    0

 Final alpha occupancy:  21
 Final beta  occupancy:  20

 !RHF STATE 1.1 Energy               -267.375884008811
 Nuclear energy                       186.72192787
 One-electron energy                 -735.08292308
 Two-electron energy                  280.98511120
 Virial quotient                       -1.00115201
 !RHF STATE 1.1 Dipole moment          -0.89360534    -0.29375149    -0.29149605
 Dipole moment /Debye                  -2.27116947    -0.74659292    -0.74086053

 Orbital energies:

         1.1          2.1          3.1          4.1          5.1          6.1          7.1          8.1          9.1         10.1
    -20.648664   -20.640289   -11.297382   -11.229041   -11.225245    -1.523701    -1.171203    -1.034419    -0.952756    -0.819597

        11.1         12.1         13.1         14.1         15.1         16.1         17.1         18.1         19.1         20.1
     -0.695541    -0.668104    -0.652481    -0.595569    -0.562752    -0.557360    -0.544289    -0.501297    -0.490127    -0.465146

        21.1         22.1         23.1
     -0.562771     0.137826     0.174725


 **********************************************************************************************************************************
 DATASETS  * FILE   NREC   LENGTH (MB)   RECORD NAMES
              1      18        5.04       500      610      700      900      950      970     1000      129      960     1100   
                                          VAR    BASINP    GEOM    SYMINP    ZMAT    AOBASIS   BASIS     P2S    ABASIS      S 
                                         1400     1410     1200     1210     1080     1600     1650     1700   
                                           T        V       H0       H01     AOSYM     SMH    MOLCAS    OPER   

              2       3        2.21       700     1000     2100   
                                         GEOM     BASIS     RHF  

 PROGRAMS   *        TOTAL       RHF       INT
 CPU TIMES  *        97.94     71.56     26.31
 REAL TIME  *       122.08 SEC
 DISK USED  *         8.91 GB      
 SF USED    *         0.25 MB      
 GA USED    *         0.01 MB       (max)       0.00 MB       (current)
 **********************************************************************************************************************************


1PROGRAM * CCSD (Unrestricted open-shell coupled cluster)     Authors: C. Hampel, H.-J. Werner, 1991, M. Deegan, P.J. Knowles, 1992


 Convergence thresholds:  THRVAR = 1.00D-08  THRDEN = 1.00D-10

 CCSD(T)     terms to be evaluated (factor= 1.000)


 Number of core orbitals:           5 (   5 )
 Number of closed-shell orbitals:  15 (  15 )
 Number of active  orbitals:        1 (   1 )
 Number of external orbitals:     227 ( 227 )

 Memory could be reduced to 332.02 Mwords without degradation in triples

 Number of N-1 electron functions:              31
 Number of N-2 electron functions:             465
 Number of singly external CSFs:              7068
 Number of doubly external CSFs:          18353430
 Total number of CSFs:                    18360498

 Molecular orbitals read from record     2100.2  Type=RHF/CANONICAL (state 1.1)

 Integral transformation finished. Total CPU:  41.84 sec, npass=  1  Memory used: 145.25 MW

 Starting RMP2 calculation

 ITER.      SQ.NORM     CORR.ENERGY   TOTAL ENERGY   ENERGY CHANGE        DEN1      VAR(S)    VAR(P)  DIIS     TIME
   1      1.26535084    -0.96766063  -268.34354464    -0.96766063    -0.00323662  0.26D-04  0.11D-02  1  1    48.12
   2      1.26813577    -0.97115047  -268.34703448    -0.00348984    -0.00000667  0.10D-05  0.23D-05  2  2    52.03
   3      1.26821573    -0.97120339  -268.34708740    -0.00005292    -0.00000008  0.54D-07  0.11D-07  3  3    56.77
   4      1.26821745    -0.97120320  -268.34708721     0.00000019    -0.00000000  0.16D-08  0.12D-09  4  4    60.88
   5      1.26821770    -0.97120328  -268.34708729    -0.00000009    -0.00000000  0.19D-10  0.46D-11  5  5    65.86
   6      1.26821776    -0.97120332  -268.34708733    -0.00000003    -0.00000000  0.50D-13  0.56D-13  6  6    71.27
   7      1.26821776    -0.97120332  -268.34708733     0.00000000    -0.00000000  0.15D-14  0.86D-15  6  1    76.05
   8      1.26821776    -0.97120332  -268.34708733     0.00000000    -0.00000000  0.15D-16  0.79D-17  6  2    82.09
   9      1.26821776    -0.97120332  -268.34708733    -0.00000000    -0.00000000  0.31D-18  0.10D-18  6  3    87.63

 Norm of t1 vector:      0.04590691      S-energy:    -0.00446922      T1 diagnostic:  0.00074449
 Norm of t2 vector:      0.51585881      P-energy:    -0.96673409
                                         Alpha-Beta:  -0.73709978
                                         Alpha-Alpha: -0.11900313
                                         Beta-Beta:   -0.11063118

 Spin contamination <S**2-Sz**2-Sz>     0.00145519
  Reference energy                   -267.375884008813
  RHF-RMP2 correlation energy          -0.971203317281
 !RHF-RMP2 energy                    -268.347087326094

 Starting UCCSD calculation

 ITER.      SQ.NORM     CORR.ENERGY   TOTAL ENERGY   ENERGY CHANGE        DEN1      VAR(S)    VAR(P)  DIIS     TIME
   1      1.27980921    -0.97930140  -268.35518540    -0.97930140    -0.02933019  0.65D-02  0.54D-02  1  1   253.20
   2      1.30621026    -1.00592362  -268.38180763    -0.02662222    -0.00363494  0.62D-03  0.97D-03  2  2   410.47
   3      1.32286034    -1.01274677  -268.38863078    -0.00682315    -0.00091219  0.75D-03  0.76D-04  3  3   559.06
   4      1.33410083    -1.01540593  -268.39128994    -0.00265916    -0.00038524  0.31D-03  0.33D-04  4  4   718.44
   5      1.34917622    -1.01740340  -268.39328741    -0.00199748    -0.00011793  0.10D-03  0.90D-05  5  5   880.80
   6      1.36070006    -1.01842575  -268.39430976    -0.00102234    -0.00001813  0.93D-05  0.32D-05  6  6   990.36
   7      1.36439194    -1.01866650  -268.39455051    -0.00024076    -0.00000316  0.16D-05  0.61D-06  6  1  1099.48
   8      1.36499539    -1.01870865  -268.39459265    -0.00004214    -0.00000067  0.27D-06  0.15D-06  6  2  1208.61
   9      1.36531568    -1.01872712  -268.39461113    -0.00001848    -0.00000015  0.66D-07  0.32D-07  6  4  1317.61
  10      1.36530198    -1.01872584  -268.39460985     0.00000128    -0.00000002  0.11D-07  0.43D-08  6  3  1441.91
  11      1.36536442    -1.01873093  -268.39461494    -0.00000509    -0.00000001  0.30D-08  0.96D-09  6  5  1551.34
  12      1.36535706    -1.01872845  -268.39461246     0.00000248    -0.00000000  0.15D-08  0.23D-09  6  6  1661.37
  13      1.36535272    -1.01872728  -268.39461129     0.00000117    -0.00000000  0.10D-08  0.72D-10  6  1  1771.14
  14      1.36533927    -1.01872570  -268.39460971     0.00000158    -0.00000000  0.74D-09  0.36D-10  6  2  1880.90
  15      1.36533198    -1.01872483  -268.39460884     0.00000087    -0.00000000  0.60D-09  0.30D-10  6  3  2035.03
  16      1.36532835    -1.01872465  -268.39460866     0.00000017    -0.00000000  0.40D-09  0.24D-10  6  4  2196.98
  17      1.36532871    -1.01872476  -268.39460877    -0.00000011    -0.00000000  0.16D-09  0.23D-10  6  5  2356.97
  18      1.36533318    -1.01872505  -268.39460906    -0.00000029    -0.00000000  0.30D-10  0.71D-11  6  6  2505.32
  19      1.36533685    -1.01872542  -268.39460942    -0.00000037    -0.00000000  0.23D-11  0.19D-11  6  2  2666.89
  20      1.36533633    -1.01872528  -268.39460929     0.00000013    -0.00000000  0.52D-12  0.16D-12  6  1  2829.57
  21      1.36533661    -1.01872533  -268.39460934    -0.00000004    -0.00000000  0.16D-12  0.55D-13  6  4  2993.37
  22      1.36533663    -1.01872533  -268.39460934    -0.00000000    -0.00000000  0.49D-13  0.11D-13  6  3  3151.39
  23      1.36533667    -1.01872534  -268.39460935    -0.00000001    -0.00000000  0.15D-13  0.46D-14  6  6  3306.60
  24      1.36533669    -1.01872534  -268.39460935     0.00000000    -0.00000000  0.35D-14  0.86D-15  6  5  3470.83
  25      1.36533669    -1.01872534  -268.39460934     0.00000000    -0.00000000  0.84D-15  0.24D-15  6  1  3621.57
  26      1.36533671    -1.01872534  -268.39460935    -0.00000000    -0.00000000  0.17D-15  0.50D-16  6  2  3733.24
  27      1.36533671    -1.01872534  -268.39460935    -0.00000000    -0.00000000  0.36D-16  0.12D-16  6  4  3843.33

 Norm of t1 vector:      0.23121725      S-energy:    -0.00501628      T1 diagnostic:  0.02849162
                                                                       D1 diagnostic:  0.14600781
 Norm of t2 vector:      0.55845796      P-energy:    -1.01370906
                                         Alpha-Beta:  -0.80137449
                                         Alpha-Alpha: -0.10869558
                                         Beta-Beta:   -0.10363899

 Singles amplitudes (print threshold =  0.500E-01):

         I         SYM. A    A   T(IA) [Beta-Beta]

         8         1         1     -0.09603454
         9         1         1      0.09915634
        11         1         1     -0.05352374
        12         1         1     -0.07533050
        14         1         1     -0.11169244

 Spin contamination <S**2-Sz**2-Sz>     0.00176168

 Memory could be reduced to 360.52 Mwords without degradation in triples
 

 RESULTS
 =======

  Reference energy                   -267.375884008813
  UCCSD singles energy                 -0.005016276246
  UCCSD pair energy                    -1.013709060133
  UCCSD correlation energy             -1.018725336379
  Triples (T) contribution             -0.040835571966
  Total correlation energy             -1.059560908345
 
  RHF-UCCSD energy                   -268.394609345191
  RHF-UCCSD[T] energy                -268.438765787101
  RHF-UCCSD-T energy                 -268.434948099551
 !RHF-UCCSD(T) energy                -268.435444917157

 Program statistics:

 Available memory in ccsd:               999997692
 Min. memory needed in ccsd:              51505734
 Max. memory used in ccsd:                74803578
 Max. memory used in cckext:              59475747 (27 integral passes)
 Max. memory used in cckint:             145249478 ( 1 integral passes)



 **********************************************************************************************************************************
 DATASETS  * FILE   NREC   LENGTH (MB)   RECORD NAMES
              1      18        5.04       500      610      700      900      950      970     1000      129      960     1100   
                                          VAR    BASINP    GEOM    SYMINP    ZMAT    AOBASIS   BASIS     P2S    ABASIS      S 
                                         1400     1410     1200     1210     1080     1600     1650     1700   
                                           T        V       H0       H01     AOSYM     SMH    MOLCAS    OPER   

              2       3        2.21       700     1000     2100   
                                         GEOM     BASIS     RHF  

 PROGRAMS   *        TOTAL  UCCSD(T)       RHF       INT
 CPU TIMES  *      6001.57   5903.62     71.56     26.31
 REAL TIME  *      6134.91 SEC
 DISK USED  *        15.88 GB      
 SF USED    *         6.57 GB      
 GA USED    *         0.01 MB       (max)       0.00 MB       (current)
 **********************************************************************************************************************************

        UCCSD(T)        RHF-SCF 
   -268.43544492   -267.37588401
 **********************************************************************************************************************************
 Variable memory released
