
 Primary working directories    : /tmp/333988.14.gen4.q
 Secondary working directories  : /tmp/333988.14.gen4.q
 Wavefunction directory         : /home/vulcan/mel64643/wfu/
 Main file repository           : /tmp/333988.14.gen4.q/

 ARCHNAME  : Linux/x86_64
 FC        : /opt/intel/compilers_and_libraries_2016.1.150/linux/bin/intel64/ifort
 FCVERSION : 16.0.1
 BLASLIB   : -mkl
 id        : ccgc

 Nodes     nprocs
 n067         3
 Number of processes for MPI-2 version of Molpro:   nprocs(total)=    4   nprocs(compute)=    3   nprocs(helper)=    1
 ga_uses_ma=false, calling ma_init with nominal heap.
 GA-space will be limited to   8.0 MW (determined by -G option)

 Using customized tuning parameters: mindgm=10; mindgv=16; mindgc=4; mindgr=1; noblas=0; mincuda=1000; minvec=7
 default implementation of scratch files=sf  

 ***,Optimization of min3
 memory,1000,m
 gthresh,energy=1.0d-10,orbital=1.0d-10,oneint=1.0d-16,twoint=1.0d-16,optgrad=1.0d-6,compress=1.0d-13
 geomtyp=xyz
 
  bohr
  geometry = {
  12
  arbitrary comment
  C         -3.1109498262          1.5913309061          0.0206063962
  C         -0.8719038487         -0.0707723000         -0.6560694848
  C         -1.1178043875         -2.7806946005          0.2464138219
  O          1.3152434716          1.0986794589          0.5861198105
  O          3.4601537292          0.1221253403         -0.2491553837
  H         -4.8124980707          0.8508524870         -0.8790956230
  H         -2.8153976743          3.5269338635         -0.6216469927
  H         -3.4074204026          1.6057257737          2.0624039450
  H         -0.4737360904         -0.0037091893         -2.6785732526
  H         -2.6925542108         -3.7039349172         -0.7150829843
  H         -1.4665875066         -2.8266476057          2.2801406979
  H          0.6118366838         -3.8200550822         -0.1636728147
 }
 
 basis=cc-pvtz
 {rhf;maxit,200}
 {uccsd(t);maxit,200}

 Variables initialized (661), CPU time= 0.00 sec
 Commands  initialized (458), CPU time= 0.00 sec, 486 directives.
 Default parameters read. Elapsed time= 0.05 sec

 Checking input...
 Passed
1


                                         ***  PROGRAM SYSTEM MOLPRO  ***
                         Copyright, University College Cardiff Consultants Limited, 2008

                                    Version 2010.1 linked May 16 2016 07:17:05


 **********************************************************************************************************************************
 LABEL *   Optimization of min3                                                          
 Linux-4.4.3/n067(x86_64) 64 bit mpp version                                             DATE: 15-Jul-20          TIME: 06:22:08  
 **********************************************************************************************************************************

 SHA1:             9e8077add272b0f3cad6f7df79ec5211205f459d
 **********************************************************************************************************************************

 THRESHOLDS:

 ZERO    =  1.00D-12  ONEINT  =  1.00D-16  TWOINT  =  1.00D-16  PREFAC  =  1.00D-14  LOCALI  =  1.00D-09  EORDER  =  1.00D-04
 ENERGY  =  1.00D-10  ETEST   =  0.00D+00  EDENS   =  0.00D+00  THRDEDEF=  1.00D-06  GRADIENT=  1.00D-02  STEP    =  1.00D-03
 ORBITAL =  1.00D-10  CIVEC   =  1.00D-05  COEFF   =  1.00D-04  PRINTCI =  5.00D-02  PUNCHCI =  9.90D+01  OPTGRAD =  1.00D-06
 OPTENERG=  1.00D-06  OPTSTEP =  3.00D-04  THRGRAD =  1.00D-10  COMPRESS=  1.00D-13  VARMIN  =  1.00D-07  VARMAX  =  1.00D-03
 THRDOUB =  0.00D+00  THRDIV  =  1.00D-05  THRRED  =  1.00D-07  THRPSP  =  1.00D+00  THRDC   =  1.00D-10  THRCS   =  1.00D-10
 THRNRM  =  1.00D-08  THREQ   =  0.00D+00  THRDE   =  1.00D+00  THRREF  =  1.00D-05  SPARFAC =  1.00D+00  THRDLP  =  1.00D-07
 THRDIA  =  1.00D-10  THRDLS  =  1.00D-07  THRGPS  =  0.00D+00  THRKEX  =  0.00D+00  THRDIS  =  2.00D-01  THRVAR  =  1.00D-10
 THRLOC  =  1.00D-06  THRGAP  =  1.00D-06  THRLOCT = -1.00D+00  THRGAPT = -1.00D+00  THRORB  =  1.00D-06  THRMLTP =  0.00D+00
 THRCPQCI=  1.00D-10  KEXTA   =  0.00D+00  THRCOARS=  0.00D+00  SYMTOL  =  1.00D-06  GRADTOL =  1.00D-06  THROVL  =  1.00D-08
 THRORTH =  1.00D-08  GRID    =  1.00D-06  GRIDMAX =  1.00D-03  DTMAX   =  0.00D+00

 SETTING GEOMTYP        =    XYZ
 ZUNIT=BOHR
 

 Variable memory set to 1000000000 words,  buffer space   230000 words

 SETTING BASIS          =    CC-PVTZ


 Recomputing integrals since basis changed


 Using spherical harmonics

 Library entry C      S cc-pVTZ              selected for orbital group  1
 Library entry C      P cc-pVTZ              selected for orbital group  1
 Library entry C      D cc-pVTZ              selected for orbital group  1
 Library entry C      F cc-pVTZ              selected for orbital group  1
 Library entry O      S cc-pVTZ              selected for orbital group  2
 Library entry O      P cc-pVTZ              selected for orbital group  2
 Library entry O      D cc-pVTZ              selected for orbital group  2
 Library entry O      F cc-pVTZ              selected for orbital group  2
 Library entry H      S cc-pVTZ              selected for orbital group  3
 Library entry H      P cc-pVTZ              selected for orbital group  3
 Library entry H      D cc-pVTZ              selected for orbital group  3

1PROGRAM * SEWARD (Integral evaluation for generally contracted gaussian basis sets)     Author: Roland Lindh, 1990

 Geometry written to block  1 of record 700


 Point group  C1  



 ATOMIC COORDINATES

 NR  ATOM    CHARGE       X              Y              Z

   1  C       6.00   -3.110949826    1.591330906    0.020606396
   2  C       6.00   -0.871903849   -0.070772300   -0.656069485
   3  C       6.00   -1.117804388   -2.780694600    0.246413822
   4  O       8.00    1.315243472    1.098679459    0.586119810
   5  O       8.00    3.460153729    0.122125340   -0.249155384
   6  H       1.00   -4.812498071    0.850852487   -0.879095623
   7  H       1.00   -2.815397674    3.526933864   -0.621646993
   8  H       1.00   -3.407420403    1.605725774    2.062403945
   9  H       1.00   -0.473736090   -0.003709189   -2.678573253
  10  H       1.00   -2.692554211   -3.703934917   -0.715082984
  11  H       1.00   -1.466587507   -2.826647606    2.280140698
  12  H       1.00    0.611836684   -3.820055082   -0.163672815

 Bond lengths in Bohr (Angstrom)

 1-2  2.869460612  1-6  2.062289611  1-7  2.060679329  1-8  2.063259374  2-3  2.866813923
     ( 1.518453158)     ( 1.091316661)     ( 1.090464536)     ( 1.091829837)     ( 1.517052590)

  2- 4  2.773853829   2- 9  2.062415214   3-10  2.063173719   3-11  2.063929831   3-12  2.059150188
       ( 1.467860227)       ( 1.091383127)       ( 1.091784511)       ( 1.092184628)       ( 1.089655349)

 4-5  2.500396491
     ( 1.323152836)

 Bond angles

  1-2-3  113.97711696   1-2-4  105.39350361   1-2-9  111.28858923   2-1-6  109.44794757

  2- 1- 7  111.01843737   2- 1- 8  110.45857302   2- 3-10  109.98400153   2- 3-11  110.22686754

  2- 3-12  110.02227742   2- 4- 5  111.23101469   3- 2- 4  108.97661559   3- 2- 9  110.85526075

  4-2-9  105.85603310   6-1-7  108.64047299   6-1-8  108.40157112   7-1-8  108.81322476

 10- 3-11  108.67871007  10- 3-12  108.81092573  11- 3-12  109.08366737

 NUCLEAR CHARGE:                   41
 NUMBER OF PRIMITIVE AOS:         354
 NUMBER OF SYMMETRY AOS:          322
 NUMBER OF CONTRACTIONS:          248   ( 248A   )
 NUMBER OF CORE ORBITALS:           5   (   5A   )
 NUMBER OF VALENCE ORBITALS:       27   (  27A   )


 NUCLEAR REPULSION ENERGY  186.38753257


 Eigenvalues of metric

         1 0.813E-03 0.960E-03 0.110E-02 0.124E-02 0.137E-02 0.151E-02 0.160E-02 0.164E-02


 Contracted 2-electron integrals neglected if value below      1.0D-16
 AO integral compression algorithm  1   Integral accuracy      1.0D-16

     3367.240 MB (compressed) written to integral file ( 82.0%)

     Node minimum: 921.174 MB, node maximum: 1404.305 MB


 NUMBER OF SORTED TWO-ELECTRON INTEGRALS:  158903334.     BUFFER LENGTH:  32768
 NUMBER OF SEGMENTS:  10  SEGMENT LENGTH:   15997437      RECORD LENGTH: 524288

 Memory used in sort:      16.55 MW

 SORT1 READ   513490517. AND WROTE   152536692. INTEGRALS IN    442 RECORDS. CPU TIME:    23.75 SEC, REAL TIME:    25.46 SEC
 SORT2 READ   459130261. AND WROTE   476679126. INTEGRALS IN  10542 RECORDS. CPU TIME:     2.89 SEC, REAL TIME:    15.84 SEC

 Node minimum:   158882750.  Node maximum:   158903334. integrals

 OPERATOR DM      FOR CENTER  0  COORDINATES:    0.000000    0.000000    0.000000


 **********************************************************************************************************************************
 DATASETS  * FILE   NREC   LENGTH (MB)   RECORD NAMES
              1      18        5.04       500      610      700      900      950      970     1000      129      960     1100   
                                          VAR    BASINP    GEOM    SYMINP    ZMAT    AOBASIS   BASIS     P2S    ABASIS      S 
                                         1400     1410     1200     1210     1080     1600     1650     1700   
                                           T        V       H0       H01     AOSYM     SMH    MOLCAS    OPER   

 PROGRAMS   *        TOTAL       INT
 CPU TIMES  *        35.95     35.91
 REAL TIME  *        51.44 SEC
 DISK USED  *         9.04 GB      
 GA USED    *         0.01 MB       (max)       0.00 MB       (current)
 **********************************************************************************************************************************

1PROGRAM * RHF-SCF (OPEN SHELL)       Authors: W. Meyer, H.-J. Werner


 NUMBER OF ELECTRONS:      21+   20-    SPACE SYMMETRY=1    SPIN SYMMETRY: Doublet 
 CONVERGENCE THRESHOLDS:    1.00E-10 (Density)    1.00E-11 (Energy)
 MAX. NUMBER OF ITERATIONS:      200
 INTERPOLATION TYPE:            DIIS
 INTERPOLATION STEPS:              2 (START)      1 (STEP)
 LEVEL SHIFTS:                 -0.30 (CLOSED)  0.00 (OPEN) 



 Orbital guess generated from atomic densities. Full valence occupancy:   32

 Molecular orbital dump at record        2100.2

 ITERATION    DDIFF          GRAD             ENERGY        2-EL.EN.            DIPOLE MOMENTS         DIIS
    1      0.000D+00      0.000D+00      -267.26101810    559.320655   -1.78444   -0.07143   -0.10274    0
    2      0.000D+00      0.326D-02      -267.33448323    562.182419   -1.02245   -0.42932   -0.35945    1
    3      0.470D-02      0.229D-02      -267.36098582    561.133129   -1.19730   -0.24255   -0.21833    2
    4      0.211D-02      0.547D-03      -267.36922127    561.321878   -0.98548   -0.31507   -0.29897    3
    5      0.926D-03      0.484D-03      -267.37345191    561.364930   -0.92947   -0.31737   -0.30329    4
    6      0.583D-03      0.272D-03      -267.37538695    561.332466   -0.88777   -0.31090   -0.30132    5
    7      0.486D-03      0.134D-03      -267.37572785    561.318264   -0.89758   -0.29942   -0.29330    6
    8      0.259D-03      0.357D-04      -267.37574993    561.315416   -0.89721   -0.29611   -0.29178    7
    9      0.847D-04      0.189D-04      -267.37576086    561.315681   -0.89975   -0.29664   -0.29184    8
   10      0.449D-04      0.827D-05      -267.37576271    561.315586   -0.90090   -0.29601   -0.29155    9
   11      0.200D-04      0.324D-05      -267.37576296    561.315520   -0.90155   -0.29585   -0.29138    9
   12      0.792D-05      0.149D-05      -267.37576302    561.315742   -0.90169   -0.29594   -0.29142    9
   13      0.372D-05      0.535D-06      -267.37576303    561.315797   -0.90170   -0.29600   -0.29145    9
   14      0.150D-05      0.302D-06      -267.37576303    561.315795   -0.90169   -0.29602   -0.29146    9
   15      0.825D-06      0.147D-06      -267.37576303    561.315802   -0.90169   -0.29602   -0.29146    9
   16      0.416D-06      0.736D-07      -267.37576303    561.315804   -0.90168   -0.29603   -0.29146    9
   17      0.173D-06      0.338D-07      -267.37576303    561.315800   -0.90168   -0.29602   -0.29146    9
   18      0.111D-06      0.198D-07      -267.37576303    561.315797   -0.90168   -0.29602   -0.29146    9
   19      0.629D-07      0.106D-07      -267.37576303    561.315799   -0.90168   -0.29602   -0.29146    9
   20      0.480D-07      0.758D-08      -267.37576303    561.315799   -0.90168   -0.29602   -0.29146    9
   21      0.423D-07      0.639D-08      -267.37576303    561.315799   -0.90168   -0.29602   -0.29146    9
   22      0.530D-07      0.532D-08      -267.37576303    561.315800   -0.90168   -0.29602   -0.29146    9
   23      0.763D-07      0.357D-08      -267.37576303    561.315800   -0.90168   -0.29602   -0.29146    9
   24      0.714D-07      0.222D-08      -267.37576303    561.315800   -0.90168   -0.29602   -0.29146    9
   25      0.408D-07      0.991D-09      -267.37576303    561.315800   -0.90168   -0.29602   -0.29146    9
   26      0.169D-07      0.416D-09      -267.37576303    561.315800   -0.90168   -0.29602   -0.29146    9
   27      0.197D-08      0.199D-09      -267.37576303    561.315800   -0.90168   -0.29602   -0.29146    9
   28      0.858D-09      0.935D-10      -267.37576303    561.315800   -0.90168   -0.29602   -0.29146    9
   29      0.541D-09      0.488D-10      -267.37576303    561.315800   -0.90168   -0.29602   -0.29146    9
   30      0.166D-09      0.241D-10      -267.37576303    561.315800   -0.90168   -0.29602   -0.29146    9
   31      0.682D-10      0.197D-10      -267.37576303    561.315800   -0.90168   -0.29602   -0.29146    0

 Final alpha occupancy:  21
 Final beta  occupancy:  20

 !RHF STATE 1.1 Energy               -267.375763031615
 Nuclear energy                       186.38753257
 One-electron energy                 -734.42119570
 Two-electron energy                  280.65790010
 Virial quotient                       -1.00121840
 !RHF STATE 1.1 Dipole moment          -0.90167658    -0.29602248    -0.29145833
 Dipole moment /Debye                  -2.29168316    -0.75236481    -0.74076467

 Orbital energies:

         1.1          2.1          3.1          4.1          5.1          6.1          7.1          8.1          9.1         10.1
    -20.648792   -20.639900   -11.298098   -11.229661   -11.225546    -1.522244    -1.170377    -1.034206    -0.953073    -0.818985

        11.1         12.1         13.1         14.1         15.1         16.1         17.1         18.1         19.1         20.1
     -0.694755    -0.667530    -0.651708    -0.595155    -0.562939    -0.558008    -0.544563    -0.501373    -0.489991    -0.464438

        21.1         22.1         23.1
     -0.562709     0.137503     0.174767


 **********************************************************************************************************************************
 DATASETS  * FILE   NREC   LENGTH (MB)   RECORD NAMES
              1      18        5.04       500      610      700      900      950      970     1000      129      960     1100   
                                          VAR    BASINP    GEOM    SYMINP    ZMAT    AOBASIS   BASIS     P2S    ABASIS      S 
                                         1400     1410     1200     1210     1080     1600     1650     1700   
                                           T        V       H0       H01     AOSYM     SMH    MOLCAS    OPER   

              2       3        2.21       700     1000     2100   
                                         GEOM     BASIS     RHF  

 PROGRAMS   *        TOTAL       RHF       INT
 CPU TIMES  *        80.24     44.29     35.91
 REAL TIME  *        99.66 SEC
 DISK USED  *         9.08 GB      
 SF USED    *         0.25 MB      
 GA USED    *         0.01 MB       (max)       0.00 MB       (current)
 **********************************************************************************************************************************


1PROGRAM * CCSD (Unrestricted open-shell coupled cluster)     Authors: C. Hampel, H.-J. Werner, 1991, M. Deegan, P.J. Knowles, 1992


 Convergence thresholds:  THRVAR = 1.00D-08  THRDEN = 1.00D-10

 CCSD(T)     terms to be evaluated (factor= 1.000)


 Number of core orbitals:           5 (   5 )
 Number of closed-shell orbitals:  15 (  15 )
 Number of active  orbitals:        1 (   1 )
 Number of external orbitals:     227 ( 227 )

 Memory could be reduced to 332.02 Mwords without degradation in triples

 Number of N-1 electron functions:              31
 Number of N-2 electron functions:             465
 Number of singly external CSFs:              7068
 Number of doubly external CSFs:          18353430
 Total number of CSFs:                    18360498

 Molecular orbitals read from record     2100.2  Type=RHF/CANONICAL (state 1.1)

 Integral transformation finished. Total CPU:  27.59 sec, npass=  1  Memory used: 145.25 MW

 Starting RMP2 calculation

 ITER.      SQ.NORM     CORR.ENERGY   TOTAL ENERGY   ENERGY CHANGE        DEN1      VAR(S)    VAR(P)  DIIS     TIME
   1      1.26556042    -0.96766112  -268.34342415    -0.96766112    -0.00324145  0.27D-04  0.11D-02  1  1    31.61
   2      1.26835200    -0.97115637  -268.34691940    -0.00349525    -0.00000669  0.10D-05  0.23D-05  2  2    34.72
   3      1.26843221    -0.97120942  -268.34697245    -0.00005305    -0.00000008  0.54D-07  0.11D-07  3  3    38.21
   4      1.26843392    -0.97120923  -268.34697226     0.00000019    -0.00000000  0.16D-08  0.12D-09  4  4    42.08
   5      1.26843418    -0.97120932  -268.34697235    -0.00000009    -0.00000000  0.19D-10  0.46D-11  5  5    46.07
   6      1.26843424    -0.97120935  -268.34697238    -0.00000003    -0.00000000  0.50D-13  0.56D-13  6  6    51.97
   7      1.26843424    -0.97120935  -268.34697238     0.00000000    -0.00000000  0.15D-14  0.86D-15  6  1    55.98
   8      1.26843424    -0.97120935  -268.34697238     0.00000000    -0.00000000  0.16D-16  0.80D-17  6  2    60.10
   9      1.26843424    -0.97120935  -268.34697238    -0.00000000    -0.00000000  0.31D-18  0.10D-18  6  3    64.74

 Norm of t1 vector:      0.04592216      S-energy:    -0.00447038      T1 diagnostic:  0.00074517
 Norm of t2 vector:      0.51606724      P-energy:    -0.96673896
                                         Alpha-Beta:  -0.73716322
                                         Alpha-Alpha: -0.11896988
                                         Beta-Beta:   -0.11060587

 Spin contamination <S**2-Sz**2-Sz>     0.00145573
  Reference energy                   -267.375763031617
  RHF-RMP2 correlation energy          -0.971209348566
 !RHF-RMP2 energy                    -268.346972380183

 Starting UCCSD calculation

 ITER.      SQ.NORM     CORR.ENERGY   TOTAL ENERGY   ENERGY CHANGE        DEN1      VAR(S)    VAR(P)  DIIS     TIME
   1      1.28003297    -0.97928302  -268.35504605    -0.97928302    -0.02937533  0.65D-02  0.54D-02  1  1   146.53
   2      1.30648977    -1.00593574  -268.38169877    -0.02665272    -0.00364695  0.62D-03  0.97D-03  2  2   228.57
   3      1.32320675    -1.01277771  -268.38854074    -0.00684197    -0.00091608  0.75D-03  0.76D-04  3  3   310.67
   4      1.33450543    -1.01544758  -268.39121061    -0.00266987    -0.00038696  0.31D-03  0.33D-04  4  4   393.03
   5      1.34965834    -1.01745354  -268.39321657    -0.00200596    -0.00011849  0.10D-03  0.90D-05  5  5   475.79
   6      1.36124270    -1.01848039  -268.39424342    -0.00102685    -0.00001826  0.93D-05  0.32D-05  6  6   558.19
   7      1.36495590    -1.01872248  -268.39448551    -0.00024209    -0.00000320  0.16D-05  0.61D-06  6  1   640.85
   8      1.36556559    -1.01876501  -268.39452804    -0.00004254    -0.00000068  0.27D-06  0.15D-06  6  2   723.55
   9      1.36588947    -1.01878372  -268.39454675    -0.00001871    -0.00000015  0.67D-07  0.33D-07  6  4   806.56
  10      1.36587586    -1.01878246  -268.39454549     0.00000126    -0.00000002  0.11D-07  0.43D-08  6  3   897.67
  11      1.36593896    -1.01878760  -268.39455063    -0.00000514    -0.00000001  0.27D-08  0.97D-09  6  5   994.42
  12      1.36593146    -1.01878510  -268.39454813     0.00000251    -0.00000000  0.13D-08  0.23D-09  6  6  1107.03
  13      1.36592704    -1.01878392  -268.39454696     0.00000117    -0.00000000  0.83D-09  0.64D-10  6  1  1188.93
  14      1.36591376    -1.01878237  -268.39454541     0.00000155    -0.00000000  0.58D-09  0.29D-10  6  2  1271.56
  15      1.36590706    -1.01878157  -268.39454460     0.00000080    -0.00000000  0.47D-09  0.23D-10  6  3  1353.73
  16      1.36590365    -1.01878140  -268.39454443     0.00000018    -0.00000000  0.33D-09  0.19D-10  6  4  1435.66
  17      1.36590340    -1.01878144  -268.39454447    -0.00000005    -0.00000000  0.15D-09  0.18D-10  6  5  1517.65
  18      1.36590706    -1.01878168  -268.39454471    -0.00000024    -0.00000000  0.30D-10  0.66D-11  6  6  1600.25
  19      1.36591057    -1.01878203  -268.39454506    -0.00000035    -0.00000000  0.26D-11  0.18D-11  6  2  1682.89
  20      1.36591002    -1.01878190  -268.39454493     0.00000013    -0.00000000  0.59D-12  0.17D-12  6  1  1765.27
  21      1.36591031    -1.01878194  -268.39454497    -0.00000004    -0.00000000  0.20D-12  0.60D-13  6  4  1847.39
  22      1.36591027    -1.01878193  -268.39454497     0.00000001    -0.00000000  0.58D-13  0.13D-13  6  3  1929.05
  23      1.36591029    -1.01878194  -268.39454497    -0.00000001    -0.00000000  0.17D-13  0.55D-14  6  6  2011.72
  24      1.36591029    -1.01878194  -268.39454497     0.00000000    -0.00000000  0.40D-14  0.99D-15  6  5  2093.91
  25      1.36591029    -1.01878194  -268.39454497     0.00000000    -0.00000000  0.89D-15  0.28D-15  6  1  2176.36
  26      1.36591031    -1.01878194  -268.39454497    -0.00000000    -0.00000000  0.15D-15  0.53D-16  6  2  2258.73
  27      1.36591031    -1.01878194  -268.39454497    -0.00000000    -0.00000000  0.45D-16  0.16D-16  6  3  2340.82
  28      1.36591031    -1.01878194  -268.39454497    -0.00000000    -0.00000000  0.10D-16  0.48D-17  6  5  2425.49
  29      1.36591032    -1.01878194  -268.39454497    -0.00000000    -0.00000000  0.16D-17  0.40D-18  6  4  2507.62
  30      1.36591031    -1.01878194  -268.39454497     0.00000000    -0.00000000  0.62D-18  0.15D-18  6  6  2590.00

 Norm of t1 vector:      0.23172405      S-energy:    -0.00501895      T1 diagnostic:  0.02855644
                                                                       D1 diagnostic:  0.14629185
 Norm of t2 vector:      0.55876138      P-energy:    -1.01376299
                                         Alpha-Beta:  -0.80149809
                                         Alpha-Alpha: -0.10865077
                                         Beta-Beta:   -0.10361413

 Singles amplitudes (print threshold =  0.500E-01):

         I         SYM. A    A   T(IA) [Beta-Beta]

         8         1         1     -0.09630162
         9         1         1      0.09933303
        11         1         1     -0.05354605
        12         1         1     -0.07583895
        14         1         1     -0.11156896

 Spin contamination <S**2-Sz**2-Sz>     0.00176469

 Memory could be reduced to 360.52 Mwords without degradation in triples
 

 RESULTS
 =======

  Reference energy                   -267.375763031617
  UCCSD singles energy                 -0.005018949187
  UCCSD pair energy                    -1.013762990395
  UCCSD correlation energy             -1.018781939582
  Triples (T) contribution             -0.040879980955
  Total correlation energy             -1.059661920537
 
  RHF-UCCSD energy                   -268.394544971199
  RHF-UCCSD[T] energy                -268.438761570602
  RHF-UCCSD-T energy                 -268.434926067329
 !RHF-UCCSD(T) energy                -268.435424952154

 Program statistics:

 Available memory in ccsd:               999997692
 Min. memory needed in ccsd:              51505734
 Max. memory used in ccsd:                74803578
 Max. memory used in cckext:              59475747 (30 integral passes)
 Max. memory used in cckint:             145249478 ( 1 integral passes)



 **********************************************************************************************************************************
 DATASETS  * FILE   NREC   LENGTH (MB)   RECORD NAMES
              1      18        5.04       500      610      700      900      950      970     1000      129      960     1100   
                                          VAR    BASINP    GEOM    SYMINP    ZMAT    AOBASIS   BASIS     P2S    ABASIS      S 
                                         1400     1410     1200     1210     1080     1600     1650     1700   
                                           T        V       H0       H01     AOSYM     SMH    MOLCAS    OPER   

              2       3        2.21       700     1000     2100   
                                         GEOM     BASIS     RHF  

 PROGRAMS   *        TOTAL  UCCSD(T)       RHF       INT
 CPU TIMES  *      4636.29   4556.05     44.29     35.91
 REAL TIME  *      4780.49 SEC
 DISK USED  *        16.06 GB      
 SF USED    *         6.57 GB      
 GA USED    *         0.01 MB       (max)       0.00 MB       (current)
 **********************************************************************************************************************************

        UCCSD(T)        RHF-SCF 
   -268.43542495   -267.37576303
 **********************************************************************************************************************************
 Variable memory released
