
 Working directory              : /scratch/mel64643/tmp/40073529/
 Global scratch directory       : /scratch/mel64643/tmp/40073529/
 Wavefunction directory         : /home/mel64643/wfu/
 Main file repository           : /scratch/mel64643/tmp/40073529/

 id        : ccgc

 Nodes     nprocs
 a1-8         3
 Distribution of processes:   nprocs(total)=    4   nprocs(compute)=    3   nprocs(helper)=    1
 GA implementation: MPI file
 GA implementation (serial work in mppx): MPI file

 Using customized tuning parameters: mindgm=1; mindgv=20; mindgc=4; mindgr=1; noblas=0; minvec=7
 default implementation of scratch files=sf  


 Variables initialized (1015), CPU time= 0.01 sec
 ***,Optimization of min3
 memory,1000,m
 gthresh,energy=1.0d-12,orbital=1.0d-10,oneint=1.0d-16,twoint=1.0d-16,optgrad=1.0d-6,compress=1.0d-13
 geomtyp=xyz
 
  bohr
  geometry = {
  6
  arbitrary comment
  C   -1.3668770474   -0.0258463517    0.0000003827
  O    1.2982711947    0.1280935643    0.0000001505
  H   -2.0615052218    1.9042386364   -0.0000798477
  H   -2.1014747929   -0.9846473198    1.6793244164
  H   -2.1014675423   -0.9847784183   -1.6792520466
  H    1.9093292498   -1.5671922308   -0.0000014652
 }
 
 basis=cc-pvdz
 {rhf;maxit,200}
 {ccsd(t);maxit,200}
 Commands initialized (818), CPU time= 0.01 sec, 672 directives.
 Default parameters read. Elapsed time= 0.09 sec

 Checking input...
 Passed
1


                                         ***  PROGRAM SYSTEM MOLPRO  ***
                                       Copyright, TTI GmbH Stuttgart, 2015
                                    Version 2022.1 linked Mar  4 2022 00:40:14


 **********************************************************************************************************************************
 LABEL *   Optimization of min3                                                          
  64 bit mpp version                                                                     DATE: 07-Aug-25          TIME: 21:28:04  
 **********************************************************************************************************************************

 SHA1:             31073afc4d8441e10870424e0d77336a33bc4286
 **********************************************************************************************************************************

 Memory per process:      1000 MW
 Total memory per node:   3000 MW

 GA preallocation disabled
 GA check disabled

 Variable memory set to 1000.0 MW


 THRESHOLDS:

 ZERO    =  1.00D-12  ONEINT  =  1.00D-16  TWOINT  =  1.00D-16  PREFAC  =  1.00D-14  XXXXXX  =  1.00D-09  EORDER  =  1.00D-04
 ENERGY  =  1.00D-12  ETEST   =  0.00D+00  EDENS   =  0.00D+00  THRDEDEF=  1.00D-06  GRADIENT=  1.00D-05  STEP    =  1.00D-03
 ORBITAL =  1.00D-10  CIVEC   =  1.00D-05  COEFF   =  1.00D-04  PRINTCI =  5.00D-02  PUNCHCI =  9.90D+01  OPTGRAD =  1.00D-06
 OPTENERG=  1.00D-06  OPTSTEP =  3.00D-04  THRGRAD =  1.00D-10  COMPRESS=  1.00D-13  VARMIN  =  1.00D-07  VARMAX  =  1.00D-03
 THRDOUB =  0.00D+00  THRDIV  =  1.00D-05  THRRED  =  1.00D-07  THRPSP  =  1.00D+00  THRDC   =  1.00D-10  THRCS   =  1.00D-10
 THRNRM  =  1.00D-08  THREQ   =  0.00D+00  THRDE   =  1.00D+00  THRREF  =  1.00D-05  SPARFAC =  1.00D+00  THRDLP  =  1.00D-07
 THRDIA  =  1.00D-10  THRDLS  =  1.00D-07  THRGPS  =  0.00D+00  THRKEX  =  0.00D+00  THRDIS  =  2.00D-01  THRVAR  =  1.00D-10
 THRLOC  =  1.00D-06  THRGAP  =  1.00D-06  THRLOCT = -1.00D+00  THRGAPT = -1.00D+00  THRORB  =  1.00D-06  THRMLTP =  0.00D+00
 THRCPQCI=  1.00D-10  KEXTA   =  0.00D+00  THRCOARS=  0.00D+00  SYMTOL  =  1.00D-06  GRADTOL =  1.00D-06  THROVL  =  1.00D-08
 THRORTH =  1.00D-08  THRDLOVL= -1.00D+00  GRID    =  1.00D-06  GRIDMAX =  1.00D-03  DTMAX   =  0.00D+00  THROCCDE=  1.00D-01
 THROCCDE=  1.00D-01  THRPRINT=  2.50D-01

 SETTING GEOMTYP        =    XYZ
 ZUNIT=BOHR

 SETTING BASIS          =    CC-PVDZ


 Recomputing integrals since basis changed


 Using spherical harmonics

 Library entry C      S cc-pVDZ              selected for orbital group  1
 Library entry C      P cc-pVDZ              selected for orbital group  1
 Library entry C      D cc-pVDZ              selected for orbital group  1
 Library entry O      S cc-pVDZ              selected for orbital group  2
 Library entry O      P cc-pVDZ              selected for orbital group  2
 Library entry O      D cc-pVDZ              selected for orbital group  2
 Library entry H      S cc-pVDZ              selected for orbital group  3
 Library entry H      P cc-pVDZ              selected for orbital group  3


 PROGRAM * SEWARD (Integral evaluation for generally contracted gaussian basis sets)     Author: Roland Lindh, 1990

 Geometry written to block  1 of record 700


 Point group  C1  



 ATOMIC COORDINATES

 NR  ATOM    CHARGE       X              Y              Z

   1  C       6.00   -1.366877047   -0.025846352    0.000000383
   2  O       8.00    1.298271195    0.128093564    0.000000151
   3  H       1.00   -2.061505222    1.904238636   -0.000079848
   4  H       1.00   -2.101474793   -0.984647320    1.679324416
   5  H       1.00   -2.101467542   -0.984778418   -1.679252047
   6  H       1.00    1.909329250   -1.567192231   -0.000001465

 Bond lengths in Bohr (Angstrom)

 1-2  2.669590352  1-3  2.051276765  1-4  2.068589460  1-5  2.068589525  2-6  1.802050464
     ( 1.412686377)     ( 1.085488918)     ( 1.094650401)     ( 1.094650436)     ( 0.953604038)

 Bond angles

  1-2-6  106.51571575   2-1-3  106.48780487   2-1-4  112.41156195   2-1-5  112.41156207

  3-1-4  108.41497351   3-1-5  108.41481077   4-1-5  108.54503274

 NUCLEAR CHARGE:                   18
 NUMBER OF PRIMITIVE AOS:          82
 NUMBER OF SYMMETRY AOS:           80
 NUMBER OF CONTRACTIONS:           48   (   48A   )
 NUMBER OF INNER CORE ORBITALS:     0   (    0A   )
 NUMBER OF OUTER CORE ORBITALS:     2   (    2A   )
 NUMBER OF VALENCE ORBITALS:       12   (   12A   )


 NUCLEAR REPULSION ENERGY   40.49846530

 Eigenvalues of metric

         1 0.960E-02 0.175E-01 0.366E-01 0.373E-01 0.377E-01 0.474E-01 0.475E-01 0.510E-01


 Contracted 2-electron integrals neglected if value below      1.0D-16
 AO integral compression algorithm  1   Integral accuracy      1.0D-16

     6.816 MB (compressed) written to integral file ( 98.6%)

     Node minimum: 2.097 MB, node maximum: 2.359 MB


 NUMBER OF SORTED TWO-ELECTRON INTEGRALS:     231084.     BUFFER LENGTH:  32768
 NUMBER OF SEGMENTS:   1  SEGMENT LENGTH:     231084      RECORD LENGTH: 524288

 Memory used in sort:       0.79 MW

 SORT1 READ      832256. AND WROTE      227683. INTEGRALS IN      1 RECORDS. CPU TIME:     0.01 SEC, REAL TIME:     0.02 SEC
 SORT2 READ      682150. AND WROTE      692076. INTEGRALS IN     27 RECORDS. CPU TIME:     0.01 SEC, REAL TIME:     0.01 SEC

 Node minimum:      230300.  Node maximum:      231084. integrals

 OPERATOR DM      FOR CENTER  0  COORDINATES:    0.000000    0.000000    0.000000


 **********************************************************************************************************************************
 DATASETS  * FILE   NREC   LENGTH (MB)   RECORD NAMES
              1      18       28.73       500      610      700      900      950      970     1000      129      960     1100   
                                          VAR    BASINP    GEOM    SYMINP    ZMAT    AOBASIS   BASIS     P2S    ABASIS      S 
                                         1400     1410     1200     1210     1080     1600     1650     1700   
                                           T        V       H0       H01     AOSYM     SMH    MOLCAS    OPER   

 PROGRAMS   *        TOTAL       INT
 CPU TIMES  *         0.37      0.25
 REAL TIME  *         0.98 SEC
 DISK USED  *        29.07 MB (local),      104.32 MB (total)
 GA USED    *         0.00 MB       (max)       0.00 MB       (current)
 **********************************************************************************************************************************


 Program * Restricted Hartree-Fock

 Orbital guess generated from atomic densities. Full valence occupancy:   14

 Initial occupancy:   9

 NELEC=   18   SYM=1   MS2= 0   THRE=1.0D-12   THRD=1.0D-10   THRG=1.0D-10  HFMA2=F  DIIS_START=2   DIIS_MAX=10   DIIS_INCORE=F

 Level shifts:    0.00 (CLOSED)    0.00 (OPEN)    0.30 (GAP_MIN)

 ITER           ETOT              DE          GRAD        DDIFF     DIIS  NEXP   TIME(IT)  TIME(TOT)  DIAG
   1     -115.01445885    -115.01445885     0.00D+00     0.16D+00     0     0       0.00      0.00    start
   2     -115.04287303      -0.02841418     0.10D-01     0.21D-01     1     0       0.00      0.00    diag
   3     -115.04882128      -0.00594825     0.48D-02     0.64D-02     2     0       0.01      0.01    diag
   4     -115.04928177      -0.00046049     0.10D-02     0.20D-02     3     0       0.00      0.01    diag
   5     -115.04930249      -0.00002072     0.18D-03     0.43D-03     4     0       0.00      0.01    diag
   6     -115.04930327      -0.00000078     0.32D-04     0.92D-04     5     0       0.01      0.02    diag
   7     -115.04930330      -0.00000003     0.67D-05     0.15D-04     6     0       0.00      0.02    diag
   8     -115.04930331      -0.00000000     0.21D-05     0.49D-05     7     0       0.00      0.02    fixocc
   9     -115.04930331      -0.00000000     0.44D-06     0.14D-05     8     0       0.00      0.02    diag
  10     -115.04930331      -0.00000000     0.70D-07     0.23D-06     9     0       0.01      0.03    diag/orth
  11     -115.04930331      -0.00000000     0.16D-07     0.45D-07     9     0       0.00      0.03    diag
  12     -115.04930331       0.00000000     0.42D-08     0.13D-07     9     0       0.00      0.03    diag
  13     -115.04930331      -0.00000000     0.65D-09     0.18D-08     9     0       0.00      0.03    diag
  14     -115.04930331       0.00000000     0.14D-09     0.37D-09     9     0       0.01      0.04    diag
  15     -115.04930331       0.00000000     0.59D-10     0.11D-09     9     0       0.00      0.04    diag
  16     -115.04930331       0.00000000     0.12D-10     0.30D-10     9     0       0.00      0.04    diag
  17     -115.04930331       0.00000000     0.22D-11     0.44D-11     0     0       0.00      0.04    diag

 Final occupancy:   9

 !RHF STATE 1.1 Energy               -115.049303305702
  RHF One-electron energy            -237.237709440146
  RHF Two-electron energy              81.689940833659
  RHF Kinetic energy                  114.979795705930
  RHF Nuclear energy                   40.498465300786
  RHF Virial quotient                  -1.000604520119

 !RHF STATE 1.1 Dipole moment          -0.38767253    -0.59432028    -0.00000278
 Dipole moment /Debye                  -0.98536529    -1.51061147    -0.00000707

 Orbital energies:

           1.1          2.1          3.1          4.1          5.1          6.1          7.1          8.1          9.1         10.1
    -20.549846   -11.273495    -1.354985    -0.921533    -0.686425    -0.615001    -0.586497    -0.498484    -0.442646     0.184640

          11.1
      0.225939


 HOMO      9.1    -0.442646 =     -12.0450eV
 LUMO     10.1     0.184640 =       5.0243eV
 LUMO-HOMO         0.627285 =      17.0693eV

 Orbitals saved in record  2100.2


 **********************************************************************************************************************************
 DATASETS  * FILE   NREC   LENGTH (MB)   RECORD NAMES
              1      18       28.73       500      610      700      900      950      970     1000      129      960     1100   
                                          VAR    BASINP    GEOM    SYMINP    ZMAT    AOBASIS   BASIS     P2S    ABASIS      S 
                                         1400     1410     1200     1210     1080     1600     1650     1700   
                                           T        V       H0       H01     AOSYM     SMH    MOLCAS    OPER   

              2       4        0.47       700     1000      520     2100   
                                         GEOM     BASIS   MCVARS     RHF  

 PROGRAMS   *        TOTAL   RHF-SCF       INT
 CPU TIMES  *         0.42      0.05      0.25
 REAL TIME  *         1.21 SEC
 DISK USED  *        29.40 MB (local),      105.31 MB (total)
 GA USED    *         0.00 MB       (max)       0.00 MB       (current)
 **********************************************************************************************************************************


 PROGRAM * CCSD (Closed-shell coupled cluster)     Authors: C. Hampel, H.-J. Werner, 1991, M. Deegan, P.J. Knowles, 1992


 Convergence thresholds:  THRVAR = 1.00D-08  THRDEN = 1.00D-12

 CCSD(T)     terms to be evaluated (factor= 1.000)


 Number of core orbitals:           2 (   2 )
 Number of closed-shell orbitals:   7 (   7 )
 Number of external orbitals:      39 (  39 )

 Molecular orbitals read from record     2100.2  Type=RHF/CANONICAL  

 Number of N-1 electron functions:               7
 Number of N-2 electron functions:              28
 Number of singly external CSFs:               273
 Number of doubly external CSFs:             37401
 Total number of CSFs:                       37675

 Length of J-op  integral file:               0.00 MB
 Length of K-op  integral file:               0.16 MB
 Length of 3-ext integral record:             0.00 MB

 Memory could be reduced to 0.73 Mwords without degradation in triples

 Integral transformation finished. Total CPU:   0.02 sec, npass=  1  Memory used:   0.66 MW

 Reference energy:                   -115.04930331

 MP2 singlet pair energy:              -0.21832026
 MP2 triplet pair energy:              -0.11980926
 MP2 correlation energy:               -0.33812953
 MP2 total energy:                   -115.38743283

 SCS-MP2 correlation energy:           -0.33653230   (PS=  1.200000  PT=  0.333333)
 SCS-MP2 total energy:               -115.38583561

 ITER.      SQ.NORM     CORR.ENERGY   TOTAL ENERGY   ENERGY CHANGE        DEN1      VAR(S)    VAR(P)  DIIS     TIME  TIME/IT
   1      1.10691418    -0.36092171  -115.41022501    -0.02279218    -0.01417086  0.90D-03  0.17D-02  1  1     0.05     0.03
   2      1.11535409    -0.36284676  -115.41215006    -0.00192505    -0.00919568  0.19D-04  0.16D-03  2  2     0.07     0.03
   3      1.11719479    -0.36297096  -115.41227427    -0.00012420    -0.00118261  0.92D-05  0.84D-05  3  3     0.08     0.03
   4      1.11769713    -0.36296932  -115.41227262     0.00000165    -0.00025021  0.30D-06  0.65D-06  4  4     0.10     0.03
   5      1.11779157    -0.36296971  -115.41227301    -0.00000039    -0.00003498  0.92D-07  0.47D-07  5  5     0.12     0.03
   6      1.11780952    -0.36296841  -115.41227171     0.00000130    -0.00000419  0.14D-07  0.38D-08  6  6     0.14     0.03
   7      1.11781394    -0.36296801  -115.41227131     0.00000040    -0.00000033  0.18D-08  0.66D-09  6  1     0.15     0.03
   8      1.11781513    -0.36296810  -115.41227141    -0.00000010     0.00000070  0.24D-09  0.64D-10  6  3     0.17     0.03
   9      1.11781613    -0.36296799  -115.41227129     0.00000012    -0.00000036  0.11D-10  0.96D-11  6  2     0.19     0.03
  10      1.11781606    -0.36296799  -115.41227129    -0.00000000     0.00000007  0.99D-12  0.78D-12  6  5     0.21     0.03
  11      1.11781609    -0.36296799  -115.41227129     0.00000000    -0.00000000  0.16D-12  0.45D-13  6  4     0.23     0.03
  12      1.11781608    -0.36296799  -115.41227129    -0.00000000     0.00000001  0.16D-13  0.85D-14  6  1     0.24     0.03
  13      1.11781608    -0.36296799  -115.41227129    -0.00000000    -0.00000000  0.22D-14  0.81D-15  6  6     0.26     0.03
  14      1.11781608    -0.36296799  -115.41227129     0.00000000    -0.00000000  0.21D-15  0.11D-15  6  3     0.28     0.03
  15      1.11781608    -0.36296799  -115.41227129    -0.00000000    -0.00000000  0.22D-16  0.15D-16  6  2     0.29     0.03
  16      1.11781608    -0.36296799  -115.41227129    -0.00000000    -0.00000000  0.48D-17  0.14D-17  6  5     0.31     0.03
  17      1.11781608    -0.36296799  -115.41227129    -0.00000000    -0.00000000  0.45D-18  0.22D-18  6  4     0.33     0.03
  18      1.11781608    -0.36296799  -115.41227129     0.00000000    -0.00000000  0.40D-19  0.21D-19  6  6     0.34     0.03
  19      1.11781608    -0.36296799  -115.41227129    -0.00000000    -0.00000000  0.13D-20  0.12D-20  6  1     0.36     0.03
  20      1.11781608    -0.36296799  -115.41227129    -0.00000000     0.00000000  0.24D-21  0.16D-21  6  3     0.38     0.03

 Norm of t1 vector:      0.04130601      S-energy:     0.00000000      T1 diagnostic:  0.00780610
                                                                       D1 diagnostic:  0.01710047
                                                                       D2 diagnostic:  0.13387189 (internal)


 Total CPU time for triples:      0.08 sec


 RESULTS
 =======

  Reference energy                   -115.049303305702
  CCSD singlet pair energy             -0.254133567922
  CCSD triplet pair energy             -0.108834419966
  CCSD correlation energy              -0.362967987888

  Triples (T) contribution             -0.007696272981
  Total correlation energy             -0.370664260869

  CCSD total energy                  -115.412271293590
  CCSD[T] energy                     -115.420253874114
  CCSD-T energy                      -115.419819646727
 !CCSD(T) total energy               -115.419967566570

 Timing summary (sec):

 STEP                 CPU(USER)    SYS     CPU(TOT)    WALL
 Transformation          0.02      0.01      0.03      0.03
 CCSD iterations         0.36      0.05      0.41      0.58
 Triples                 0.08      0.01      0.09      0.08

 Program statistics:

 Available memory in ccsd:               999999795
 Min. memory needed in ccsd:                136177
 Max. memory used in ccsd:                  162910
 Max. memory used in cckext:                178997 (20 integral passes)



 **********************************************************************************************************************************
 DATASETS  * FILE   NREC   LENGTH (MB)   RECORD NAMES
              1      19       31.13       500      610      700      900      950      970     1000      129      960     1100   
                                          VAR    BASINP    GEOM    SYMINP    ZMAT    AOBASIS   BASIS     P2S    ABASIS      S 
                                         1400     1410     1200     1210     1080     1600     1650     1700     1380   
                                           T        V       H0       H01     AOSYM     SMH    MOLCAS    OPER     JKOP   

              2       4        0.47       700     1000      520     2100   
                                         GEOM     BASIS   MCVARS     RHF  

 PROGRAMS   *        TOTAL   CCSD(T)   RHF-SCF       INT
 CPU TIMES  *         0.91      0.48      0.05      0.25
 REAL TIME  *         1.95 SEC
 DISK USED  *        35.56 MB (local),      115.96 MB (total)
 SF USED    *         5.97 MB
 GA USED    *         0.00 MB       (max)       0.00 MB       (current)
 **********************************************************************************************************************************

 CCSD(T)/cc-pVDZ energy=   -115.419967566570

         CCSD(T)         RHF-SCF
   -115.41996757   -115.04930331
 **********************************************************************************************************************************
 Molpro calculation terminated
