
 Primary working directories    : /tmp/333988.39.gen4.q
 Secondary working directories  : /tmp/333988.39.gen4.q
 Wavefunction directory         : /home/vulcan/mel64643/wfu/
 Main file repository           : /tmp/333988.39.gen4.q/

 ARCHNAME  : Linux/x86_64
 FC        : /opt/intel/compilers_and_libraries_2016.1.150/linux/bin/intel64/ifort
 FCVERSION : 16.0.1
 BLASLIB   : -mkl
 id        : ccgc

 Nodes     nprocs
 n049         3
 Number of processes for MPI-2 version of Molpro:   nprocs(total)=    4   nprocs(compute)=    3   nprocs(helper)=    1
 ga_uses_ma=false, calling ma_init with nominal heap.
 GA-space will be limited to   8.0 MW (determined by -G option)

 Using customized tuning parameters: mindgm=10; mindgv=16; mindgc=4; mindgr=1; noblas=0; mincuda=1000; minvec=7
 default implementation of scratch files=sf  

 ***,Optimization of min3
 memory,1000,m
 gthresh,energy=1.0d-10,orbital=1.0d-10,oneint=1.0d-16,twoint=1.0d-16,optgrad=1.0d-6,compress=1.0d-13
 geomtyp=xyz
 
  bohr
  geometry = {
  12
  arbitrary comment
  C         -3.1058653482          1.5895331653          0.0207183678
  C         -0.8619499837         -0.0736473180         -0.6564793968
  C         -1.1189684880         -2.7797870222          0.2468902378
  O          1.3117374771          1.1052090613          0.5892433681
  O          3.4489601286          0.1200655988         -0.2518529019
  H         -4.7968471064          0.8314457655         -0.8831447997
  H         -2.7902234698          3.5215911272         -0.6216647737
  H         -3.3789095237          1.5882268341          2.0657424601
  H         -0.4659239401          0.0024855988         -2.6790954823
  H         -2.6946802811         -3.6914565776         -0.7238413015
  H         -1.4668564735         -2.8210132229          2.2807274790
  H          0.6051785368         -3.8282227720         -0.1631372370
 }
 
 basis=cc-pvtz
 {rhf;maxit,200}
 {uccsd(t);maxit,200}

 Variables initialized (661), CPU time= 0.00 sec
 Commands  initialized (458), CPU time= 0.00 sec, 486 directives.
 Default parameters read. Elapsed time= 0.05 sec

 Checking input...
 Passed
1


                                         ***  PROGRAM SYSTEM MOLPRO  ***
                         Copyright, University College Cardiff Consultants Limited, 2008

                                    Version 2010.1 linked May 16 2016 07:17:05


 **********************************************************************************************************************************
 LABEL *   Optimization of min3                                                          
 Linux-4.4.3/n049(x86_64) 64 bit mpp version                                             DATE: 15-Jul-20          TIME: 14:42:53  
 **********************************************************************************************************************************

 SHA1:             9e8077add272b0f3cad6f7df79ec5211205f459d
 **********************************************************************************************************************************

 THRESHOLDS:

 ZERO    =  1.00D-12  ONEINT  =  1.00D-16  TWOINT  =  1.00D-16  PREFAC  =  1.00D-14  LOCALI  =  1.00D-09  EORDER  =  1.00D-04
 ENERGY  =  1.00D-10  ETEST   =  0.00D+00  EDENS   =  0.00D+00  THRDEDEF=  1.00D-06  GRADIENT=  1.00D-02  STEP    =  1.00D-03
 ORBITAL =  1.00D-10  CIVEC   =  1.00D-05  COEFF   =  1.00D-04  PRINTCI =  5.00D-02  PUNCHCI =  9.90D+01  OPTGRAD =  1.00D-06
 OPTENERG=  1.00D-06  OPTSTEP =  3.00D-04  THRGRAD =  1.00D-10  COMPRESS=  1.00D-13  VARMIN  =  1.00D-07  VARMAX  =  1.00D-03
 THRDOUB =  0.00D+00  THRDIV  =  1.00D-05  THRRED  =  1.00D-07  THRPSP  =  1.00D+00  THRDC   =  1.00D-10  THRCS   =  1.00D-10
 THRNRM  =  1.00D-08  THREQ   =  0.00D+00  THRDE   =  1.00D+00  THRREF  =  1.00D-05  SPARFAC =  1.00D+00  THRDLP  =  1.00D-07
 THRDIA  =  1.00D-10  THRDLS  =  1.00D-07  THRGPS  =  0.00D+00  THRKEX  =  0.00D+00  THRDIS  =  2.00D-01  THRVAR  =  1.00D-10
 THRLOC  =  1.00D-06  THRGAP  =  1.00D-06  THRLOCT = -1.00D+00  THRGAPT = -1.00D+00  THRORB  =  1.00D-06  THRMLTP =  0.00D+00
 THRCPQCI=  1.00D-10  KEXTA   =  0.00D+00  THRCOARS=  0.00D+00  SYMTOL  =  1.00D-06  GRADTOL =  1.00D-06  THROVL  =  1.00D-08
 THRORTH =  1.00D-08  GRID    =  1.00D-06  GRIDMAX =  1.00D-03  DTMAX   =  0.00D+00

 SETTING GEOMTYP        =    XYZ
 ZUNIT=BOHR
 

 Variable memory set to 1000000000 words,  buffer space   230000 words

 SETTING BASIS          =    CC-PVTZ


 Recomputing integrals since basis changed


 Using spherical harmonics

 Library entry C      S cc-pVTZ              selected for orbital group  1
 Library entry C      P cc-pVTZ              selected for orbital group  1
 Library entry C      D cc-pVTZ              selected for orbital group  1
 Library entry C      F cc-pVTZ              selected for orbital group  1
 Library entry O      S cc-pVTZ              selected for orbital group  2
 Library entry O      P cc-pVTZ              selected for orbital group  2
 Library entry O      D cc-pVTZ              selected for orbital group  2
 Library entry O      F cc-pVTZ              selected for orbital group  2
 Library entry H      S cc-pVTZ              selected for orbital group  3
 Library entry H      P cc-pVTZ              selected for orbital group  3
 Library entry H      D cc-pVTZ              selected for orbital group  3

1PROGRAM * SEWARD (Integral evaluation for generally contracted gaussian basis sets)     Author: Roland Lindh, 1990

 Geometry written to block  1 of record 700


 Point group  C1  



 ATOMIC COORDINATES

 NR  ATOM    CHARGE       X              Y              Z

   1  C       6.00   -3.105865348    1.589533165    0.020718368
   2  C       6.00   -0.861949984   -0.073647318   -0.656479397
   3  C       6.00   -1.118968488   -2.779787022    0.246890238
   4  O       8.00    1.311737477    1.105209061    0.589243368
   5  O       8.00    3.448960129    0.120065599   -0.251852902
   6  H       1.00   -4.796847106    0.831445766   -0.883144800
   7  H       1.00   -2.790223470    3.521591127   -0.621664774
   8  H       1.00   -3.378909524    1.588226834    2.065742460
   9  H       1.00   -0.465923940    0.002485599   -2.679095482
  10  H       1.00   -2.694680281   -3.691456578   -0.723841302
  11  H       1.00   -1.466856474   -2.821013223    2.280727479
  12  H       1.00    0.605178537   -3.828222772   -0.163137237

 Bond lengths in Bohr (Angstrom)

 1-2  2.874008054  1-6  2.061815811  1-7  2.060372263  1-8  2.063171919  2-3  2.864494250
     ( 1.520859561)     ( 1.091065936)     ( 1.090302044)     ( 1.091783558)     ( 1.515825072)

  2- 4  2.768834547   2- 9  2.062427860   3-10  2.063087190   3-11  2.063787677   3-12  2.059131617
       ( 1.465204138)       ( 1.091389819)       ( 1.091738721)       ( 1.092109403)       ( 1.089645522)

 4-5  2.499134098
     ( 1.322484807)

 Bond angles

  1-2-3  113.72465909   1-2-4  105.10234667   1-2-9  111.07803466   2-1-6  108.92105712

  2- 1- 7  110.46183247   2- 1- 8  109.66480292   2- 3-10  109.73121152   2- 3-11  110.16883810

  2- 3-12  110.06522051   2- 4- 5  110.61684253   3- 2- 4  109.31582585   3- 2- 9  111.18514669

  4-2-9  105.94781026   6-1-7  109.49627091   6-1-8  109.01126691   7-1-8  109.26305511

 10- 3-11  109.03356967  10- 3-12  108.71263570  11- 3-12  109.09953709

 NUCLEAR CHARGE:                   41
 NUMBER OF PRIMITIVE AOS:         354
 NUMBER OF SYMMETRY AOS:          322
 NUMBER OF CONTRACTIONS:          248   ( 248A   )
 NUMBER OF CORE ORBITALS:           5   (   5A   )
 NUMBER OF VALENCE ORBITALS:       27   (  27A   )


 NUCLEAR REPULSION ENERGY  186.61232806


 Eigenvalues of metric

         1 0.806E-03 0.961E-03 0.110E-02 0.124E-02 0.137E-02 0.151E-02 0.160E-02 0.165E-02


 Contracted 2-electron integrals neglected if value below      1.0D-16
 AO integral compression algorithm  1   Integral accuracy      1.0D-16

     3374.055 MB (compressed) written to integral file ( 82.1%)

     Node minimum: 923.795 MB, node maximum: 1496.842 MB


 NUMBER OF SORTED TWO-ELECTRON INTEGRALS:  158903334.     BUFFER LENGTH:  32768
 NUMBER OF SEGMENTS:  10  SEGMENT LENGTH:   15997437      RECORD LENGTH: 524288

 Memory used in sort:      16.55 MW

 SORT1 READ   513548807. AND WROTE   152679324. INTEGRALS IN    442 RECORDS. CPU TIME:    16.61 SEC, REAL TIME:    18.21 SEC
 SORT2 READ   459524725. AND WROTE   476679126. INTEGRALS IN  10911 RECORDS. CPU TIME:     2.17 SEC, REAL TIME:    12.53 SEC

 Node minimum:   158882750.  Node maximum:   158903334. integrals

 OPERATOR DM      FOR CENTER  0  COORDINATES:    0.000000    0.000000    0.000000


 **********************************************************************************************************************************
 DATASETS  * FILE   NREC   LENGTH (MB)   RECORD NAMES
              1      18        5.04       500      610      700      900      950      970     1000      129      960     1100   
                                          VAR    BASINP    GEOM    SYMINP    ZMAT    AOBASIS   BASIS     P2S    ABASIS      S 
                                         1400     1410     1200     1210     1080     1600     1650     1700   
                                           T        V       H0       H01     AOSYM     SMH    MOLCAS    OPER   

 PROGRAMS   *        TOTAL       INT
 CPU TIMES  *        28.08     28.04
 REAL TIME  *        41.22 SEC
 DISK USED  *         9.15 GB      
 GA USED    *         0.01 MB       (max)       0.00 MB       (current)
 **********************************************************************************************************************************

1PROGRAM * RHF-SCF (OPEN SHELL)       Authors: W. Meyer, H.-J. Werner


 NUMBER OF ELECTRONS:      21+   20-    SPACE SYMMETRY=1    SPIN SYMMETRY: Doublet 
 CONVERGENCE THRESHOLDS:    1.00E-10 (Density)    1.00E-11 (Energy)
 MAX. NUMBER OF ITERATIONS:      200
 INTERPOLATION TYPE:            DIIS
 INTERPOLATION STEPS:              2 (START)      1 (STEP)
 LEVEL SHIFTS:                 -0.30 (CLOSED)  0.00 (OPEN) 



 Orbital guess generated from atomic densities. Full valence occupancy:   32

 Molecular orbital dump at record        2100.2

 ITERATION    DDIFF          GRAD             ENERGY        2-EL.EN.            DIPOLE MOMENTS         DIIS
    1      0.000D+00      0.000D+00      -267.26099458    559.759421   -1.76203   -0.07468   -0.09897    0
    2      0.000D+00      0.326D-02      -267.33454012    562.624431   -1.00892   -0.43498   -0.36045    1
    3      0.471D-02      0.230D-02      -267.36108961    561.576826   -1.18271   -0.24612   -0.21793    2
    4      0.211D-02      0.546D-03      -267.36932676    561.762628   -0.97221   -0.31862   -0.29873    3
    5      0.926D-03      0.484D-03      -267.37354411    561.805928   -0.91738   -0.32032   -0.30277    4
    6      0.582D-03      0.271D-03      -267.37545964    561.773162   -0.87658   -0.31355   -0.30057    5
    7      0.484D-03      0.132D-03      -267.37579214    561.759112   -0.88667   -0.30195   -0.29244    6
    8      0.257D-03      0.355D-04      -267.37581382    561.756472   -0.88616   -0.29877   -0.29100    7
    9      0.843D-04      0.189D-04      -267.37582465    561.756673   -0.88873   -0.29927   -0.29104    8
   10      0.445D-04      0.816D-05      -267.37582644    561.756564   -0.88991   -0.29864   -0.29074    9
   11      0.197D-04      0.316D-05      -267.37582668    561.756524   -0.89053   -0.29849   -0.29058    9
   12      0.777D-05      0.146D-05      -267.37582674    561.756750   -0.89066   -0.29858   -0.29062    9
   13      0.365D-05      0.521D-06      -267.37582675    561.756801   -0.89068   -0.29864   -0.29065    9
   14      0.146D-05      0.292D-06      -267.37582675    561.756801   -0.89067   -0.29865   -0.29065    9
   15      0.800D-06      0.141D-06      -267.37582675    561.756809   -0.89066   -0.29866   -0.29065    9
   16      0.401D-06      0.695D-07      -267.37582675    561.756811   -0.89066   -0.29867   -0.29066    9
   17      0.173D-06      0.346D-07      -267.37582675    561.756806   -0.89065   -0.29866   -0.29066    9
   18      0.122D-06      0.211D-07      -267.37582675    561.756804   -0.89066   -0.29866   -0.29066    9
   19      0.738D-07      0.134D-07      -267.37582675    561.756807   -0.89065   -0.29866   -0.29066    9
   20      0.723D-07      0.105D-07      -267.37582675    561.756806   -0.89065   -0.29866   -0.29066    9
   21      0.757D-07      0.869D-08      -267.37582675    561.756806   -0.89065   -0.29866   -0.29066    9
   22      0.101D-06      0.683D-08      -267.37582675    561.756808   -0.89065   -0.29866   -0.29066    9
   23      0.124D-06      0.392D-08      -267.37582675    561.756808   -0.89065   -0.29866   -0.29066    9
   24      0.815D-07      0.220D-08      -267.37582675    561.756808   -0.89065   -0.29866   -0.29066    9
   25      0.331D-07      0.969D-09      -267.37582675    561.756808   -0.89065   -0.29866   -0.29066    9
   26      0.133D-07      0.396D-09      -267.37582675    561.756808   -0.89065   -0.29866   -0.29066    9
   27      0.105D-08      0.186D-09      -267.37582675    561.756808   -0.89065   -0.29866   -0.29066    9
   28      0.826D-09      0.941D-10      -267.37582675    561.756808   -0.89065   -0.29866   -0.29066    9
   29      0.411D-09      0.518D-10      -267.37582675    561.756808   -0.89065   -0.29866   -0.29066    9
   30      0.193D-09      0.256D-10      -267.37582675    561.756808   -0.89065   -0.29866   -0.29066    9
   31      0.761D-10      0.131D-10      -267.37582675    561.756808   -0.89065   -0.29866   -0.29066    9
   32      0.534D-10      0.126D-10      -267.37582675    561.756808   -0.89065   -0.29866   -0.29066    0

 Final alpha occupancy:  21
 Final beta  occupancy:  20

 !RHF STATE 1.1 Energy               -267.375826753311
 Nuclear energy                       186.61232806
 One-electron energy                 -734.86655893
 Two-electron energy                  280.87840412
 Virial quotient                       -1.00118024
 !RHF STATE 1.1 Dipole moment          -0.89065303    -0.29866281    -0.29065514
 Dipole moment /Debye                  -2.26366594    -0.75907542    -0.73872330

 Orbital energies:

         1.1          2.1          3.1          4.1          5.1          6.1          7.1          8.1          9.1         10.1
    -20.648580   -20.640453   -11.297270   -11.229323   -11.225494    -1.523672    -1.170602    -1.034406    -0.952600    -0.818966

        11.1         12.1         13.1         14.1         15.1         16.1         17.1         18.1         19.1         20.1
     -0.695423    -0.667300    -0.652554    -0.595231    -0.563630    -0.558197    -0.545061    -0.499088    -0.490335    -0.465269

        21.1         22.1         23.1
     -0.562839     0.137693     0.174718


 **********************************************************************************************************************************
 DATASETS  * FILE   NREC   LENGTH (MB)   RECORD NAMES
              1      18        5.04       500      610      700      900      950      970     1000      129      960     1100   
                                          VAR    BASINP    GEOM    SYMINP    ZMAT    AOBASIS   BASIS     P2S    ABASIS      S 
                                         1400     1410     1200     1210     1080     1600     1650     1700   
                                           T        V       H0       H01     AOSYM     SMH    MOLCAS    OPER   

              2       3        2.21       700     1000     2100   
                                         GEOM     BASIS     RHF  

 PROGRAMS   *        TOTAL       RHF       INT
 CPU TIMES  *        88.02     59.94     28.04
 REAL TIME  *       105.55 SEC
 DISK USED  *         9.19 GB      
 SF USED    *         0.25 MB      
 GA USED    *         0.01 MB       (max)       0.00 MB       (current)
 **********************************************************************************************************************************


1PROGRAM * CCSD (Unrestricted open-shell coupled cluster)     Authors: C. Hampel, H.-J. Werner, 1991, M. Deegan, P.J. Knowles, 1992


 Convergence thresholds:  THRVAR = 1.00D-08  THRDEN = 1.00D-10

 CCSD(T)     terms to be evaluated (factor= 1.000)


 Number of core orbitals:           5 (   5 )
 Number of closed-shell orbitals:  15 (  15 )
 Number of active  orbitals:        1 (   1 )
 Number of external orbitals:     227 ( 227 )

 Memory could be reduced to 332.02 Mwords without degradation in triples

 Number of N-1 electron functions:              31
 Number of N-2 electron functions:             465
 Number of singly external CSFs:              7068
 Number of doubly external CSFs:          18353430
 Total number of CSFs:                    18360498

 Molecular orbitals read from record     2100.2  Type=RHF/CANONICAL (state 1.1)

 Integral transformation finished. Total CPU:  27.78 sec, npass=  1  Memory used: 145.25 MW

 Starting RMP2 calculation

 ITER.      SQ.NORM     CORR.ENERGY   TOTAL ENERGY   ENERGY CHANGE        DEN1      VAR(S)    VAR(P)  DIIS     TIME
   1      1.26542901    -0.96764713  -268.34347389    -0.96764713    -0.00323764  0.26D-04  0.11D-02  1  1    31.78
   2      1.26821529    -0.97113807  -268.34696482    -0.00349093    -0.00000666  0.10D-05  0.23D-05  2  2    34.91
   3      1.26829519    -0.97119096  -268.34701771    -0.00005289    -0.00000008  0.53D-07  0.11D-07  3  3    38.60
   4      1.26829689    -0.97119077  -268.34701752     0.00000019    -0.00000000  0.16D-08  0.12D-09  4  4    42.76
   5      1.26829715    -0.97119085  -268.34701760    -0.00000009    -0.00000000  0.19D-10  0.45D-11  5  5    47.20
   6      1.26829720    -0.97119088  -268.34701764    -0.00000003    -0.00000000  0.50D-13  0.56D-13  6  6    51.79
   7      1.26829720    -0.97119088  -268.34701764     0.00000000    -0.00000000  0.15D-14  0.85D-15  6  1    56.50
   8      1.26829720    -0.97119088  -268.34701764     0.00000000    -0.00000000  0.16D-16  0.79D-17  6  2    61.18
   9      1.26829720    -0.97119088  -268.34701764    -0.00000000    -0.00000000  0.31D-18  0.10D-18  6  3    65.97

 Norm of t1 vector:      0.04588700      S-energy:    -0.00446731      T1 diagnostic:  0.00074360
 Norm of t2 vector:      0.51593758      P-energy:    -0.96672357
                                         Alpha-Beta:  -0.73712612
                                         Alpha-Alpha: -0.11899141
                                         Beta-Beta:   -0.11060604

 Spin contamination <S**2-Sz**2-Sz>     0.00145292
  Reference energy                   -267.375826753313
  RHF-RMP2 correlation energy          -0.971190883459
 !RHF-RMP2 energy                    -268.347017636772

 Starting UCCSD calculation

 ITER.      SQ.NORM     CORR.ENERGY   TOTAL ENERGY   ENERGY CHANGE        DEN1      VAR(S)    VAR(P)  DIIS     TIME
   1      1.27989832    -0.97929943  -268.35512619    -0.97929943    -0.02933503  0.65D-02  0.54D-02  1  1   181.46
   2      1.30630682    -1.00592941  -268.38175617    -0.02662998    -0.00363377  0.62D-03  0.97D-03  2  2   278.80
   3      1.32294574    -1.01275296  -268.38857971    -0.00682355    -0.00091089  0.75D-03  0.76D-04  3  3   360.83
   4      1.33416826    -1.01541047  -268.39123723    -0.00265751    -0.00038438  0.31D-03  0.33D-04  4  4   442.74
   5      1.34920025    -1.01740347  -268.39323022    -0.00199300    -0.00011766  0.10D-03  0.90D-05  5  5   525.00
   6      1.36069798    -1.01842414  -268.39425089    -0.00102066    -0.00001806  0.92D-05  0.32D-05  6  6   607.60
   7      1.36437463    -1.01866399  -268.39449074    -0.00023985    -0.00000315  0.16D-05  0.61D-06  6  1   690.18
   8      1.36497615    -1.01870596  -268.39453272    -0.00004198    -0.00000067  0.26D-06  0.15D-06  6  2   772.62
   9      1.36529504    -1.01872433  -268.39455108    -0.00001836    -0.00000015  0.66D-07  0.32D-07  6  4   855.88
  10      1.36528139    -1.01872306  -268.39454981     0.00000127    -0.00000002  0.11D-07  0.43D-08  6  3   938.40
  11      1.36534349    -1.01872812  -268.39455488    -0.00000507    -0.00000000  0.26D-08  0.94D-09  6  5  1021.00
  12      1.36533607    -1.01872565  -268.39455240     0.00000248    -0.00000000  0.12D-08  0.22D-09  6  6  1103.29
  13      1.36533171    -1.01872449  -268.39455124     0.00000116    -0.00000000  0.79D-09  0.62D-10  6  1  1186.36
  14      1.36531870    -1.01872297  -268.39454972     0.00000152    -0.00000000  0.55D-09  0.28D-10  6  2  1268.91
  15      1.36531220    -1.01872219  -268.39454894     0.00000078    -0.00000000  0.45D-09  0.22D-10  6  3  1351.30
  16      1.36530889    -1.01872201  -268.39454877     0.00000017    -0.00000000  0.32D-09  0.18D-10  6  4  1433.77
  17      1.36530861    -1.01872206  -268.39454881    -0.00000004    -0.00000000  0.14D-09  0.17D-10  6  5  1517.16
  18      1.36531211    -1.01872228  -268.39454904    -0.00000023    -0.00000000  0.29D-10  0.63D-11  6  6  1599.84
  19      1.36531552    -1.01872263  -268.39454938    -0.00000034    -0.00000000  0.25D-11  0.18D-11  6  2  1682.19
  20      1.36531497    -1.01872249  -268.39454925     0.00000013    -0.00000000  0.57D-12  0.17D-12  6  1  1764.75
  21      1.36531526    -1.01872254  -268.39454929    -0.00000004    -0.00000000  0.19D-12  0.58D-13  6  4  1847.21
  22      1.36531522    -1.01872253  -268.39454928     0.00000001    -0.00000000  0.56D-13  0.13D-13  6  3  1929.57
  23      1.36531524    -1.01872254  -268.39454929    -0.00000001    -0.00000000  0.16D-13  0.53D-14  6  6  2011.63
  24      1.36531524    -1.01872254  -268.39454929     0.00000000    -0.00000000  0.38D-14  0.93D-15  6  5  2094.76
  25      1.36531525    -1.01872253  -268.39454929     0.00000000    -0.00000000  0.84D-15  0.27D-15  6  1  2177.13
  26      1.36531526    -1.01872254  -268.39454929    -0.00000000    -0.00000000  0.14D-15  0.51D-16  6  2  2273.17
  27      1.36531526    -1.01872254  -268.39454929    -0.00000000    -0.00000000  0.43D-16  0.15D-16  6  3  2389.94
  28      1.36531526    -1.01872254  -268.39454929    -0.00000000    -0.00000000  0.96D-17  0.45D-17  6  5  2494.14
  29      1.36531527    -1.01872254  -268.39454929    -0.00000000    -0.00000000  0.16D-17  0.38D-18  6  4  2576.54
  30      1.36531526    -1.01872254  -268.39454929     0.00000000    -0.00000000  0.60D-18  0.15D-18  6  6  2658.90

 Norm of t1 vector:      0.23096546      S-energy:    -0.00501384      T1 diagnostic:  0.02845965
                                                                       D1 diagnostic:  0.14583529
 Norm of t2 vector:      0.55854295      P-energy:    -1.01370870
                                         Alpha-Beta:  -0.80142262
                                         Alpha-Alpha: -0.10868023
                                         Beta-Beta:   -0.10360585

 Singles amplitudes (print threshold =  0.500E-01):

         I         SYM. A    A   T(IA) [Beta-Beta]

         8         1         1     -0.09562949
         9         1         1      0.10039745
        11         1         1     -0.05029630
        12         1         1     -0.07543358
        14         1         1     -0.11128953

 Spin contamination <S**2-Sz**2-Sz>     0.00175743

 Memory could be reduced to 360.52 Mwords without degradation in triples
 

 RESULTS
 =======

  Reference energy                   -267.375826753313
  UCCSD singles energy                 -0.005013835627
  UCCSD pair energy                    -1.013708700303
  UCCSD correlation energy             -1.018722535930
  Triples (T) contribution             -0.040846753470
  Total correlation energy             -1.059569289400
 
  RHF-UCCSD energy                   -268.394549289243
  RHF-UCCSD[T] energy                -268.438713026702
  RHF-UCCSD-T energy                 -268.434897519775
 !RHF-UCCSD(T) energy                -268.435396042713

 Program statistics:

 Available memory in ccsd:               999997692
 Min. memory needed in ccsd:              51505734
 Max. memory used in ccsd:                74803578
 Max. memory used in cckext:              59475747 (30 integral passes)
 Max. memory used in cckint:             145249478 ( 1 integral passes)



 **********************************************************************************************************************************
 DATASETS  * FILE   NREC   LENGTH (MB)   RECORD NAMES
              1      18        5.04       500      610      700      900      950      970     1000      129      960     1100   
                                          VAR    BASINP    GEOM    SYMINP    ZMAT    AOBASIS   BASIS     P2S    ABASIS      S 
                                         1400     1410     1200     1210     1080     1600     1650     1700   
                                           T        V       H0       H01     AOSYM     SMH    MOLCAS    OPER   

              2       3        2.21       700     1000     2100   
                                         GEOM     BASIS     RHF  

 PROGRAMS   *        TOTAL  UCCSD(T)       RHF       INT
 CPU TIMES  *      4340.71   4252.69     59.94     28.04
 REAL TIME  *      4465.38 SEC
 DISK USED  *        16.16 GB      
 SF USED    *         6.57 GB      
 GA USED    *         0.01 MB       (max)       0.00 MB       (current)
 **********************************************************************************************************************************

        UCCSD(T)        RHF-SCF 
   -268.43539604   -267.37582675
 **********************************************************************************************************************************
 Variable memory released
