
 Primary working directories    : /tmp/601556.12.gen4.q
 Secondary working directories  : /tmp/601556.12.gen4.q
 Wavefunction directory         : /home/vulcan/mel64643/wfu/
 Main file repository           : /tmp/601556.12.gen4.q/

 ARCHNAME  : Linux/x86_64
 FC        : /opt/intel/compilers_and_libraries_2016.1.150/linux/bin/intel64/ifort
 FCVERSION : 16.0.1
 BLASLIB   : -mkl
 id        : ccgc

 Nodes     nprocs
 n031         1
 ga_uses_ma=false, calling ma_init with nominal heap.
 GA-space will be limited to   8.0 MW (determined by -G option)

 Using customized tuning parameters: mindgm=10; mindgv=16; mindgc=4; mindgr=1; noblas=0; mincuda=1000; minvec=7
 default implementation of scratch files=df  

 ***,Optimization of min3
 memory,1000,m
 gthresh,energy=1.0d-12,orbital=1.0d-10,oneint=1.0d-16,twoint=1.0d-16,optgrad=1.0d-6,compress=1.0d-13
 geomtyp=xyz
 
  bohr
  geometry = {
  6
  arbitrary comment
  C   -1.3729906126   -0.0244768560    0.0000038799
  O    1.3075253423    0.1204216091    0.0000011727
  H   -2.0797723690    1.9080502288   -0.0000826103
  H   -2.1104784595   -0.9780726512    1.6813181761
  H   -2.1104816575   -0.9782006191   -1.6812506207
  H    1.9424735963   -1.5778538317    0.0000015923
 }
 
 basis=cc-pvtz
 {rhf;maxit,200}
 {ccsd(t);maxit,200}

 Variables initialized (661), CPU time= 0.00 sec
 Commands  initialized (458), CPU time= 0.00 sec, 486 directives.
 Default parameters read. Elapsed time= 0.06 sec

 Checking input...
 Passed
1


                                         ***  PROGRAM SYSTEM MOLPRO  ***
                         Copyright, University College Cardiff Consultants Limited, 2008

                                    Version 2010.1 linked May 16 2016 07:17:05


 **********************************************************************************************************************************
 LABEL *   Optimization of min3                                                          
 Linux-4.4.3/n031(x86_64) 64 bit mpp version                                             DATE: 06-Nov-21          TIME: 15:41:16  
 **********************************************************************************************************************************

 SHA1:             9e8077add272b0f3cad6f7df79ec5211205f459d
 **********************************************************************************************************************************

 THRESHOLDS:

 ZERO    =  1.00D-12  ONEINT  =  1.00D-16  TWOINT  =  1.00D-16  PREFAC  =  1.00D-14  LOCALI  =  1.00D-09  EORDER  =  1.00D-04
 ENERGY  =  1.00D-12  ETEST   =  0.00D+00  EDENS   =  0.00D+00  THRDEDEF=  1.00D-06  GRADIENT=  1.00D-02  STEP    =  1.00D-03
 ORBITAL =  1.00D-10  CIVEC   =  1.00D-05  COEFF   =  1.00D-04  PRINTCI =  5.00D-02  PUNCHCI =  9.90D+01  OPTGRAD =  1.00D-06
 OPTENERG=  1.00D-06  OPTSTEP =  3.00D-04  THRGRAD =  1.00D-10  COMPRESS=  1.00D-13  VARMIN  =  1.00D-07  VARMAX  =  1.00D-03
 THRDOUB =  0.00D+00  THRDIV  =  1.00D-05  THRRED  =  1.00D-07  THRPSP  =  1.00D+00  THRDC   =  1.00D-10  THRCS   =  1.00D-10
 THRNRM  =  1.00D-08  THREQ   =  0.00D+00  THRDE   =  1.00D+00  THRREF  =  1.00D-05  SPARFAC =  1.00D+00  THRDLP  =  1.00D-07
 THRDIA  =  1.00D-10  THRDLS  =  1.00D-07  THRGPS  =  0.00D+00  THRKEX  =  0.00D+00  THRDIS  =  2.00D-01  THRVAR  =  1.00D-10
 THRLOC  =  1.00D-06  THRGAP  =  1.00D-06  THRLOCT = -1.00D+00  THRGAPT = -1.00D+00  THRORB  =  1.00D-06  THRMLTP =  0.00D+00
 THRCPQCI=  1.00D-10  KEXTA   =  0.00D+00  THRCOARS=  0.00D+00  SYMTOL  =  1.00D-06  GRADTOL =  1.00D-06  THROVL  =  1.00D-08
 THRORTH =  1.00D-08  GRID    =  1.00D-06  GRIDMAX =  1.00D-03  DTMAX   =  0.00D+00

 SETTING GEOMTYP        =    XYZ
 ZUNIT=BOHR
 

 Variable memory set to 1000000000 words,  buffer space   230000 words

 SETTING BASIS          =    CC-PVTZ


 Recomputing integrals since basis changed


 Using spherical harmonics

 Library entry C      S cc-pVTZ              selected for orbital group  1
 Library entry C      P cc-pVTZ              selected for orbital group  1
 Library entry C      D cc-pVTZ              selected for orbital group  1
 Library entry C      F cc-pVTZ              selected for orbital group  1
 Library entry O      S cc-pVTZ              selected for orbital group  2
 Library entry O      P cc-pVTZ              selected for orbital group  2
 Library entry O      D cc-pVTZ              selected for orbital group  2
 Library entry O      F cc-pVTZ              selected for orbital group  2
 Library entry H      S cc-pVTZ              selected for orbital group  3
 Library entry H      P cc-pVTZ              selected for orbital group  3
 Library entry H      D cc-pVTZ              selected for orbital group  3

1PROGRAM * SEWARD (Integral evaluation for generally contracted gaussian basis sets)     Author: Roland Lindh, 1990

 Geometry written to block  1 of record 700


 Point group  C1  



 ATOMIC COORDINATES

 NR  ATOM    CHARGE       X              Y              Z

   1  C       6.00   -1.372990613   -0.024476856    0.000003880
   2  O       8.00    1.307525342    0.120421609    0.000001173
   3  H       1.00   -2.079772369    1.908050229   -0.000082610
   4  H       1.00   -2.110478459   -0.978072651    1.681318176
   5  H       1.00   -2.110481657   -0.978200619   -1.681250621
   6  H       1.00    1.942473596   -1.577853832    0.000001592

 Bond lengths in Bohr (Angstrom)

 1-2  2.684429427  1-3  2.057717520  1-4  2.068828419  1-5  2.068839954  2-6  1.813090940
     ( 1.420538872)     ( 1.088897214)     ( 1.094776849)     ( 1.094782952)     ( 0.959446403)

 Bond angles

  1-2-6  107.40549715   2-1-3  106.99476649   2-1-4  112.38555583   2-1-5  112.38562523

  3-1-4  108.08842583   3-1-5  108.08767320   4-1-5  108.71571577

 NUCLEAR CHARGE:                   18
 NUMBER OF PRIMITIVE AOS:         162
 NUMBER OF SYMMETRY AOS:          148
 NUMBER OF CONTRACTIONS:          116   ( 116A   )
 NUMBER OF CORE ORBITALS:           2   (   2A   )
 NUMBER OF VALENCE ORBITALS:       12   (  12A   )


 NUCLEAR REPULSION ENERGY   40.30852041


 Eigenvalues of metric

         1 0.133E-02 0.180E-02 0.191E-02 0.235E-02 0.330E-02 0.460E-02 0.737E-02 0.100E-01


 Contracted 2-electron integrals neglected if value below      1.0D-16
 AO integral compression algorithm  1   Integral accuracy      1.0D-16

     196.346 MB (compressed) written to integral file ( 92.3%)

     Node minimum: 196.346 MB, node maximum: 196.346 MB


 NUMBER OF SORTED TWO-ELECTRON INTEGRALS:   23028291.     BUFFER LENGTH:  32768
 NUMBER OF SEGMENTS:   2  SEGMENT LENGTH:   15997996      RECORD LENGTH: 524288

 Memory used in sort:      16.56 MW

 SORT1 READ    26631627. AND WROTE    22813254. INTEGRALS IN     67 RECORDS. CPU TIME:     0.26 SEC, REAL TIME:     0.41 SEC
 SORT2 READ    22813254. AND WROTE    23028291. INTEGRALS IN    749 RECORDS. CPU TIME:     0.25 SEC, REAL TIME:     0.34 SEC

 FILE SIZES:   FILE 1:   176.0 MBYTE,  FILE 4:   281.1 MBYTE,   TOTAL:    457.0 MBYTE

 OPERATOR DM      FOR CENTER  0  COORDINATES:    0.000000    0.000000    0.000000


 **********************************************************************************************************************************
 DATASETS  * FILE   NREC   LENGTH (MB)   RECORD NAMES
              1      19      176.16       500      610      700      900      950      970     1000      129      960     1100   
                                          VAR    BASINP    GEOM    SYMINP    ZMAT    AOBASIS   BASIS     P2S    ABASIS      S 
                                         1400     1410     1200     1210     1080     1600     1650     1300     1700   
                                           T        V       H0       H01     AOSYM     SMH    MOLCAS    ERIS     OPER   

 PROGRAMS   *        TOTAL       INT
 CPU TIMES  *         1.79      1.72
 REAL TIME  *         2.30 SEC
 DISK USED  *       654.04 MB      
 GA USED    *         0.00 MB       (max)       0.00 MB       (current)
 **********************************************************************************************************************************

1PROGRAM * RHF-SCF (CLOSED SHELL)       Authors: W. Meyer, H.-J. Werner


 NUMBER OF ELECTRONS:       9+    9-    SPACE SYMMETRY=1    SPIN SYMMETRY: Singlet 
 CONVERGENCE THRESHOLDS:    1.00E-10 (Density)    1.00E-13 (Energy)
 MAX. NUMBER OF ITERATIONS:      200
 INTERPOLATION TYPE:            DIIS
 INTERPOLATION STEPS:              2 (START)      1 (STEP)
 LEVEL SHIFTS:                  0.00 (CLOSED)  0.00 (OPEN) 



 Orbital guess generated from atomic densities. Full valence occupancy:   14

 Molecular orbital dump at record        2100.2

 ITERATION    DDIFF          GRAD             ENERGY        2-EL.EN.            DIPOLE MOMENTS         DIIS
    1      0.000D+00      0.000D+00      -115.05319956    164.435356   -0.48569   -0.90474   -0.00000    0
    2      0.000D+00      0.474D-02      -115.08150052    161.988715   -0.29787   -0.50142   -0.00000    1
    3      0.784D-02      0.254D-02      -115.08856819    163.157797   -0.38946   -0.59912   -0.00000    2
    4      0.257D-02      0.497D-03      -115.08907513    163.002214   -0.38251   -0.59313    0.00000    3
    5      0.686D-03      0.981D-04      -115.08910606    163.009324   -0.38611   -0.58841    0.00000    4
    6      0.186D-03      0.186D-04      -115.08910742    163.007907   -0.38651   -0.58840    0.00000    5
    7      0.479D-04      0.393D-05      -115.08910747    163.006994   -0.38670   -0.58819    0.00000    6
    8      0.909D-05      0.119D-05      -115.08910748    163.007457   -0.38672   -0.58817    0.00000    7
    9      0.233D-05      0.322D-06      -115.08910748    163.007352   -0.38673   -0.58816    0.00000    6
   10      0.767D-06      0.596D-07      -115.08910748    163.007363   -0.38674   -0.58816    0.00000    6
   11      0.158D-06      0.150D-07      -115.08910748    163.007367   -0.38674   -0.58816    0.00000    6
   12      0.298D-07      0.631D-08      -115.08910748    163.007365   -0.38674   -0.58816    0.00000    7
   13      0.111D-07      0.171D-08      -115.08910748    163.007365   -0.38674   -0.58816    0.00000    7
   14      0.345D-08      0.352D-09      -115.08910748    163.007365   -0.38674   -0.58816    0.00000    7
   15      0.847D-09      0.902D-10      -115.08910748    163.007365   -0.38674   -0.58816    0.00000    7
   16      0.183D-09      0.224D-10      -115.08910748    163.007365   -0.38674   -0.58816    0.00000    7
   17      0.514D-10      0.730D-11      -115.08910748    163.007365   -0.38674   -0.58816    0.00000    7
   18      0.145D-10      0.157D-11      -115.08910748    163.007365   -0.38674   -0.58816    0.00000    7
   19      0.304D-11      0.496D-12      -115.08910748    163.007365   -0.38674   -0.58816    0.00000    7
   20      0.119D-11      0.121D-12      -115.08910748    163.007365   -0.38674   -0.58816    0.00000    7
   21      0.283D-12      0.651D-13      -115.08910748    163.007365   -0.38674   -0.58816    0.00000    0

 Final occupancy:   9

 !RHF STATE 1.1 Energy               -115.089107478785
 Nuclear energy                        40.30852041
 One-electron energy                 -236.90131042
 Two-electron energy                   81.50368254
 Virial quotient                       -1.00129071
 !RHF STATE 1.1 Dipole moment          -0.38673722    -0.58815607     0.00000031
 Dipole moment /Debye                  -0.98292357    -1.49484571     0.00000079

 Orbital energies:

         1.1          2.1          3.1          4.1          5.1          6.1          7.1          8.1          9.1         10.1
    -20.552802   -11.269747    -1.354282    -0.923149    -0.687975    -0.617588    -0.590264    -0.501964    -0.449201     0.138416

        11.1
      0.178497


 **********************************************************************************************************************************
 DATASETS  * FILE   NREC   LENGTH (MB)   RECORD NAMES
              1      19      176.16       500      610      700      900      950      970     1000      129      960     1100   
                                          VAR    BASINP    GEOM    SYMINP    ZMAT    AOBASIS   BASIS     P2S    ABASIS      S 
                                         1400     1410     1200     1210     1080     1600     1650     1300     1700   
                                           T        V       H0       H01     AOSYM     SMH    MOLCAS    ERIS     OPER   

              2       3        0.63       700     1000     2100   
                                         GEOM     BASIS     RHF  

 PROGRAMS   *        TOTAL       RHF       INT
 CPU TIMES  *         5.48      3.69      1.72
 REAL TIME  *         6.48 SEC
 DISK USED  *       654.04 MB      
 GA USED    *         0.00 MB       (max)       0.00 MB       (current)
 **********************************************************************************************************************************


1PROGRAM * CCSD (Closed-shell coupled cluster)     Authors: C. Hampel, H.-J. Werner, 1991, M. Deegan, P.J. Knowles, 1992


 Convergence thresholds:  THRVAR = 1.00D-08  THRDEN = 1.00D-12

 CCSD(T)     terms to be evaluated (factor= 1.000)


 Number of core orbitals:           2 (   2 )
 Number of closed-shell orbitals:   7 (   7 )
 Number of external orbitals:     107 ( 107 )

 Molecular orbitals read from record     2100.2  Type=RHF/CANONICAL (state 1.1)

 Number of N-1 electron functions:               7
 Number of N-2 electron functions:              28
 Number of singly external CSFs:               749
 Number of doubly external CSFs:            280875
 Total number of CSFs:                      281625

 Length of J-op  integral file:               0.00 MB
 Length of K-op  integral file:               0.96 MB
 Length of 3-ext integral record:             0.00 MB

 Memory could be reduced to 12.77 Mwords without degradation in triples

 Integral transformation finished. Total CPU:   0.72 sec, npass=  1  Memory used:   7.23 MW

 Reference energy:                   -115.08910748

 MP2 singlet pair energy:              -0.28102857
 MP2 triplet pair energy:              -0.14731150
 MP2 correlation energy:               -0.42834007
 MP2 total energy:                   -115.51744755

 SCS-MP2 correlation energy:           -0.42889477   (PS=  1.200000  PT=  0.333333)
 SCS-MP2 total energy:               -115.51800225

 ITER.      SQ.NORM     CORR.ENERGY   TOTAL ENERGY   ENERGY CHANGE        DEN1      VAR(S)    VAR(P)  DIIS     TIME
   1      1.11803427    -0.44562430  -115.53473177    -0.01728423    -0.00693483  0.12D-02  0.18D-02  1  1     1.58
   2      1.12591504    -0.44680929  -115.53591677    -0.00118499    -0.00944814  0.16D-04  0.22D-03  2  2     2.50
   3      1.12850624    -0.44688586  -115.53599334    -0.00007657    -0.00178335  0.75D-05  0.10D-04  3  3     3.40
   4      1.12914621    -0.44688727  -115.53599475    -0.00000141    -0.00033287  0.35D-06  0.84D-06  4  4     4.31
   5      1.12925165    -0.44688910  -115.53599658    -0.00000183    -0.00003994  0.11D-06  0.65D-07  5  5     5.22
   6      1.12927661    -0.44688694  -115.53599442     0.00000216    -0.00000746  0.18D-07  0.50D-08  6  6     6.14
   7      1.12928019    -0.44688685  -115.53599433     0.00000009    -0.00000027  0.26D-08  0.89D-09  6  2     7.05
   8      1.12928153    -0.44688680  -115.53599428     0.00000005     0.00000002  0.42D-09  0.11D-09  6  1     7.97
   9      1.12928226    -0.44688674  -115.53599422     0.00000005    -0.00000003  0.28D-10  0.17D-10  6  3     8.88
  10      1.12928234    -0.44688676  -115.53599424    -0.00000002     0.00000007  0.25D-11  0.19D-11  6  4     9.77
  11      1.12928220    -0.44688677  -115.53599425    -0.00000001     0.00000011  0.23D-12  0.12D-12  6  6    10.67
  12      1.12928219    -0.44688677  -115.53599425    -0.00000000     0.00000001  0.26D-13  0.11D-13  6  5    11.59
  13      1.12928218    -0.44688677  -115.53599425    -0.00000000    -0.00000000  0.56D-14  0.17D-14  6  2    12.49
  14      1.12928219    -0.44688677  -115.53599425     0.00000000    -0.00000000  0.43D-15  0.14D-15  6  1    13.40
  15      1.12928219    -0.44688677  -115.53599425    -0.00000000    -0.00000000  0.62D-16  0.28D-16  6  3    14.31
  16      1.12928219    -0.44688677  -115.53599425     0.00000000     0.00000000  0.18D-16  0.33D-17  6  4    15.22
  17      1.12928219    -0.44688677  -115.53599425    -0.00000000     0.00000000  0.12D-17  0.72D-18  6  5    16.14
  18      1.12928219    -0.44688677  -115.53599425    -0.00000000     0.00000000  0.92D-19  0.45D-19  6  6    17.05
  19      1.12928219    -0.44688677  -115.53599425     0.00000000    -0.00000000  0.19D-19  0.97D-20  6  2    17.96
  20      1.12928219    -0.44688677  -115.53599425     0.00000000    -0.00000000  0.13D-20  0.73D-21  6  1    18.87

 Norm of t1 vector:      0.04468692      S-energy:    -0.00000000      T1 diagnostic:  0.00844503
                                                                       D1 diagnostic:  0.01720114


 Total CPU time for triples:      9.28 sec


 RESULTS
 =======

  Reference energy                   -115.089107478785
  CCSD singlet pair energy             -0.313133798290
  CCSD triplet pair energy             -0.133752972140
  CCSD correlation energy              -0.446886770430

  Triples (T) contribution             -0.014790653588
  Total correlation energy             -0.461677424018

  CCSD total energy                  -115.535994249215
  CCSD[T] energy                     -115.551251061598
  CCSD-T energy                      -115.550519322331
 !CCSD(T) total energy               -115.550784902803

 Timing summary (sec):

 STEP                 CPU(USER)    SYS     CPU(TOT)    WALL
 Transformation          0.74      0.07      0.81      0.81
 CCSD iterations        18.13      0.78     18.91     18.96
 Triples                 9.28      0.14      9.42      9.42

 Program statistics:

 Available memory in ccsd:               999999704
 Min. memory needed in ccsd:                915605
 Max. memory used in ccsd:                 1141922
 Max. memory used in cckext:                874802 (20 integral passes)



 **********************************************************************************************************************************
 DATASETS  * FILE   NREC   LENGTH (MB)   RECORD NAMES
              1      20      215.56       500      610      700      900      950      970     1000      129      960     1100   
                                          VAR    BASINP    GEOM    SYMINP    ZMAT    AOBASIS   BASIS     P2S    ABASIS      S 
                                         1400     1410     1200     1210     1080     1600     1650     1300     1700     1380   
                                           T        V       H0       H01     AOSYM     SMH    MOLCAS    ERIS     OPER     JKOP   

              2       3        0.63       700     1000     2100   
                                         GEOM     BASIS     RHF  

 PROGRAMS   *        TOTAL   CCSD(T)       RHF       INT
 CPU TIMES  *        33.65     28.15      3.69      1.72
 REAL TIME  *        35.71 SEC
 DISK USED  *       654.04 MB      
 GA USED    *         0.00 MB       (max)       0.00 MB       (current)
 **********************************************************************************************************************************

        CCSD(T)         RHF-SCF 
   -115.55078490   -115.08910748
 **********************************************************************************************************************************
 Variable memory released
