
 Primary working directories    : /tmp/601555.71.gen4.q
 Secondary working directories  : /tmp/601555.71.gen4.q
 Wavefunction directory         : /home/vulcan/mel64643/wfu/
 Main file repository           : /tmp/601555.71.gen4.q/

 ARCHNAME  : Linux/x86_64
 FC        : /opt/intel/compilers_and_libraries_2016.1.150/linux/bin/intel64/ifort
 FCVERSION : 16.0.1
 BLASLIB   : -mkl
 id        : ccgc

 Nodes     nprocs
 n040         1
 ga_uses_ma=false, calling ma_init with nominal heap.
 GA-space will be limited to   8.0 MW (determined by -G option)

 Using customized tuning parameters: mindgm=10; mindgv=16; mindgc=4; mindgr=1; noblas=0; mincuda=1000; minvec=7
 default implementation of scratch files=df  

 ***,Optimization of min3
 memory,1000,m
 gthresh,energy=1.0d-12,orbital=1.0d-10,oneint=1.0d-16,twoint=1.0d-16,optgrad=1.0d-6,compress=1.0d-13
 geomtyp=xyz
 
  bohr
  geometry = {
  6
  arbitrary comment
  C   -1.3751160887   -0.0253441709   -0.0011323300
  O    1.3077444364    0.1160802249   -0.0042660777
  H   -2.0792191123    1.9099381309    0.0019438846
  H   -2.1092824568   -0.9790182475    1.6821442280
  H   -2.1080344034   -0.9780285784   -1.6819684833
  H    1.9401834649   -1.5737594791    0.0032703684
 }
 
 basis=cc-pvdz
 {rhf;maxit,200}
 {ccsd(t);maxit,200}

 Variables initialized (661), CPU time= 0.01 sec
 Commands  initialized (458), CPU time= 0.00 sec, 486 directives.
 Default parameters read. Elapsed time= 0.06 sec

 Checking input...
 Passed
1


                                         ***  PROGRAM SYSTEM MOLPRO  ***
                         Copyright, University College Cardiff Consultants Limited, 2008

                                    Version 2010.1 linked May 16 2016 07:17:05


 **********************************************************************************************************************************
 LABEL *   Optimization of min3                                                          
 Linux-4.4.3/n040(x86_64) 64 bit mpp version                                             DATE: 06-Nov-21          TIME: 15:39:31  
 **********************************************************************************************************************************

 SHA1:             9e8077add272b0f3cad6f7df79ec5211205f459d
 **********************************************************************************************************************************

 THRESHOLDS:

 ZERO    =  1.00D-12  ONEINT  =  1.00D-16  TWOINT  =  1.00D-16  PREFAC  =  1.00D-14  LOCALI  =  1.00D-09  EORDER  =  1.00D-04
 ENERGY  =  1.00D-12  ETEST   =  0.00D+00  EDENS   =  0.00D+00  THRDEDEF=  1.00D-06  GRADIENT=  1.00D-02  STEP    =  1.00D-03
 ORBITAL =  1.00D-10  CIVEC   =  1.00D-05  COEFF   =  1.00D-04  PRINTCI =  5.00D-02  PUNCHCI =  9.90D+01  OPTGRAD =  1.00D-06
 OPTENERG=  1.00D-06  OPTSTEP =  3.00D-04  THRGRAD =  1.00D-10  COMPRESS=  1.00D-13  VARMIN  =  1.00D-07  VARMAX  =  1.00D-03
 THRDOUB =  0.00D+00  THRDIV  =  1.00D-05  THRRED  =  1.00D-07  THRPSP  =  1.00D+00  THRDC   =  1.00D-10  THRCS   =  1.00D-10
 THRNRM  =  1.00D-08  THREQ   =  0.00D+00  THRDE   =  1.00D+00  THRREF  =  1.00D-05  SPARFAC =  1.00D+00  THRDLP  =  1.00D-07
 THRDIA  =  1.00D-10  THRDLS  =  1.00D-07  THRGPS  =  0.00D+00  THRKEX  =  0.00D+00  THRDIS  =  2.00D-01  THRVAR  =  1.00D-10
 THRLOC  =  1.00D-06  THRGAP  =  1.00D-06  THRLOCT = -1.00D+00  THRGAPT = -1.00D+00  THRORB  =  1.00D-06  THRMLTP =  0.00D+00
 THRCPQCI=  1.00D-10  KEXTA   =  0.00D+00  THRCOARS=  0.00D+00  SYMTOL  =  1.00D-06  GRADTOL =  1.00D-06  THROVL  =  1.00D-08
 THRORTH =  1.00D-08  GRID    =  1.00D-06  GRIDMAX =  1.00D-03  DTMAX   =  0.00D+00

 SETTING GEOMTYP        =    XYZ
 ZUNIT=BOHR
 

 Variable memory set to 1000000000 words,  buffer space   230000 words

 SETTING BASIS          =    CC-PVDZ


 Recomputing integrals since basis changed


 Using spherical harmonics

 Library entry C      S cc-pVDZ              selected for orbital group  1
 Library entry C      P cc-pVDZ              selected for orbital group  1
 Library entry C      D cc-pVDZ              selected for orbital group  1
 Library entry O      S cc-pVDZ              selected for orbital group  2
 Library entry O      P cc-pVDZ              selected for orbital group  2
 Library entry O      D cc-pVDZ              selected for orbital group  2
 Library entry H      S cc-pVDZ              selected for orbital group  3
 Library entry H      P cc-pVDZ              selected for orbital group  3

1PROGRAM * SEWARD (Integral evaluation for generally contracted gaussian basis sets)     Author: Roland Lindh, 1990

 Geometry written to block  1 of record 700


 Point group  C1  



 ATOMIC COORDINATES

 NR  ATOM    CHARGE       X              Y              Z

   1  C       6.00   -1.375116089   -0.025344171   -0.001132330
   2  O       8.00    1.307744436    0.116080225   -0.004266078
   3  H       1.00   -2.079219112    1.909938131    0.001943885
   4  H       1.00   -2.109282457   -0.979018247    1.682144228
   5  H       1.00   -2.108034403   -0.978028578   -1.681968483
   6  H       1.00    1.940183465   -1.573759479    0.003270368

 Bond lengths in Bohr (Angstrom)

 1-2  2.686587292  1-3  2.059390230  1-4  2.069278732  1-5  2.066394689  2-6  1.804326508
     ( 1.421680765)     ( 1.089782374)     ( 1.095015144)     ( 1.093488974)     ( 0.954808466)

 Bond angles

  1-2-6  107.50089205   2-1-3  106.97519836   2-1-4  112.30338491   2-1-5  112.17972734

  3-1-4  108.09418455   3-1-5  108.25228569   4-1-5  108.86635339

 NUCLEAR CHARGE:                   18
 NUMBER OF PRIMITIVE AOS:          82
 NUMBER OF SYMMETRY AOS:           80
 NUMBER OF CONTRACTIONS:           48   (  48A   )
 NUMBER OF CORE ORBITALS:           2   (   2A   )
 NUMBER OF VALENCE ORBITALS:       12   (  12A   )


 NUCLEAR REPULSION ENERGY   40.31777715


 Eigenvalues of metric

         1 0.966E-02 0.176E-01 0.368E-01 0.374E-01 0.379E-01 0.473E-01 0.478E-01 0.516E-01


 Contracted 2-electron integrals neglected if value below      1.0D-16
 AO integral compression algorithm  1   Integral accuracy      1.0D-16

     6.816 MB (compressed) written to integral file (100.0%)

     Node minimum: 6.816 MB, node maximum: 6.816 MB


 NUMBER OF SORTED TWO-ELECTRON INTEGRALS:     692076.     BUFFER LENGTH:  32768
 NUMBER OF SEGMENTS:   1  SEGMENT LENGTH:     692076      RECORD LENGTH: 524288

 Memory used in sort:       1.25 MW

 SORT1 READ      832256. AND WROTE      682150. INTEGRALS IN      2 RECORDS. CPU TIME:     0.01 SEC, REAL TIME:     0.01 SEC
 SORT2 READ      682150. AND WROTE      692076. INTEGRALS IN     26 RECORDS. CPU TIME:     0.02 SEC, REAL TIME:     0.03 SEC

 FILE SIZES:   FILE 1:     8.4 MBYTE,  FILE 4:     8.4 MBYTE,   TOTAL:     16.8 MBYTE

 OPERATOR DM      FOR CENTER  0  COORDINATES:    0.000000    0.000000    0.000000


 **********************************************************************************************************************************
 DATASETS  * FILE   NREC   LENGTH (MB)   RECORD NAMES
              1      19        8.43       500      610      700      900      950      970     1000      129      960     1100   
                                          VAR    BASINP    GEOM    SYMINP    ZMAT    AOBASIS   BASIS     P2S    ABASIS      S 
                                         1400     1410     1200     1210     1080     1600     1650     1300     1700   
                                           T        V       H0       H01     AOSYM     SMH    MOLCAS    ERIS     OPER   

 PROGRAMS   *        TOTAL       INT
 CPU TIMES  *         0.34      0.28
 REAL TIME  *         0.52 SEC
 DISK USED  *        24.27 MB      
 GA USED    *         0.00 MB       (max)       0.00 MB       (current)
 **********************************************************************************************************************************

1PROGRAM * RHF-SCF (CLOSED SHELL)       Authors: W. Meyer, H.-J. Werner


 NUMBER OF ELECTRONS:       9+    9-    SPACE SYMMETRY=1    SPIN SYMMETRY: Singlet 
 CONVERGENCE THRESHOLDS:    1.00E-10 (Density)    1.00E-13 (Energy)
 MAX. NUMBER OF ITERATIONS:      200
 INTERPOLATION TYPE:            DIIS
 INTERPOLATION STEPS:              2 (START)      1 (STEP)
 LEVEL SHIFTS:                  0.00 (CLOSED)  0.00 (OPEN) 



 Orbital guess generated from atomic densities. Full valence occupancy:   14

 Molecular orbital dump at record        2100.2

 ITERATION    DDIFF          GRAD             ENERGY        2-EL.EN.            DIPOLE MOMENTS         DIIS
    1      0.000D+00      0.000D+00      -115.01441617    164.394804   -0.50043   -0.89376    0.00565    0
    2      0.000D+00      0.110D-01      -115.04271880    162.186531   -0.31939   -0.53393    0.00295    1
    3      0.205D-01      0.529D-02      -115.04872683    163.205913   -0.40297   -0.60827    0.00333    2
    4      0.638D-02      0.112D-02      -115.04918685    163.050924   -0.39246   -0.59765    0.00318    3
    5      0.204D-02      0.200D-03      -115.04920741    163.057225   -0.39512   -0.59348    0.00312    4
    6      0.430D-03      0.349D-04      -115.04920817    163.057361   -0.39537   -0.59331    0.00312    5
    7      0.918D-04      0.719D-05      -115.04920820    163.056188   -0.39549   -0.59315    0.00311    6
    8      0.146D-04      0.231D-05      -115.04920821    163.056559   -0.39552   -0.59312    0.00311    7
    9      0.491D-05      0.477D-06      -115.04920821    163.056519   -0.39553   -0.59312    0.00311    6
   10      0.137D-05      0.823D-07      -115.04920821    163.056517   -0.39553   -0.59312    0.00311    6
   11      0.224D-06      0.308D-07      -115.04920821    163.056523   -0.39553   -0.59312    0.00311    6
   12      0.556D-07      0.124D-07      -115.04920821    163.056521   -0.39553   -0.59312    0.00311    7
   13      0.228D-07      0.281D-08      -115.04920821    163.056521   -0.39553   -0.59312    0.00311    7
   14      0.695D-08      0.620D-09      -115.04920821    163.056521   -0.39553   -0.59312    0.00311    7
   15      0.160D-08      0.141D-09      -115.04920821    163.056521   -0.39553   -0.59312    0.00311    7
   16      0.312D-09      0.419D-10      -115.04920821    163.056521   -0.39553   -0.59312    0.00311    7
   17      0.813D-10      0.150D-10      -115.04920821    163.056521   -0.39553   -0.59312    0.00311    7
   18      0.384D-10      0.254D-11      -115.04920821    163.056521   -0.39553   -0.59312    0.00311    0

 Final occupancy:   9

 !RHF STATE 1.1 Energy               -115.049208206199
 Nuclear energy                        40.31777715
 One-electron energy                 -236.89524597
 Two-electron energy                   81.52826061
 Virial quotient                       -1.00086642
 !RHF STATE 1.1 Dipole moment          -0.39553095    -0.59312105     0.00311347
 Dipole moment /Debye                  -1.00527356    -1.50746459     0.00791313

 Orbital energies:

         1.1          2.1          3.1          4.1          5.1          6.1          7.1          8.1          9.1         10.1
    -20.549437   -11.274835    -1.350554    -0.921813    -0.683419    -0.613862    -0.584898    -0.497186    -0.443359     0.184900

        11.1
      0.224744


 **********************************************************************************************************************************
 DATASETS  * FILE   NREC   LENGTH (MB)   RECORD NAMES
              1      19        8.43       500      610      700      900      950      970     1000      129      960     1100   
                                          VAR    BASINP    GEOM    SYMINP    ZMAT    AOBASIS   BASIS     P2S    ABASIS      S 
                                         1400     1410     1200     1210     1080     1600     1650     1300     1700   
                                           T        V       H0       H01     AOSYM     SMH    MOLCAS    ERIS     OPER   

              2       3        0.39       700     1000     2100   
                                         GEOM     BASIS     RHF  

 PROGRAMS   *        TOTAL       RHF       INT
 CPU TIMES  *         0.44      0.10      0.28
 REAL TIME  *         0.65 SEC
 DISK USED  *        24.27 MB      
 GA USED    *         0.00 MB       (max)       0.00 MB       (current)
 **********************************************************************************************************************************


1PROGRAM * CCSD (Closed-shell coupled cluster)     Authors: C. Hampel, H.-J. Werner, 1991, M. Deegan, P.J. Knowles, 1992


 Convergence thresholds:  THRVAR = 1.00D-08  THRDEN = 1.00D-12

 CCSD(T)     terms to be evaluated (factor= 1.000)


 Number of core orbitals:           2 (   2 )
 Number of closed-shell orbitals:   7 (   7 )
 Number of external orbitals:      39 (  39 )

 Molecular orbitals read from record     2100.2  Type=RHF/CANONICAL (state 1.1)

 Number of N-1 electron functions:               7
 Number of N-2 electron functions:              28
 Number of singly external CSFs:               273
 Number of doubly external CSFs:             37401
 Total number of CSFs:                       37675

 Length of J-op  integral file:               0.00 MB
 Length of K-op  integral file:               0.19 MB
 Length of 3-ext integral record:             0.00 MB

 Memory could be reduced to 0.96 Mwords without degradation in triples

 Integral transformation finished. Total CPU:   0.02 sec, npass=  1  Memory used:   0.66 MW

 Reference energy:                   -115.04920821

 MP2 singlet pair energy:              -0.21852554
 MP2 triplet pair energy:              -0.11977414
 MP2 correlation energy:               -0.33829968
 MP2 total energy:                   -115.38750789

 SCS-MP2 correlation energy:           -0.33675678   (PS=  1.200000  PT=  0.333333)
 SCS-MP2 total energy:               -115.38596499

 ITER.      SQ.NORM     CORR.ENERGY   TOTAL ENERGY   ENERGY CHANGE        DEN1      VAR(S)    VAR(P)  DIIS     TIME
   1      1.10721641    -0.36111560  -115.41032381    -0.02281592    -0.01415196  0.91D-03  0.17D-02  1  1     0.07
   2      1.11572215    -0.36305568  -115.41226389    -0.00194008    -0.00923573  0.20D-04  0.16D-03  2  2     0.12
   3      1.11759348    -0.36318262  -115.41239083    -0.00012694    -0.00119845  0.94D-05  0.86D-05  3  3     0.17
   4      1.11810576    -0.36318115  -115.41238936     0.00000147    -0.00025379  0.33D-06  0.67D-06  4  4     0.22
   5      1.11820328    -0.36318154  -115.41238974    -0.00000039    -0.00003590  0.98D-07  0.49D-07  5  5     0.27
   6      1.11822213    -0.36318019  -115.41238840     0.00000134    -0.00000433  0.16D-07  0.41D-08  6  6     0.31
   7      1.11822680    -0.36317978  -115.41238798     0.00000042    -0.00000035  0.20D-08  0.71D-09  6  1     0.36
   8      1.11822804    -0.36317988  -115.41238809    -0.00000010     0.00000074  0.25D-09  0.71D-10  6  3     0.41
   9      1.11822910    -0.36317976  -115.41238796     0.00000012    -0.00000038  0.12D-10  0.10D-10  6  2     0.45
  10      1.11822902    -0.36317976  -115.41238796    -0.00000000     0.00000007  0.11D-11  0.86D-12  6  5     0.50
  11      1.11822905    -0.36317976  -115.41238796     0.00000000    -0.00000000  0.18D-12  0.49D-13  6  4     0.55
  12      1.11822904    -0.36317976  -115.41238796    -0.00000000     0.00000001  0.18D-13  0.98D-14  6  1     0.60
  13      1.11822904    -0.36317976  -115.41238796    -0.00000000    -0.00000000  0.23D-14  0.92D-15  6  6     0.65
  14      1.11822904    -0.36317976  -115.41238796     0.00000000    -0.00000000  0.22D-15  0.12D-15  6  3     0.71
  15      1.11822904    -0.36317976  -115.41238796    -0.00000000    -0.00000000  0.25D-16  0.16D-16  6  2     0.76
  16      1.11822904    -0.36317976  -115.41238796    -0.00000000    -0.00000000  0.56D-17  0.16D-17  6  5     0.80
  17      1.11822904    -0.36317976  -115.41238796    -0.00000000    -0.00000000  0.56D-18  0.25D-18  6  4     0.86
  18      1.11822904    -0.36317976  -115.41238796     0.00000000    -0.00000000  0.89D-19  0.43D-19  6  1     0.90
  19      1.11822904    -0.36317976  -115.41238796    -0.00000000    -0.00000000  0.11D-19  0.44D-20  6  6     0.95
  20      1.11822904    -0.36317976  -115.41238796     0.00000000     0.00000000  0.18D-20  0.62D-21  6  3     1.00

 Norm of t1 vector:      0.04156177      S-energy:    -0.00000000      T1 diagnostic:  0.00785444
                                                                       D1 diagnostic:  0.01751601


 Total CPU time for triples:      0.25 sec


 RESULTS
 =======

  Reference energy                   -115.049208206199
  CCSD singlet pair energy             -0.254451046861
  CCSD triplet pair energy             -0.108728711345
  CCSD correlation energy              -0.363179758206

  Triples (T) contribution             -0.007724977936
  Total correlation energy             -0.370904736141

  CCSD total energy                  -115.412387964405
  CCSD[T] energy                     -115.420402207323
  CCSD-T energy                      -115.419963282906
 !CCSD(T) total energy               -115.420112942340

 Timing summary (sec):

 STEP                 CPU(USER)    SYS     CPU(TOT)    WALL
 Transformation          0.03      0.01      0.04      0.03
 CCSD iterations         0.97      0.05      1.02      1.06
 Triples                 0.25      0.01      0.26      0.25

 Program statistics:

 Available memory in ccsd:               999999704
 Min. memory needed in ccsd:                136801
 Max. memory used in ccsd:                  163198
 Max. memory used in cckext:                182024 (20 integral passes)



 **********************************************************************************************************************************
 DATASETS  * FILE   NREC   LENGTH (MB)   RECORD NAMES
              1      20       10.96       500      610      700      900      950      970     1000      129      960     1100   
                                          VAR    BASINP    GEOM    SYMINP    ZMAT    AOBASIS   BASIS     P2S    ABASIS      S 
                                         1400     1410     1200     1210     1080     1600     1650     1300     1700     1380   
                                           T        V       H0       H01     AOSYM     SMH    MOLCAS    ERIS     OPER     JKOP   

              2       3        0.39       700     1000     2100   
                                         GEOM     BASIS     RHF  

 PROGRAMS   *        TOTAL   CCSD(T)       RHF       INT
 CPU TIMES  *         1.70      1.26      0.10      0.28
 REAL TIME  *         2.03 SEC
 DISK USED  *        25.69 MB      
 GA USED    *         0.00 MB       (max)       0.00 MB       (current)
 **********************************************************************************************************************************

        CCSD(T)         RHF-SCF 
   -115.42011294   -115.04920821
 **********************************************************************************************************************************
 Variable memory released
