
    -----------------------------------------------------------------------
          Psi4: An Open-Source Ab Initio Electronic Structure Package
                               Psi4 1.4a2.dev629 

                         Git: Rev {master} 2938fc2 dirty


    D. G. A. Smith, L. A. Burns, A. C. Simmonett, R. M. Parrish,
    M. C. Schieber, R. Galvelis, P. Kraus, H. Kruse, R. Di Remigio,
    A. Alenaizan, A. M. James, S. Lehtola, J. P. Misiewicz, M. Scheurer,
    R. A. Shaw, J. B. Schriber, Y. Xie, Z. L. Glick, D. A. Sirianni,
    J. S. O'Brien, J. M. Waldrop, A. Kumar, E. G. Hohenstein,
    B. P. Pritchard, B. R. Brooks, H. F. Schaefer III, A. Yu. Sokolov,
    K. Patkowski, A. E. DePrince III, U. Bozkaya, R. A. King,
    F. A. Evangelista, J. M. Turney, T. D. Crawford, C. D. Sherrill,
    J. Chem. Phys. 152(18) 184108 (2020). https://doi.org/10.1063/5.0006002

                            Additional Code Authors
    E. T. Seidl, C. L. Janssen, E. F. Valeev, M. L. Leininger,
    J. F. Gonthier, R. M. Richard, H. R. McAlexander, M. Saitow, X. Wang,
    P. Verma, and M. H. Lechner

             Previous Authors, Complete List of Code Contributors,
                       and Citations for Specific Modules
    https://github.com/psi4/psi4/blob/master/codemeta.json
    https://github.com/psi4/psi4/graphs/contributors
    http://psicode.org/psi4manual/master/introduction.html#citing-psifour

    -----------------------------------------------------------------------


    Psi4 started on: Wednesday, 21 September 2022 04:35PM

    Process ID: 88055
    Host:       n071
    PSIDATADIR: /opt/psi/4/master/share/psi4
    Memory:     500.0 MiB
    Threads:    1
    
  ==> Input File <==

--------------------------------------------------------------------------
# o-Benzyne preliminary computations

memory 14 gb

molecule {
  0 1
  units bohr
 C   -1.3743760239   -0.0252475625    0.0000003118
 O    1.3070529489    0.1173223138    0.0000003625
 H   -2.0758236662    1.9093048008   -0.0000800845
 H   -2.1089819415   -0.9796920227    1.6819623932
 H   -2.1089752743   -0.9798229656   -1.6818901501
 H    1.9373797970   -1.5719966838   -0.0000012427
}

set {
  basis cc-pvtz
  reference rhf
  e_convergence 10 
  d_convergence 10
  r_convergence 8
  maxiter 300
  freeze_core True
}

e, wfn = energy('ccsd(t)', return_wfn = True)
psi4.print_out('Giraffe The Energy is %.12f \n'%(e))
--------------------------------------------------------------------------

  Memory set to  13.039 GiB by Python driver.

Scratch directory: /tmp/

*** tstart() called on n071
*** at Wed Sep 21 16:35:10 2022

   => Loading Basis Set <=

    Name: CC-PVTZ
    Role: ORBITAL
    Keyword: BASIS
    atoms 1   entry C          line   186 file /opt/psi/4/master/share/psi4/basis/cc-pvtz.gbs 
    atoms 2   entry O          line   262 file /opt/psi/4/master/share/psi4/basis/cc-pvtz.gbs 
    atoms 3-6 entry H          line    23 file /opt/psi/4/master/share/psi4/basis/cc-pvtz.gbs 


         ---------------------------------------------------------
                                   SCF
               by Justin Turney, Rob Parrish, Andy Simmonett
                          and Daniel G. A. Smith
                              RHF Reference
                        1 Threads,  13351 MiB Core
         ---------------------------------------------------------

  ==> Geometry <==

    Molecular point group: c1
    Full point group: C1

    Geometry (in Bohr), charge = 0, multiplicity = 1:

       Center              X                  Y                   Z               Mass       
    ------------   -----------------  -----------------  -----------------  -----------------
         C           -1.375100367079    -0.023333160482     0.000000299792    12.000000000000
         O            1.306328605721     0.119236715818     0.000000350492    15.994914619570
         H           -2.076548009379     1.911219202818    -0.000080096508     1.007825032230
         H           -2.109706284679    -0.977777620682     1.681962381192     1.007825032230
         H           -2.109699617479    -0.977908563582    -1.681890162108     1.007825032230
         H            1.936655453821    -1.570082281782    -0.000001254708     1.007825032230

  Running in c1 symmetry.

  Rotational constants: A =      4.29107  B =      0.82709  C =      0.79830 [cm^-1]
  Rotational constants: A = 128643.08802  B =  24795.43865  C =  23932.31631 [MHz]
  Nuclear repulsion =   40.334058076069667

  Charge       = 0
  Multiplicity = 1
  Electrons    = 18
  Nalpha       = 9
  Nbeta        = 9

  ==> Algorithm <==

  SCF Algorithm Type is PK.
  DIIS enabled.
  MOM disabled.
  Fractional occupation disabled.
  Guess Type is SAD.
  Energy threshold   = 1.00e-10
  Density threshold  = 1.00e-10
  Integral threshold = 0.00e+00

  ==> Primary Basis <==

  Basis Set: CC-PVTZ
    Blend: CC-PVTZ
    Number of shells: 44
    Number of basis function: 116
    Number of Cartesian functions: 130
    Spherical Harmonics?: true
    Max angular momentum: 3

  ==> Integral Setup <==

  Using in-core PK algorithm.
   Calculation information:
      Number of atoms:                   6
      Number of AO shells:              44
      Number of primitives:             84
      Number of atomic orbitals:       130
      Number of basis functions:       116

      Integral cutoff                 1.00e-12
      Number of threads:                 1

  Performing in-core PK
  Using 46056582 doubles for integral storage.
  We computed 490491 shell quartets total.
  Whereas there are 490545 unique shell quartets.

  ==> DiskJK: Disk-Based J/K Matrices <==

    J tasked:                  Yes
    K tasked:                  Yes
    wK tasked:                  No
    Memory [MiB]:            10013
    Schwarz Cutoff:          1E-12

    OpenMP threads:              1

  Minimum eigenvalue in the overlap matrix is 1.8491731981E-03.
  Reciprocal condition number of the overlap matrix is 2.7950550648E-04.
    Using symmetric orthogonalization.

  ==> Pre-Iterations <==

  SCF Guess: Superposition of Atomic Densities via on-the-fly atomic UHF (no occupation information).

   -------------------------
    Irrep   Nso     Nmo    
   -------------------------
     A        116     116 
   -------------------------
    Total     116     116
   -------------------------

  ==> Iterations <==

                        Total Energy        Delta E     RMS |[F,P]|

   @RHF iter SAD:  -114.41766701056862   -1.14418e+02   0.00000e+00 
   @RHF iter   1:  -115.01483600968422   -5.97169e-01   3.41398e-03 DIIS
   @RHF iter   2:  -115.07160335273065   -5.67673e-02   1.95047e-03 DIIS
   @RHF iter   3:  -115.08834525811265   -1.67419e-02   3.00193e-04 DIIS
   @RHF iter   4:  -115.08922298376102   -8.77726e-04   8.71031e-05 DIIS
   @RHF iter   5:  -115.08929521115206   -7.22274e-05   2.12417e-05 DIIS
   @RHF iter   6:  -115.08929994688685   -4.73573e-06   4.64141e-06 DIIS
   @RHF iter   7:  -115.08930029722137   -3.50335e-07   1.06811e-06 DIIS
   @RHF iter   8:  -115.08930031746422   -2.02429e-08   2.21717e-07 DIIS
   @RHF iter   9:  -115.08930031833204   -8.67814e-10   4.11736e-08 DIIS
   @RHF iter  10:  -115.08930031836080   -2.87628e-11   1.04617e-08 DIIS
   @RHF iter  11:  -115.08930031836238   -1.57740e-12   2.15622e-09 DIIS
   @RHF iter  12:  -115.08930031836243   -5.68434e-14   3.89950e-10 DIIS
   @RHF iter  13:  -115.08930031836245   -1.42109e-14   7.18499e-11 DIIS
  Energy and wave function converged.


  ==> Post-Iterations <==

    Orbital Energies [Eh]
    ---------------------

    Doubly Occupied:                                                      

       1A    -20.552112     2A    -11.269836     3A     -1.355298  
       4A     -0.923594     5A     -0.688904     6A     -0.617750  
       7A     -0.590219     8A     -0.502418     9A     -0.449307  

    Virtual:                                                              

      10A      0.138600    11A      0.178961    12A      0.220139  
      13A      0.223678    14A      0.290589    15A      0.386709  
      16A      0.404419    17A      0.545541    18A      0.583796  
      19A      0.623014    20A      0.625022    21A      0.638307  
      22A      0.690144    23A      0.703356    24A      0.721097  
      25A      0.834006    26A      0.864507    27A      0.873112  
      28A      0.927374    29A      1.067770    30A      1.100628  
      31A      1.177549    32A      1.189330    33A      1.261721  
      34A      1.271242    35A      1.281952    36A      1.364883  
      37A      1.447285    38A      1.491808    39A      1.521758  
      40A      1.545059    41A      1.580497    42A      1.625432  
      43A      1.772755    44A      2.094013    45A      2.180114  
      46A      2.196810    47A      2.299821    48A      2.320892  
      49A      2.489819    50A      2.510947    51A      2.578467  
      52A      2.805403    53A      2.951219    54A      3.054873  
      55A      3.108425    56A      3.116874    57A      3.145258  
      58A      3.223164    59A      3.242327    60A      3.312630  
      61A      3.313777    62A      3.341756    63A      3.384513  
      64A      3.500493    65A      3.612563    66A      3.635439  
      67A      3.698577    68A      3.706799    69A      3.744587  
      70A      3.760775    71A      3.813443    72A      3.835844  
      73A      3.905914    74A      4.011785    75A      4.028157  
      76A      4.118393    77A      4.163063    78A      4.169759  
      79A      4.248469    80A      4.255859    81A      4.287858  
      82A      4.396811    83A      4.437844    84A      4.467656  
      85A      4.556765    86A      4.580453    87A      4.711039  
      88A      4.781710    89A      4.991359    90A      5.042351  
      91A      5.050383    92A      5.201606    93A      5.267338  
      94A      5.310002    95A      5.366019    96A      5.435395  
      97A      5.538605    98A      5.541948    99A      5.557640  
     100A      5.786403   101A      5.945723   102A      6.188132  
     103A      6.210651   104A      6.243660   105A      6.424723  
     106A      6.637691   107A      7.008052   108A      7.131488  
     109A      7.193661   110A      7.235004   111A      7.352199  
     112A      7.437100   113A      7.592910   114A      7.918005  
     115A     12.175796   116A     13.688970  

    Final Occupation by Irrep:
              A 
    DOCC [     9 ]

  @RHF Final Energy:  -115.08930031836245

   => Energetics <=

    Nuclear Repulsion Energy =             40.3340580760696668
    One-Electron Energy =                -236.9478420922616237
    Two-Electron Energy =                  81.5244836978295240
    Total Energy =                       -115.0893003183624472

Computation Completed


Properties will be evaluated at   0.000000,   0.000000,   0.000000 [a0]

Properties computed using the SCF density matrix

  Nuclear Dipole Moment: [e a0]
     X:    -2.1593      Y:    -0.8007      Z:    -0.0000

  Electronic Dipole Moment: [e a0]
     X:     1.7704      Y:     0.2144      Z:     0.0000

  Dipole Moment: [e a0]
     X:    -0.3889      Y:    -0.5862      Z:    -0.0000     Total:     0.7035

  Dipole Moment: [D]
     X:    -0.9884      Y:    -1.4900      Z:    -0.0000     Total:     1.7880


*** tstop() called on n071 at Wed Sep 21 16:35:15 2022
Module time:
	user time   =       4.06 seconds =       0.07 minutes
	system time =       0.08 seconds =       0.00 minutes
	total time  =          5 seconds =       0.08 minutes
Total time:
	user time   =       4.06 seconds =       0.07 minutes
	system time =       0.08 seconds =       0.00 minutes
	total time  =          5 seconds =       0.08 minutes
 MINTS: Wrapper to libmints.
   by Justin Turney

   Calculation information:
      Number of threads:                 1
      Number of atoms:                   6
      Number of AO shells:              44
      Number of SO shells:              44
      Number of primitives:             84
      Number of atomic orbitals:       130
      Number of basis functions:       116

      Number of irreps:                  1
      Integral cutoff                 0.00e+00
      Number of functions per irrep: [ 116 ]

 OEINTS: Overlap, kinetic, potential, dipole, and quadrupole integrals
         stored in file 35.

      Computing two-electron integrals...done
      Computed 22871014 non-zero two-electron integrals.
        Stored in file 33.


*** tstart() called on n071
*** at Wed Sep 21 16:35:16 2022


	Wfn Parameters:
	--------------------
	Wavefunction         = CCSD_T
	Number of irreps     = 1
	Number of MOs        = 116
	Number of active MOs = 114
	AO-Basis             = NONE
	Semicanonical        = false
	Reference            = RHF
	Print Level          = 1

	IRREP	# MOs	# FZDC	# DOCC	# SOCC	# VIRT	# FZVR
	-----	-----	------	------	------	------	------
	 A	   116	    2	    7	    0	    107	    0
	Transforming integrals...
	IWL integrals will be deleted.
	(OO|OO)...
	Presorting SO-basis two-electron integrals.
	Sorting File: SO Ints (nn|nn) nbuckets = 1
	Transforming the one-electron integrals and constructing Fock matrices
	Starting first half-transformation.
	Sorting half-transformed integrals.
	First half integral transformation complete.
	Starting second half-transformation.
	Two-electron integral transformation complete.
	(OO|OV)...
	Starting second half-transformation.
	Two-electron integral transformation complete.
	(OO|VV)...
	Starting second half-transformation.
	Two-electron integral transformation complete.
	(OV|OO)...
	Starting first half-transformation.
	Sorting half-transformed integrals.
	First half integral transformation complete.
	Starting second half-transformation.
	Two-electron integral transformation complete.
	(OV|OV)...
	Starting second half-transformation.
	Two-electron integral transformation complete.
	(OV|VV)...
	Starting second half-transformation.
	Two-electron integral transformation complete.
	(VV|OO)...
	Starting first half-transformation.
	Sorting half-transformed integrals.
	First half integral transformation complete.
	Starting second half-transformation.
	Two-electron integral transformation complete.
	(VV|OV)...
	Starting second half-transformation.
	Two-electron integral transformation complete.
	(VV|VV)...
	Starting second half-transformation.
	Two-electron integral transformation complete.
	Frozen core energy     =   -106.49612462524139

	Size of irrep 0 of <ab|cd> integrals:    131.080 (MW) /   1048.637 (MB)
	Total:                                   131.080 (MW) /   1048.637 (MB)

	Size of irrep 0 of <ia|bc> integrals:      8.575 (MW) /     68.602 (MB)
	Total:                                     8.575 (MW) /     68.602 (MB)

	Size of irrep 0 of tijab amplitudes:       0.561 (MW) /      4.488 (MB)
	Total:                                     0.561 (MW) /      4.488 (MB)

	Nuclear Rep. energy          =     40.33405807606967
	SCF energy                   =   -115.08930031836245
	One-electron energy          =    -87.59948879625017
	Two-electron energy          =     38.67225502705907
	Reference energy             =   -115.08930031836283

*** tstop() called on n071 at Wed Sep 21 16:35:28 2022
Module time:
	user time   =       8.14 seconds =       0.14 minutes
	system time =       3.22 seconds =       0.05 minutes
	total time  =         12 seconds =       0.20 minutes
Total time:
	user time   =      13.79 seconds =       0.23 minutes
	system time =       3.51 seconds =       0.06 minutes
	total time  =         18 seconds =       0.30 minutes
            **************************
            *                        *
            *        CCENERGY        *
            *                        *
            **************************

    Nuclear Rep. energy (wfn)     =   40.334058076069667
    SCF energy          (wfn)     = -115.089300318362447
    Reference energy    (file100) = -115.089300318362831

    Input parameters:
    -----------------
    Wave function   =     CCSD_T
    Reference wfn   =     RHF
    Brueckner       =     No
    Memory (Mbytes) =     14000.0
    Maxiter         =    300
    R_Convergence   =     1.0e-08
    E_Convergence   =     1.0e-10
    Restart         =     Yes
    DIIS            =     Yes
    AO Basis        =     NONE
    ABCD            =     NEW
    Cache Level     =     2
    Cache Type      =     LOW
    Print Level     =     1
    Num. of threads =     1
    # Amps to Print =     10
    Print MP2 Amps? =     No
    Analyze T2 Amps =     No
    Print Pair Ener =     No
    Local CC        =     No
    SCS-MP2         =     False
    SCSN-MP2        =     False
    SCS-CCSD        =     False

MP2 correlation energy -0.4281201406602642
                Solving CC Amplitude Equations
                ------------------------------
  Iter             Energy              RMS        T1Diag      D1Diag    New D1Diag    D2Diag
  ----     ---------------------    ---------   ----------  ----------  ----------   --------
     0        -0.428120140660264    0.000e+00    0.000000    0.000000    0.000000    0.128319
     1        -0.435469596403361    4.776e-02    0.007292    0.014768    0.014768    0.129673
     2        -0.445277705294392    1.571e-02    0.007407    0.014704    0.014704    0.135462
     3        -0.446739444274310    5.510e-03    0.008309    0.016832    0.016832    0.136897
     4        -0.446647591609259    1.214e-03    0.008369    0.016955    0.016955    0.137135
     5        -0.446689997311781    4.422e-04    0.008407    0.017099    0.017099    0.137238
     6        -0.446697455635692    1.267e-04    0.008419    0.017155    0.017155    0.137247
     7        -0.446694999856634    4.687e-05    0.008421    0.017172    0.017172    0.137245
     8        -0.446695028572456    1.724e-05    0.008423    0.017181    0.017181    0.137244
     9        -0.446695114912918    4.915e-06    0.008423    0.017183    0.017183    0.137244
    10        -0.446694866902035    1.562e-06    0.008423    0.017183    0.017183    0.137244
    11        -0.446694931595912    4.855e-07    0.008423    0.017183    0.017183    0.137244
    12        -0.446694916949795    1.187e-07    0.008423    0.017183    0.017183    0.137244
    13        -0.446694920375724    4.286e-08    0.008423    0.017183    0.017183    0.137244
    14        -0.446694921574042    1.216e-08    0.008423    0.017183    0.017183    0.137244
    15        -0.446694921615065    5.070e-09    0.008423    0.017183    0.017183    0.137244
    16        -0.446694921637229    1.561e-09    0.008423    0.017183    0.017183    0.137244

    Iterations converged.


    Largest TIA Amplitudes:
              3   6        -0.0081199187
              3  14         0.0075672999
              3   9         0.0067284179
              6  14        -0.0066856326
              4   7         0.0060203432
              5   8         0.0058154070
              4   3        -0.0057719142
              3   2         0.0054808458
              6   6         0.0054595853
              4   5        -0.0051404840

    Largest TIjAb Amplitudes:
      3   3   9   9        -0.0231313595
      4   4   7   7        -0.0222544263
      6   6  14  14        -0.0210696239
      5   5  12  12        -0.0203602675
      2   2   7   7        -0.0185754759
      4   4   8   8        -0.0154695759
      3   3  14  14        -0.0151855002
      3   3   2   9        -0.0151166226
      3   3   9   2        -0.0151166226
      3   6   9   9        -0.0150389960

    SCF energy       (wfn)                    = -115.089300318362447
    Reference energy (file100)                = -115.089300318362831

    Opposite-spin MP2 correlation energy      =   -0.329968460483395
    Same-spin MP2 correlation energy          =   -0.098151680176869
    Singles MP2 correlation energy            =   -0.000000000000000
    MP2 correlation energy                    =   -0.428120140660264
      * MP2 total energy                      = -115.517420459023100

    Opposite-spin CCSD correlation energy     =   -0.357546149897184
    Same-spin CCSD correlation energy         =   -0.089148771740045
    Singles CCSD correlation energy           =    0.000000000000000
    CCSD correlation energy                   =   -0.446694921637229
      * CCSD total energy                     = -115.535995240000062

            **************************
            *                        *
            *        CCTRIPLES       *
            *                        *
            **************************


    Wave function   =    CCSD_T
    Reference wfn   =      RHF

    Nuclear Rep. energy (wfn)                =   40.334058076069667
    SCF energy          (wfn)                = -115.089300318362447
    Reference energy    (file100)            = -115.089300318362831
    CCSD energy         (file100)            =   -0.446694921637229
    Total CCSD energy   (file100)            = -115.535995240000062

    Number of ijk index combinations:               84
    Memory available in words        :      1750000000
    ~Words needed per explicit thread:         4900172
    Number of threads for explicit ijk threading:    1

    MKL num_threads set to 1 for explicit threading.

    (T) energy                                =   -0.014764180799366
      * CCSD(T) total energy                  = -115.550759420799423

Giraffe The Energy is -115.550759420799 

    Psi4 stopped on: Wednesday, 21 September 2022 04:36PM
    Psi4 wall time for execution: 0:00:49.58

*** Psi4 exiting successfully. Buy a developer a beer!
