 --invoking executable xjoda


   *************************************************************************
         <<<     CCCCCC     CCCCCC   |||     CCCCCC     CCCCCC   >>>
       <<<      CCC        CCC       |||    CCC        CCC         >>>
      <<<      CCC        CCC        |||   CCC        CCC            >>>
    <<<        CCC        CCC        |||   CCC        CCC              >>>
      <<<      CCC        CCC        |||   CCC        CCC            >>>
       <<<      CCC        CCC       |||    CCC        CCC         >>>
         <<<     CCCCCC     CCCCCC   |||     CCCCCC     CCCCCC   >>>
   *************************************************************************

     ****************************************************************
     * CFOUR Coupled-Cluster techniques for Computational Chemistry *
     ****************************************************************
 

   Department of Chemistry                Institut fuer Physikalische Chemie
   University of Texas at Austin          Universitaet Mainz
   Austin, TX  78712, USA                 D-55099 Mainz, Germany
 
                       Version 1.0
 
                     n033                                              
                     Sat Jun 20 21:56:05 EDT 2020                      
                     integer*8 version is running
 
    -------------------------------------------------------------------
                    Input from ZMAT file
    -------------------------------------------------------------------
 
 MIN4                                                                           
 H                  0.00000000    -1.41770197     1.02062612                    
 O                  0.00000000    -0.00000000    -0.12861745                    
 H                  0.00000000     1.41770197     1.02062612                    
                                                                                
 *CFOUR(REF=RHF                                                                 
        CALC=CCSD(T)                                                            
        VIB=FINDIF                                                              
        BASIS=cc-pVDZ                                                           
        COORD=CARTESIAN                                                         
        ORB=SEMICANONICAL                                                       
        UNITS=BOHR                                                              
        MEMORY=7                                                                
        MEM_UNIT=GB                                                             
        SCF_CONV=9                                                              
        CC_CONV=6                                                               
        CHARGE=0                                                                
        MULT=1)                                                                 
                                                                                
                                                                                
 
    -------------------------------------------------------------------
                    CFOUR Control Parameters 
    -------------------------------------------------------------------
        External           Internal           Value            Units
          Name               Name
    -------------------------------------------------------------------
       PRINT                IPRNT               0               ***   
       CALCLEVEL            ICLLVL           CCSD(T)    [ 22]   ***   
       DERIV_LEV            IDRLVL            FIRST     [  1]   ***   
       CC_CONV              ICCCNV          10D-  6             ***   
       SCF_CONV             ISCFCV          10D-  9             ***   
       XFORM_TOL            IXFTOL          10D- 11             ***   
       CC_MAXCYC            ICCCYC             50              cycles 
       LINDEP_TOL           ILINDP              8               ***   
       RDO                  IRDOFM              ON      [  1]   ***   
  
       SCF_EXTRAPO          IRPP                ON      [  1]   ***   
       REFERENCE            IREFNC             RHF      [  0]   ***   
       CC_EXPORDER          ICCEOR              5               ***   
       TAMP_SUM             IEVERY              5               ***   
       NTOP_TAMP            ITOPT2             15               ***   
       CCORBOPT             ICCORB             OFF      [  0] x 0.01  
       SCF_MAXCYC           ISCFCY            150              cycles 
       OCCUPATION           IOCCU   ESTIMATED BY SCF 
       PROPS                IPROPS             OFF      [  0]   ***   
       RELAX_DENS           IRDENS              ON      [  1]   ***   
  
       SCF_EXPORDE          IRPPOR              6               ***   
       CC_EXTRAPOL          ICCEXT             DIIS     [  1]   ***   
       BRUECKNER            IBRKNR             OFF      [  0]   ***   
       XFIELD               IXEFLD              0             x 10-6  
       YFIELD               IYEFLD              0             x 10-6  
       ZFIELD               IZEFLD              0             x 10-6  
       SAVE_INTS            ISVINT             OFF      [  0]   ***   
       DROPMO               IDRPMO      NONE         
       CHARGE               ICHRGE              0               ***   
       MULTIPLICTY          IMULTP              1               ***   
  
       CPHF_CONVER          ICPHFT          10D- 16             ***   
       CPHF_MAXCYC          ICPHFC             64              cycles 
       INCORE               INCORE             OFF      [  0]   ***   
       MEMORY_SIZE          IMEMSZ         875000000           words  
       FILE_RECSIZ          IFLREC              4096           words  
       NON-HF               INONHF             OFF      [  0]   ***   
       ORBITALS             IORBTP         SEMICANONICAL[  1]   ***   
  
       SCF_EXPSTAR          IRPPLS              8               ***   
       LOCK_ORBOCC          ILOCOC             OFF      [  0]   ***   
       HBAR                 IHBAR              OFF      [  0]   ***   
       CACHE_RECS           ICHREC             10               ***   
       GUESS                IGUESS            MOREAD    [  0]   ***   
       JODA_PRINT           IJPRNT              0               ***   
       GEO_METHOD           INR            SINGLE_POINT [  5]   ***   
       GEO_CONV             ICONTL              5              H/bohr 
       EIGENVECTOR          IVEC                1               ***   
  
       NEGEVAL              IDIE             ABORT      [  0]   ***   
       CURVILINEAR          ICURVY            OFF       [  0]   ***   
       SCALE_ON             ISTCRT              0               ***   
       GEO_MAXSTEP          IMXSTP            300            millibohr
       VIBRATION            IVIB             FINDIF     [  3]   ***   
       EVAL_HESS            IRECAL              0            # of cyc.
       INTEGRALS            INTTYP             VMOL     [  1]   ***   
       FD_STEPSIZE          IDISFD              5            10-4 bohr
       POINTS               IGRDFD              0               ***   
       CONTRACTION          ICNTYP          GENERAL     [  1]   ***   
  
       SYMMETRY             ISYM             ON         [  0]   ***   
       BASIS                IBASIS         PVDZ         [ 13]   ***   
       SPHERICAL            IDFGHI             ON       [  1]   ***   
       RESET_FLAGS          IRESET             OFF      [  0]   ***   
       PERT_ORB             IPTORB         CANONICAL    [  1]   ***   
       GENBAS_1             IGNBS1              0               ***   
       GENBAS_2             IGNBS2              0               ***   
       GENBAS_3             IGNBS3              0               ***   
       COORDINATES          ICOORD         CARTESIAN    [  1]   ***   
       SYM_CHECK            ISYMCK         OVERRIDE     [  1]   ***   
  
       SCF_PRINT            ISCFPR              0               ***   
       ECP                  IECP           OFF          [  0]   ***   
       RESTART_CC           ICCRES         OFF          [  0]   ***   
       TRANS_INV            ITRAIN         USE          [  0]   ***   
       HFSTABILITY          ISTABL         OFF          [  0]   ***   
       ROT_EVEC             ROTVEC              0               ***   
       BRUCK_CONV           IBRTOL          10D-  4             ***   
       UNITS                IUNITS         BOHR         [  1]   ***   
       FD_USEGROUP          IFDGRP         FULL         [  0]   ***   
  
       FD_PROJECT           IFDPRJ         ON           [  0]   ***   
       FD_CALTYPE           IFDCAL         GRADONLY     [  0]   ***   
       VTRAN                IVTRAN         FULL/PARTIAL [  0]   ***   
       HF2_FILE             IHF2Fl         USE          [  1]   ***   
       SUBGROUP             ISUBGP         DEFAULT      [  0]   ***   
       SUBGRPAXIS           ISBXYZ         X            [  0]   ***   
       EXCITE               IEXCIT         NONE         [  0]   ***   
       LINEQ_CONV           IZTACN          10D-  7           cycles  
  
       TREAT_PERT           ITREAT         SIMULTANEOUS [  0]   ***   
       ESTATE_PROP          IEXPRP         OFF          [  0]   ***   
       GEO_MAXCYC           IOPTCY             50               ***   
       ABCDTYPE             IABCDT         STANDARD     [  0]   ***   
       AO_LADDERS           IAOLAD         SINGLEPASS   [  1]   ***   
       FOCK                 IFOCK          AO           [  1]   ***   
       ESTATE_MAXC          IEXMXC             20               ***   
       ESTATE_CONV          IEXTOL          10D-  5             ***   
       DIRECT               IDIRCT         OFF          [  0]   ***   
  
       GAMMA_ABCD           IGABCD         STORE        [  0]   ***   
       LINEQ_TYPE           ILTYPE         DIIS         [  1]   ***   
       LINEQ_MAXCY          ILMAXC             50               ***   
       TRANGRAD             IRESRM         OFF          [  0]   ***   
       PSI                  IPSI           OFF          [  0]   ***   
       GAMMA_ABCI           IGABCI         STORE        [  0]   ***   
       ESTATE_DIAG          IEXDIG         ITERATIVE    [  0]   ***   
       FC_FIELD             IFINFC              0             x 10-6  
       SD_FIELD             IFINSD              0             x 10-6  
       DIFF_TYPE            IDIFTY         RELAXED      [  0]   ***   
  
       LINEQ_EXPOR          ILMAXD              5               ***   
       FINITE_PERT          IFIPER              0             x 10-6  
       ANHARMONIC           IANHAR         OFF          [  0]   ***   
       CC_PROGRAM           ICCPRO         VCC          [  0]   ***   
       OPEN-SHELL           IOPEN          SPIN-ORBITAL [  0]   ***   
       UIJ_THRESHO          IUIJTH             25               ***   
       SCF_DAMPING          IDAMP               0             x 10-3  
       PROP_INTEGR          IINTYP         INTERNAL     [  0]   ***   
       ANH_SYMMETR          IANHSM         ABELIAN      [  0]   ***   
       ANH_ALGORIT          IANALG         STANDARD     [  0]   ***   
  
       EOM_NONIT            EOMNON         OFF          [  0]   ***   
       VIB_ALGORIT          IGEALG         STANDARD     [  0]   ***   
       ANH_DERIVAT          IANDER         SECOND       [  1]   ***   
       SPINROTATIO          ISRCON         OFF          [  0]   ***   
       CIS_CONV             ICISTL              5               ***   
       ANH_STEPSIZ          ICUBST             50000          x 10-6  
       SPIN_FLIP            ISPFLP         OFF          [  0]   ***   
       GRID                 IGRID          OFF          [  0]   ***   
  
       DBOC                 IDBOC          OFF          [  0]   ***   
       EOMFOLLOW            IEOMSR         ENERGY       [  0]   ***   
       T3_EXTRAPOL          IT3EXT         OFF          [  0]   ***   
       ESTATE_LOCK          IESLOC         OFF          [  0]   ***   
       UNOS                 IUNOS          OFF          [  0]   ***   
       FREQ_ALGORI          IVIALG         STANDARD     [  0]   ***   
       RELATIVIST           IRELAT         OFF          [  0]   ***   
       FROZEN_CORE          IFROCO         OFF          [  0]   ***   
       EXCITATION           IEXCIT              0               ***   
       INPUT_MRCC           IMRCC          ON           [  1]   ***   
  
       GIAO                 IGIAO          OFF          [  1]   ***   
       EOM_NSING            IEOMSI          10D-  0             ***   
       EOM_NTRIP            IEOMTR          10D-  0             ***   
       EOM_NSTATES          IMRCCD         DAVIDSON     [  0]   ***   
       DIAG_MRCC            IEOMST          10D-  0             ***   
       NEWNORM              INEWNO         OFF          [  0]   ***   
       TESTSUITE            ITESTS         OFF          [  0]   ***   
       BUFFERSIZE           IBUFFS            600               ***   
       SPINORBIT            ISOCAL         OFF          [  0]   ***   
       DCT                  IDCT           OFF          [  0]   ***   
  
       PARALLEL             IPARAL         ON           [  1]   ***   
       PARA_PRINT           IPPRIN              0               ***   
       COMM_SIZE            IPSIZE            ***               ***   
       PARA_INT             IPINTS         ON           [  1]   ***   
       RAMAN_INT            IRAMIN         OFF          [  0]   ***   
       RAMAN_ORB            IRAMRE         UNRELAXED    [  0]   ***   
       BREIT                IBREIT         OFF          [  0]   ***   
       MEM_UNIT             IMEMU          GB           [  3]   ***   
       SPIN_ORBIT           ISPORB         OFF          [  0]   ***   
       GENBAS_4             IGNBS4              0               ***   
  
       SPIN_SCAL            ISCSMP         OFF          [  0]   ***   
       GRID_ALGO            IGALGO         SERIAL       [  0]   ***   
       VIBPHASE             ISETPH         STANDARD     [  0]   ***   
       SEQUENCE             ISEQUE         OFF          [  0]   ***   
       HESS_TYPE            IHESTP         SCF          [  0]   ***   
       CONTINUUM            ICONTU         NONE         [  0]   ***   
       SCF_NOSTOP           ISCFST         OFF          [  0]   ***   
       CONSTANT             ICONST         OLD          [  1]   ***   
  
       EOM_MRCC             IMRCCE         OLD          [  0]   ***   
       EOM_ORDER            IEXORD         ENERGY       [  0]   ***   
       GIMIC                IGIMIC         OFF          [  0]   ***   
    -------------------------------------------------------------------
  @GETXYZ-I,     3 atoms read from ZMAT.
  1  H          1     1.00783
  2  O          8    15.99491
  3  H          1     1.00783
  1  H          1     1.00783
  2  O          8    15.99491
  3  H          1     1.00783
   Rotational constants (in cm-1): 
          9.3835314895            14.8596796763            25.4624724182
   Rotational constants (in MHz): 
     281311.2364057262        445482.0519371080        763345.8262442052
********************************************************************************
   The full molecular point group is C2v .
   The largest Abelian subgroup of the full molecular point group is C2v .
   The computational point group is C2v .
********************************************************************************
 ----------------------------------------------------------------
 Z-matrix   Atomic            Coordinates (in bohr)
  Symbol    Number           X              Y              Z
 ----------------------------------------------------------------
     H         1         0.00000000    -1.41770197     1.02062612
     O         8         0.00000000     0.00000000    -0.12861745
     H         1         0.00000000     1.41770197     1.02062612
 ----------------------------------------------------------------
   Interatomic distance matrix (Angstroms) 
 
                 H             O             H    
                [ 1]        [ 2]        [ 3]
  H    [ 1]     0.00000
  O    [ 2]     0.96575     0.00000
  H    [ 3]     1.50043     0.96575     0.00000
   Rotational constants (in cm-1): 
          9.3835314895            25.4624724182            14.8596796763
   Rotational constants (in MHz): 
     281311.2364057262        763345.8262442052        445482.0519371080
  There are   24 basis functions.
 @GEOPT-W, Archive file not created for single-point calculation.
                0.00 seconds walltime passed
 --executable xjoda finished with status            0
 --invoking executable xsymcor
  @GETMEM-I,   Allocated    6675 MB of main memory.
  @CHRTABLE-I, There are   4 unique irreducible representations.
  @CHRTABLE-I, There are   4 unique irreducible representations.
  @VIBINF-I, Symmetries species for nuclear motions:
  Irrep     Label    Total    Vibrations     Translations     Rotations
    1          A1     3.00       2.00            1.00            0.00
    2          A2     1.00      -0.00            0.00            1.00
    3          B1     2.00       0.00            1.00            1.00
    4          B2     3.00       1.00            1.00            1.00
   Total number of calculations required      :     5
   Number of single-point energy calculations :     0
   Number of energy gradient     calculations :     5
  there are                      1  more gradients 
  @CHECKOUT-I, Total execution time :       0.0000 seconds.
 --executable xsymcor finished with status            0
 --invoking executable xjoda
  @GETXYZ-I,     3 atoms read from ZMAT.
  1  H          1     1.00783
  2  O          8    15.99491
  3  H          1     1.00783
  1  H          1     1.00783
  2  O          8    15.99491
  3  H          1     1.00783
   Rotational constants (in cm-1): 
          9.3864759991            14.8670651574            25.4624724182
   Rotational constants (in MHz): 
     281399.5105971397        445703.4631193086        763345.8262442056
********************************************************************************
   The full molecular point group is C2v .
   The largest Abelian subgroup of the full molecular point group is C2v .
   The computational point group is C2v .
********************************************************************************
  There are   24 basis functions.
 @GEOPT-W, Archive file not created for single-point calculation.
                0.25 seconds walltime passed
 --executable xjoda finished with status            0
 --invoking executable xvmol
 Serial version of molecule started
 
    -------------------------------------------------------------------
                    Input from MOL file
    -------------------------------------------------------------------
 INTGRL        1    0    1    0    0    0    0    0    0                        
          *** CFOUR Program System (Release V0.1) ***                           
 MIN4                                                                           
     2    2 X  Y       0.10E-08              0    0                             
    9999.00      3.00                                                           
           1.00000000    1    2    1    1                                       
 H #1  -0.000000000000000  -1.417349791827629   1.020626121246849               
     4    2                                                                     
    13.0100000000000       1.968500000000000E-002  0.000000000000000E+000       
    1.96200000000000       0.137977000000000       0.000000000000000E+000       
   0.444600000000000       0.478148000000000       0.000000000000000E+000       
   0.122000000000000       0.501240000000000        1.00000000000000            
     1    1                                                                     
   0.727000000000000        1.00000000000000                                    
           8.00000000    1    3    1    1    1                                  
 O #2   0.000000000000000   0.000000000000000  -0.128617448753150               
     9    3                                                                     
    11720.0000000000       7.100000000000000E-004 -1.600000000000000E-004       
   0.000000000000000E+000                                                       
    1759.00000000000       5.470000000000000E-003 -1.263000000000000E-003       
   0.000000000000000E+000                                                       
    400.800000000000       2.783700000000000E-002 -6.267000000000000E-003       
   0.000000000000000E+000                                                       
    113.700000000000       0.104800000000000      -2.571600000000000E-002       
   0.000000000000000E+000                                                       
    37.0300000000000       0.283062000000000      -7.092400000000000E-002       
   0.000000000000000E+000                                                       
    13.2700000000000       0.448719000000000      -0.165411000000000            
   0.000000000000000E+000                                                       
    5.02500000000000       0.270952000000000      -0.116955000000000            
   0.000000000000000E+000                                                       
    1.01300000000000       1.545800000000000E-002  0.557368000000000            
   0.000000000000000E+000                                                       
   0.302300000000000      -2.585000000000000E-003  0.572759000000000            
    1.00000000000000                                                            
     4    2                                                                     
    17.7000000000000       4.301800000000000E-002  0.000000000000000E+000       
    3.85400000000000       0.228913000000000       0.000000000000000E+000       
    1.04600000000000       0.508728000000000       0.000000000000000E+000       
   0.275300000000000       0.460531000000000        1.00000000000000            
     1    1                                                                     
    1.18500000000000        1.00000000000000                                    
 FINISH                                                                         
 
    -------------------------------------------------------------------
 
 One- and two-electron integrals over symmetry-adapted AOs are calculated.

  Spherical harmonics are used.
  
  Integrals less than  0.10E-13 are neglected.

  Nuclear repulsion energy :    9.1211894386 a.u.
  required memory for a1 array                5013204  words 
  required memory for a2 array                2046060  words 
 basis number:   1     5
 basis number:   8    15
  @GETMEM-I,   Allocated      69 MB of main memory.
  @MOLECU-I, One electron integrals required         0.00000 seconds.
  @TWOEL-I,       2350 integrals of symmetry type  I I I I
  @TWOEL-I,       4467 integrals of symmetry type  I J I J
  @TWOEL-I,       2860 integrals of symmetry type  I I J J
  @TWOEL-I,       1735 integrals of symmetry type  I J K L
  @TWOEL-I, Total number of 2-e integrals      11412.
  @MOLECU-I, Two electron integrals required         0.04000 seconds.
  @CHECKOUT-I, Total execution time :       0.0500 seconds.
                0.00 seconds walltime passed
 --executable xvmol finished with status            0
 --invoking executable xvmol2ja
  @GETMEM-I,   Allocated    6675 MB of main memory.
  @CHECKOUT-I, Total execution time :       0.0000 seconds.
                0.00 seconds walltime passed
 --executable xvmol2ja finished with status            0
 --invoking executable xvscf
 NSOSCF                     0
  There are   24 functions in the AO basis.

  There are 4 irreducible representations.

       Irrep        # of functions
         1                 11
         2                  4
         3                  7
         4                  2


  Parameters for SCF calculation: 
        SCF reference function:  RHF  
  Maximum number of iterations:  150
     Full symmetry point group: C2v 
     Computational point group: C2v 
        Initial density matrix: MOREAD                 
     SCF convergence tolerance: 10**(- 9)
  DIIS convergence acceleration:  ON
          Latest start for DIIS:   8
                     DIIS order:   6

  Memory information:      62156 words required.
  Fock matrices are constructed from AO integral file.
  @GETMEM-I,   Allocated       0 MB of main memory.
  Initialization and symmetry analysis required      0.000 seconds.

  @INITGES-I, Occupancies from core Hamiltonian:

          Alpha population by irrep:   3    1    1    0
           Beta population by irrep:   3    1    1    0


 total no. of electrons in initial guess :  0.000000000000000E+000
  --------------------------------------------------------------------
  Iteration         Total Energy            Largest Density Difference
  --------------------------------------------------------------------
       0             9.121189438642505              0.0000000000D+00
   current occupation vector 
     3  1  1  0
     3  1  1  0
       1           -68.877848097836761              0.9704818030D+01
   current occupation vector 
     3  1  1  0
     3  1  1  0
       2           -69.891358003034668              0.9390507601D+01
   current occupation vector 
     3  0  2  0
     3  0  2  0
       3           -73.263219731970679              0.7299793265D+01
   current occupation vector 
     3  1  1  0
     3  1  1  0
       4           -73.377145798964293              0.3774458183D+01
   current occupation vector 
     4  0  1  0
     4  0  1  0
       5           -74.651765743188179              0.3247014159D+01
   current occupation vector 
     3  1  1  0
     3  1  1  0
       6           -75.489550183490437              0.2620504918D+01
   current occupation vector 
     3  1  1  0
     3  1  1  0
       7           -75.834112569763377              0.1487202224D+01
   current occupation vector 
     3  1  1  0
     3  1  1  0
       8           -75.958694894885568              0.9835497512D+00
   current occupation vector 
     3  1  1  0
     3  1  1  0
       9           -76.026153020325594              0.3301652677D+00
   current occupation vector 
     3  1  1  0
     3  1  1  0
      10           -76.026164798292342              0.4715854454D-02
   current occupation vector 
     3  1  1  0
     3  1  1  0
      11           -76.026166260713637              0.2053751153D-02
   current occupation vector 
     3  1  1  0
     3  1  1  0
      12           -76.026166299983615              0.3508222998D-03
   current occupation vector 
     3  1  1  0
     3  1  1  0
      13           -76.026166300323538              0.3418448035D-04
   current occupation vector 
     3  1  1  0
     3  1  1  0
      14           -76.026166300334907              0.5162661363D-05
   current occupation vector 
     3  1  1  0
     3  1  1  0
      15           -76.026166300335916              0.1531957790D-05
   current occupation vector 
     3  1  1  0
     3  1  1  0
      16           -76.026166300335689              0.3309705121D-06
   current occupation vector 
     3  1  1  0
     3  1  1  0
      17           -76.026166300335703              0.8907957860D-07
   current occupation vector 
     3  1  1  0
     3  1  1  0
      18           -76.026166300335547              0.1048008169D-07
   current occupation vector 
     3  1  1  0
     3  1  1  0
      19           -76.026166300335618              0.2467392735D-08
   current occupation vector 
     3  1  1  0
     3  1  1  0

  SCF has converged.

 save density matrix on hard disk
 total electron number:   10.0000000000000     
     E(SCF)=       -76.026166300335916              0.1883593281D-09

  Eigenvector printing suppressed.

 @PUTMOS-I, Writing converged MOs to NEWMOS. 
 @PUTMOS-I, Symmetry   1 Full   2 Partial   3
 @PUTMOS-I, Symmetry   2 Full   1 Partial   0
 @PUTMOS-I, Symmetry   3 Full   1 Partial   3
 @PUTMOS-I, Symmetry   4 Full   0 Partial   2
  @DMPJOB-I, Rotating orbitals to semicanonical basis.
             *** Eigenvalues correspond to new basis. ***



 
  ORBITAL EIGENVALUES (ALPHA)  (1H = 27.2113838 eV)

       MO #        E(hartree)               E(eV)           FULLSYM    COMPSYM
       ----   --------------------   --------------------   -------   ---------
    1     1         -20.5533111091        -559.2840373516      A1        A1 (1)
    2     2          -1.3345438822         -36.3147858026      A1        A1 (1)
    3    16          -0.6899182668         -18.7736307627      B2        B2 (3)
    4     3          -0.5703299708         -15.5194677401      A1        A1 (1)
    5    12          -0.4935012858         -13.4288529032      B1        B1 (2)
  +++++++++++++++++++++++++++++++++++++++++++++++++++++++++++++++++++++++++++++
    6     4           0.1836159860           4.9964450710      A1        A1 (1)
    7    17           0.2552861396           6.9466891275      B2        B2 (3)
    8    18           0.7748539339          21.0848477993      B2        B2 (3)
    9     5           0.8579230506          23.3452734173      A1        A1 (1)
   10     6           1.1664131522          31.7397159779      A1        A1 (1)
   11    13           1.1995623228          32.6417507826      B1        B1 (2)
   12    19           1.2565658890          34.1928967014      B2        B2 (3)
   13     7           1.4215895557          38.6834190334      A1        A1 (1)
   14    23           1.4827787493          40.3484616671      A2        A2 (4)
   15    14           1.6586017994          45.1328501675      B1        B1 (2)
   16     8           1.8636306085          50.7119677863      A1        A1 (1)
   17    20           1.9409332279          52.8154790318      B2        B2 (3)
   18    21           2.4271063929          66.0449236282      B2        B2 (3)
   19     9           2.4744933553          67.3343884510      A1        A1 (1)
   20    15           3.2914137868          89.5639238614      B1        B1 (2)
   21    24           3.3210141527          90.3693907781      A2        A2 (4)
   22    10           3.5075354259          95.4448927355      A1        A1 (1)
   23    11           3.8393906051         104.4751313880      A1        A1 (1)
   24    22           4.1520278977         112.9824247548      B2        B2 (3)


  VSCF finished.

  @CHECKOUT-I, Total execution time :       0.0100 seconds.
                0.00 seconds walltime passed
 --executable xvscf finished with status            0
 --invoking executable xvtran
  @GETMEM-I,   Allocated    6675 MB of main memory.
  Full RHF integral transformation
  Transformation of IIII integrals :
  1 pass through the AO integral file was required.
        2350 AO integrals were read.
        2678 MO integrals were written to HF2.
  Transformation of IIJJ integrals :
  1 pass through the AO integral file was required.
        2860 AO integrals were read.
        3100 MO integrals were written to HF2.
  Transformation of IJIJ integrals :
  1 pass through the AO integral file was required.
        4467 AO integrals were read.
        4793 MO integrals were written to HF2.
  Transformation of IJKL integrals :
  1 pass through the AO integral file was required.
        1735 AO integrals were read.
        1848 MO integrals were written to HF2.
  Summary of active molecular orbitals: 
------------------------------------------------------------------------
 
  Index      Eigenvalue    Symmetry    Index      Eigenvalue    Symmetry
------------------------------------------------------------------------
     1       -20.5533111        1        13         3.8393906        1
     2        -1.3345439        1        14         1.1995623        2
     3        -0.5703300        1        15         1.6586018        2
     4        -0.4935013        2        16         3.2914138        2
     5        -0.6899183        3        17         0.2552861        3
     6         0.1836160        1        18         0.7748539        3
     7         0.8579231        1        19         1.2565659        3
     8         1.1664132        1        20         1.9409332        3
     9         1.4215896        1        21         2.4271064        3
    10         1.8636306        1        22         4.1520279        3
    11         2.4744934        1        23         1.4827787        4
    12         3.5075354        1        24         3.3210142        4
------------------------------------------------------------------------
  @CHECKOUT-I, Total execution time :       0.0000 seconds.
                0.00 seconds walltime passed
 --executable xvtran finished with status            0
 --invoking executable xintprc
  @GETMEM-I,   Allocated    6675 MB of main memory.
  @GMOIAA-I, Processing MO integrals for spin case AA.
  @GMOIAA-I, Generation of integral list completed.
                      TYPE                NUMBER
                      ----               --------
                      PPPP                  4957
                      PPPH                  4884
                      PPHH                  1277
                      PHPH                   832
                      PHHH                   420
                      HHHH                    49

                     TOTAL                 12419

  @FORMT2-I, Second-order MP correlation energies:
              ----------------------------------------------
              E(SCF)                =  -76.026166300336 a.u.
              E2(AA)                =   -0.025846027498 a.u.
              E2(AB)                =   -0.153127953023 a.u.
              E2(TOT)               =   -0.204820008018 a.u.
              Total MP2 energy      =  -76.230986308354 a.u.
              ----------------------------------------------
   Largest T2 amplitudes for spin case AB:
       _       _                 _       _                 _       _
   i   j   a   b             i   j   a   b             i   j   a   b
-----------------------------------------------------------------------------
[  4   4  14  14]-0.04720 [  3   3   8   8]-0.03186 [  5   5  18  18]-0.03033
[  4   3  14   8] 0.02881 [  3   4   8  14] 0.02881 [  5   5  17  17]-0.02734
[  5   4  19  14] 0.02344 [  4   5  14  19] 0.02344 [  5   4  17  14]-0.02337
[  4   5  14  17]-0.02337 [  5   5   7   7]-0.02272 [  3   3  18  18]-0.02191
[  5   5  19  19]-0.02172 [  5   3  17   8] 0.01875 [  3   5   8  17] 0.01875
-----------------------------------------------------------------------------
   Norm of T2AB vector (     2459 symmetry allowed elements):  0.1949572965.
-----------------------------------------------------------------------------
  @CHECKOUT-I, Total execution time :       0.0000 seconds.
                0.00 seconds walltime passed
 --executable xintprc finished with status            0
 54                     3
 --invoking executable xvcc
  @GETMEM-I,   Allocated    6675 MB of main memory.
   CCSD(T) energy will be calculated.
   The total correlation energy is -0.204820008018 a.u.
   The total correlation energy is -0.209636401658 a.u.
  Convergence information after     1 iterations: 
  Largest element of residual vector : -0.61196183E-02.
  Largest element of DIIS residual   : -0.61196183E-02.
   The total correlation energy is -0.212918681933 a.u.
  Convergence information after     2 iterations: 
  Largest element of residual vector : -0.18750816E-02.
  Largest element of DIIS residual   : -0.22142080E-02.
   The total correlation energy is -0.213807007400 a.u.
  Convergence information after     3 iterations: 
  Largest element of residual vector :  0.93072799E-03.
  Largest element of DIIS residual   :  0.79812239E-03.
   The total correlation energy is -0.214095455512 a.u.
  Convergence information after     4 iterations: 
  Largest element of residual vector :  0.15717339E-03.
  Largest element of DIIS residual   :  0.95860298E-04.
   The total correlation energy is -0.214113619868 a.u.
  Convergence information after     5 iterations: 
  Largest element of residual vector :  0.12225045E-03.
  Largest element of DIIS residual   :  0.77854551E-04.
   The total correlation energy is -0.214116445277 a.u.
  Convergence information after     6 iterations: 
  Largest element of residual vector :  0.42053018E-04.
  Largest element of DIIS residual   :  0.17462079E-04.
   The total correlation energy is -0.214115766940 a.u.
  Convergence information after     7 iterations: 
  Largest element of residual vector :  0.15748725E-04.
  Largest element of DIIS residual   :  0.40581365E-05.
   The total correlation energy is -0.214115939773 a.u.
  Convergence information after     8 iterations: 
  Largest element of residual vector :  0.22627015E-05.
  Largest element of DIIS residual   :  0.76818187E-06.
   The total correlation energy is -0.214115914372 a.u.
  Convergence information after     9 iterations: 
  Largest element of residual vector :  0.39529922E-06.
  Largest element of DIIS residual   : -0.20546709E-06.
  Amplitude equations converged in     9iterations.
   The total correlation energy is -0.214115922874 a.u.
   The CC iterations have converged.

   Largest T1 amplitudes for spin case AA:
   i       a                 i       a                 i       a    
-----------------------------------------------------------------------------
[  3       6    ] 0.00768 [  5      21    ]-0.00747 [  5      17    ] 0.00604
[  3      11    ]-0.00518 [  5      19    ] 0.00488 [  2       8    ] 0.00430
[  2       6    ] 0.00360 [  4      15    ] 0.00339 [  4      14    ] 0.00322
[  3       7    ] 0.00312 [  3       9    ] 0.00296 [  2      11    ]-0.00274
[  5      18    ] 0.00205 [  2      10    ] 0.00153 [  3      10    ] 0.00139
-----------------------------------------------------------------------------
   Norm of T1AA vector (       33 symmetry allowed elements):  0.0170620482.
-----------------------------------------------------------------------------
   Largest T2 amplitudes for spin case AB:
       _       _                 _       _                 _       _
   i   j   a   b             i   j   a   b             i   j   a   b
-----------------------------------------------------------------------------
[  4   4  14  14]-0.05141 [  5   5  18  18]-0.03639 [  3   3   8   8]-0.03438
[  5   5  17  17]-0.03064 [  4   3  14   8] 0.02810 [  3   4   8  14] 0.02810
[  5   5   7   7]-0.02750 [  3   3  18  18]-0.02591 [  5   4  19  14] 0.02297
[  4   5  14  19] 0.02297 [  5   5  19  19]-0.02231 [  5   4  17  14]-0.02200
[  4   5  14  17]-0.02200 [  5   5  18  17]-0.02167 [  5   5  17  18]-0.02167
-----------------------------------------------------------------------------
   Norm of T2AB vector (     2459 symmetry allowed elements):  0.2174428872.
-----------------------------------------------------------------------------
       Summary of iterative solution of CC equations 
      -----------------------------------------------------------
                       Correlation           Total
       Iteration         Energy              Energy
      -----------------------------------------------------------
            0        -0.204820008018     -76.230986308354  DIIS 
            1        -0.209636401658     -76.235802701994  DIIS 
            2        -0.212918681933     -76.239084982269  DIIS 
            3        -0.213807007400     -76.239973307736  DIIS 
            4        -0.214095455512     -76.240261755848  DIIS 
            5        -0.214113619868     -76.240279920204  DIIS 
            6        -0.214116445277     -76.240282745613  DIIS 
            7        -0.214115766940     -76.240282067276  DIIS 
            8        -0.214115939773     -76.240282240109  DIIS 
            9        -0.214115922874     -76.240282223210  DIIS 
      -----------------------------------------------------------
      A miracle has come to pass. The CC iterations have converged.
        E(CCSD)           =     -76.240282223210
        E(CCSD + T(CCSD)) =     -76.243493772482
        E(CCSD(T))        =     -76.243404938020
  @CHECKOUT-I, Total execution time :       0.1800 seconds.
 --executable xvcc finished with status            0
 54 done                     3
 --invoking executable xlambda
  @GETMEM-I,   Allocated    6675 MB of main memory.
  The Lambda equations are solved for CCSD(T).
  Initial lambda amplitudes: 
  Convergence information after     1 iterations: 
  Largest element of residual vector : -0.26649671E-02.
  Largest element of DIIS residual   : -0.26649671E-02.
  Convergence information after     2 iterations: 
  Largest element of residual vector :  0.88657587E-03.
  Largest element of DIIS residual   :  0.56465937E-03.
  Convergence information after     3 iterations: 
  Largest element of residual vector :  0.22352866E-03.
  Largest element of DIIS residual   : -0.88063067E-04.
  Convergence information after     4 iterations: 
  Largest element of residual vector :  0.67664669E-04.
  Largest element of DIIS residual   :  0.58590309E-04.
  Convergence information after     5 iterations: 
  Largest element of residual vector :  0.36184610E-04.
  Largest element of DIIS residual   :  0.17375412E-04.
  Convergence information after     6 iterations: 
  Largest element of residual vector :  0.13631411E-04.
  Largest element of DIIS residual   :  0.54965245E-05.
  Convergence information after     7 iterations: 
  Largest element of residual vector :  0.44959034E-05.
  Largest element of DIIS residual   : -0.12702724E-05.
  Convergence information after     8 iterations: 
  Largest element of residual vector : -0.59903382E-06.
  Largest element of DIIS residual   : -0.14109005E-06.
  Convergence information after     9 iterations: 
  Largest element of residual vector : -0.10803007E-06.
  Largest element of DIIS residual   :  0.42012944E-07.
  Amplitude equations converged in     9 iterations.
      The lambda equations have converged.
  @CHECKOUT-I, Total execution time :       0.0500 seconds.
 --executable xlambda finished with status            0
 --invoking executable xdens
  @GETMEM-I,   Allocated    6675 MB of main memory.
  CCSD(T) density and intermediates are calculated.
  The perturbed orbitals are chosen canonical.
  The iterative expansion of D(ai) converged after  16 iterations.
  ----------------------------------------------------------------------
                 Natural orbital occupation numbers
  ----------------------------------------------------------------------
  1.99992  1.98408  1.97194  1.96446  1.96148  0.02908  0.02648  0.01754
  0.01168  0.00623  0.00586  0.00529  0.00467  0.00455  0.00134  0.00125
  0.00082  0.00079  0.00074  0.00060  0.00057  0.00053  0.00007  0.00005
  Trace of density matrix :  10.0000000000.
  ----------------------------------------------------------------------
  Density calculation successfully completed.
  @CHECKOUT-I, Total execution time :       0.0200 seconds.
                0.00 seconds walltime passed
 --executable xdens finished with status            0
 --invoking executable xanti
  @GETMEM-I,   Allocated    6675 MB of main memory.
 CCSD(T) MO gammas will be sorted to Mulliken order.
  @CHECKOUT-I, Total execution time :       0.0000 seconds.
                0.00 seconds walltime passed
 --executable xanti finished with status            0
 --invoking executable xbcktrn
  @GETMEM-I,   Allocated    6675 MB of main memory.
  @CHECKOUT-I, Total execution time :       0.0000 seconds.
                0.00 seconds walltime passed
 --executable xbcktrn finished with status            0
 --invoking executable xvdint
  @GETMEM-I,   Allocated    6675 MB of main memory.
 One- and two-electron integral derivatives are calculated
 for RHF-CC/MBPT gradients and dipole moments.
 Spherical gaussians are used.

                     Kinetic energy integral gradient
                     --------------------------------

                         H #1 y     1.1384081725
                         H #1 z    -0.9076870658
                         O #2 z     0.9076870658


 H #1 1     0.0000000000            0.5692040862           -0.4538435329
 H #1 2     0.0000000000           -0.5692040862           -0.4538435329
 O #2       0.0000000000            0.0000000000            0.9076870658



                   Nuclear attraction integral gradient
                   ------------------------------------

                         H #1 y   -10.7695899095
                         H #1 z     8.5534702442
                         O #2 z    -8.5534702442


 H #1 1     0.0000000000           -5.3847949547            4.2767351221
 H #1 2     0.0000000000            5.3847949547            4.2767351221
 O #2       0.0000000000            0.0000000000           -8.5534702442



                      Reorthonormalization gradient
                      -----------------------------

                         H #1 y     0.5533779932
                         H #1 z    -0.4790266245
                         O #2 z     0.4790266245


 H #1 1     0.0000000000            0.2766889966           -0.2395133122
 H #1 2     0.0000000000           -0.2766889966           -0.2395133122
 O #2       0.0000000000            0.0000000000            0.4790266245



                Electronic contributions to dipole moment
                -----------------------------------------

                               au             Debye

                    z     -0.23632393     -0.60067562

  Conversion factor used: 1 a.u. =   2.54174691 Debye 


  Evaluation of 1e integral derivatives required    0.00 seconds.
  Evaluation of 2el integral derivatives

                      Two-electron integral gradient
                      ------------------------------

                         H #1 y     5.0966820055
                         H #1 z    -4.1404315964
                         O #2 z     4.1404315964


 H #1 1     0.0000000000            2.5483410027           -2.0702157982
 H #1 2     0.0000000000           -2.5483410027           -2.0702157982
 O #2       0.0000000000            0.0000000000            4.1404315964


  Evaluation of 2e integral derivatives required    0.02 seconds.

                            Molecular gradient
                            ------------------

                         H #1 y     0.0002821593
                         H #1 z    -0.0001417934
                         O #2 z     0.0001417934


 H #1 1     0.0000000000            0.0001410796           -0.0000708967
 H #1 2     0.0000000000           -0.0001410796           -0.0000708967
 O #2       0.0000000000            0.0000000000            0.0001417934


  Molecular gradient norm 0.346E-03

                           Total dipole moment
                           -------------------

                               au             Debye

                    z      0.77598872      1.97236694

  Conversion factor used: 1 a.u. =   2.54174691 Debye 


  @CHECKOUT-I, Total execution time :       0.0200 seconds.
                0.00 seconds walltime passed
 --executable xvdint finished with status            0
 --invoking executable xsymcor
  @GETMEM-I,   Allocated    6675 MB of main memory.
  current energy   -76.2434049380204     
  there are                      1  more gradients 
  @CHECKOUT-I, Total execution time :       0.0000 seconds.
 --executable xsymcor finished with status            0
 --invoking executable xjoda
  @GETXYZ-I,     3 atoms read from ZMAT.
  1  H          1     1.00783
  2  O          8    15.99491
  3  H          1     1.00783
  1  H          1     1.00783
  2  O          8    15.99491
  3  H          1     1.00783
   Rotational constants (in cm-1): 
          9.3805880957            14.8522996973            25.4624724182
   Rotational constants (in MHz): 
     281222.9956689379        445260.8056988960        763345.8262442049
********************************************************************************
   The full molecular point group is C2v .
   The largest Abelian subgroup of the full molecular point group is C2v .
   The computational point group is C2v .
********************************************************************************
  There are   24 basis functions.
 @GEOPT-W, Archive file not created for single-point calculation.
                0.00 seconds walltime passed
 --executable xjoda finished with status            0
 --invoking executable xvmol
 Serial version of molecule started
 
    -------------------------------------------------------------------
                    Input from MOL file
    -------------------------------------------------------------------
 INTGRL        1    0    1    0    0    0    0    0    0                        
          *** CFOUR Program System (Release V0.1) ***                           
 MIN4                                                                           
     2    2 X  Y       0.10E-08              0    0                             
    9999.00      3.00                                                           
           1.00000000    1    2    1    1                                       
 H #1   0.000000000000000  -1.418054148172371   1.020626121246849               
     4    2                                                                     
    13.0100000000000       1.968500000000000E-002  0.000000000000000E+000       
    1.96200000000000       0.137977000000000       0.000000000000000E+000       
   0.444600000000000       0.478148000000000       0.000000000000000E+000       
   0.122000000000000       0.501240000000000        1.00000000000000            
     1    1                                                                     
   0.727000000000000        1.00000000000000                                    
           8.00000000    1    3    1    1    1                                  
 O #2  -0.000000000000000   0.000000000000000  -0.128617448753150               
     9    3                                                                     
    11720.0000000000       7.100000000000000E-004 -1.600000000000000E-004       
   0.000000000000000E+000                                                       
    1759.00000000000       5.470000000000000E-003 -1.263000000000000E-003       
   0.000000000000000E+000                                                       
    400.800000000000       2.783700000000000E-002 -6.267000000000000E-003       
   0.000000000000000E+000                                                       
    113.700000000000       0.104800000000000      -2.571600000000000E-002       
   0.000000000000000E+000                                                       
    37.0300000000000       0.283062000000000      -7.092400000000000E-002       
   0.000000000000000E+000                                                       
    13.2700000000000       0.448719000000000      -0.165411000000000            
   0.000000000000000E+000                                                       
    5.02500000000000       0.270952000000000      -0.116955000000000            
   0.000000000000000E+000                                                       
    1.01300000000000       1.545800000000000E-002  0.557368000000000            
   0.000000000000000E+000                                                       
   0.302300000000000      -2.585000000000000E-003  0.572759000000000            
    1.00000000000000                                                            
     4    2                                                                     
    17.7000000000000       4.301800000000000E-002  0.000000000000000E+000       
    3.85400000000000       0.228913000000000       0.000000000000000E+000       
    1.04600000000000       0.508728000000000       0.000000000000000E+000       
   0.275300000000000       0.460531000000000        1.00000000000000            
     1    1                                                                     
    1.18500000000000        1.00000000000000                                    
 FINISH                                                                         
 
    -------------------------------------------------------------------
 
 One- and two-electron integrals over symmetry-adapted AOs are calculated.

  Spherical harmonics are used.
  
  Integrals less than  0.10E-13 are neglected.

  Nuclear repulsion energy :    9.1183857278 a.u.
  required memory for a1 array                5013204  words 
  required memory for a2 array                2046060  words 
 basis number:   1     5
 basis number:   8    15
  @GETMEM-I,   Allocated      69 MB of main memory.
  @MOLECU-I, One electron integrals required         0.00000 seconds.
  @TWOEL-I,       2350 integrals of symmetry type  I I I I
  @TWOEL-I,       4467 integrals of symmetry type  I J I J
  @TWOEL-I,       2860 integrals of symmetry type  I I J J
  @TWOEL-I,       1735 integrals of symmetry type  I J K L
  @TWOEL-I, Total number of 2-e integrals      11412.
  @MOLECU-I, Two electron integrals required         0.04000 seconds.
  @CHECKOUT-I, Total execution time :       0.0500 seconds.
                0.00 seconds walltime passed
 --executable xvmol finished with status            0
 --invoking executable xvmol2ja
  @GETMEM-I,   Allocated    6675 MB of main memory.
  @CHECKOUT-I, Total execution time :       0.0000 seconds.
                0.00 seconds walltime passed
 --executable xvmol2ja finished with status            0
 --invoking executable xvscf
 NSOSCF                     0
  There are   24 functions in the AO basis.

  There are 4 irreducible representations.

       Irrep        # of functions
         1                 11
         2                  4
         3                  7
         4                  2


  Parameters for SCF calculation: 
        SCF reference function:  RHF  
  Maximum number of iterations:  150
     Full symmetry point group: C2v 
     Computational point group: C2v 
        Initial density matrix: MOREAD                 
     SCF convergence tolerance: 10**(- 9)
  DIIS convergence acceleration:  ON
          Latest start for DIIS:   8
                     DIIS order:   6

  Memory information:      62156 words required.
  Fock matrices are constructed from AO integral file.
  @GETMEM-I,   Allocated       0 MB of main memory.
  Initialization and symmetry analysis required      0.000 seconds.

  @INITGES-I, Occupancies from core Hamiltonian:

          Alpha population by irrep:   3    1    1    0
           Beta population by irrep:   3    1    1    0


 total no. of electrons in initial guess :  0.000000000000000E+000
  --------------------------------------------------------------------
  Iteration         Total Energy            Largest Density Difference
  --------------------------------------------------------------------
       0             9.118385727750661              0.0000000000D+00
   current occupation vector 
     3  1  1  0
     3  1  1  0
       1           -68.878290023485008              0.9704445954D+01
   current occupation vector 
     3  1  1  0
     3  1  1  0
       2           -69.891390605296451              0.9390224257D+01
   current occupation vector 
     3  0  2  0
     3  0  2  0
       3           -73.262528995260269              0.7296514669D+01
   current occupation vector 
     3  1  1  0
     3  1  1  0
       4           -73.376495688462413              0.3774483187D+01
   current occupation vector 
     4  0  1  0
     4  0  1  0
       5           -74.650955494742234              0.3247271340D+01
   current occupation vector 
     3  1  1  0
     3  1  1  0
       6           -75.488841158435520              0.2621213427D+01
   current occupation vector 
     3  1  1  0
     3  1  1  0
       7           -75.833726641462306              0.1488167828D+01
   current occupation vector 
     3  1  1  0
     3  1  1  0
       8           -75.958508526683460              0.9845012046D+00
   current occupation vector 
     3  1  1  0
     3  1  1  0
       9           -76.026134223615415              0.3305229511D+00
   current occupation vector 
     3  1  1  0
     3  1  1  0
      10           -76.026146088233489              0.4730098912D-02
   current occupation vector 
     3  1  1  0
     3  1  1  0
      11           -76.026147560513010              0.2060857985D-02
   current occupation vector 
     3  1  1  0
     3  1  1  0
      12           -76.026147600144483              0.3525045064D-03
   current occupation vector 
     3  1  1  0
     3  1  1  0
      13           -76.026147600488642              0.3435104000D-04
   current occupation vector 
     3  1  1  0
     3  1  1  0
      14           -76.026147600500110              0.5210153981D-05
   current occupation vector 
     3  1  1  0
     3  1  1  0
      15           -76.026147600500892              0.1546246063D-05
   current occupation vector 
     3  1  1  0
     3  1  1  0
      16           -76.026147600500821              0.3348295516D-06
   current occupation vector 
     3  1  1  0
     3  1  1  0
      17           -76.026147600500863              0.8960592379D-07
   current occupation vector 
     3  1  1  0
     3  1  1  0
      18           -76.026147600500835              0.1049207365D-07
   current occupation vector 
     3  1  1  0
     3  1  1  0
      19           -76.026147600500920              0.2473131477D-08
   current occupation vector 
     3  1  1  0
     3  1  1  0

  SCF has converged.

 save density matrix on hard disk
 total electron number:   10.0000000000000     
     E(SCF)=       -76.026147600500877              0.1880695599D-09

  Eigenvector printing suppressed.

 @PUTMOS-I, Writing converged MOs to NEWMOS. 
 @PUTMOS-I, Symmetry   1 Full   2 Partial   3
 @PUTMOS-I, Symmetry   2 Full   1 Partial   0
 @PUTMOS-I, Symmetry   3 Full   1 Partial   3
 @PUTMOS-I, Symmetry   4 Full   0 Partial   2
 @PUTMOS-I, NEWMOS already exists and will be deleted. 
  @DMPJOB-I, Rotating orbitals to semicanonical basis.
             *** Eigenvalues correspond to new basis. ***



 
  ORBITAL EIGENVALUES (ALPHA)  (1H = 27.2113838 eV)

       MO #        E(hartree)               E(eV)           FULLSYM    COMPSYM
       ----   --------------------   --------------------   -------   ---------
    1     1         -20.5533476559        -559.2850318417      A1        A1 (1)
    2     2          -1.3343764208         -36.3102289473      A1        A1 (1)
    3    16          -0.6898219389         -18.7710095470      B2        B2 (3)
    4     3          -0.5702184216         -15.5164323301      A1        A1 (1)
    5    12          -0.4934716789         -13.4280472598      B1        B1 (2)
  +++++++++++++++++++++++++++++++++++++++++++++++++++++++++++++++++++++++++++++
    6     4           0.1835737688           4.9952962819      A1        A1 (1)
    7    17           0.2552380358           6.9453801567      B2        B2 (3)
    8    18           0.7747426262          21.0818189637      B2        B2 (3)
    9     5           0.8575296304          23.3345679105      A1        A1 (1)
   10     6           1.1663994148          31.7393421641      A1        A1 (1)
   11    13           1.1995622331          32.6417483406      B1        B1 (2)
   12    19           1.2565570129          34.1926551694      B2        B2 (3)
   13     7           1.4219077674          38.6920780153      A1        A1 (1)
   14    23           1.4826051085          40.3437366595      A2        A2 (4)
   15    14           1.6587189528          45.1360380722      B1        B1 (2)
   16     8           1.8637521671          50.7152755635      A1        A1 (1)
   17    20           1.9404433576          52.8021489844      B2        B2 (3)
   18    21           2.4264973139          66.0283497467      B2        B2 (3)
   19     9           2.4737138500          67.3131770316      A1        A1 (1)
   20    15           3.2910113237          89.5529722839      B1        B1 (2)
   21    24           3.3208402738          90.3646592945      A2        A2 (4)
   22    10           3.5071000239          95.4330448445      A1        A1 (1)
   23    11           3.8392597478         104.4715705801      A1        A1 (1)
   24    22           4.1515432807         112.9692376548      B2        B2 (3)


  VSCF finished.

  @CHECKOUT-I, Total execution time :       0.0000 seconds.
                0.00 seconds walltime passed
 --executable xvscf finished with status            0
 --invoking executable xvtran
  @GETMEM-I,   Allocated    6675 MB of main memory.
  Full RHF integral transformation
  Transformation of IIII integrals :
  1 pass through the AO integral file was required.
        2350 AO integrals were read.
        2678 MO integrals were written to HF2.
  Transformation of IIJJ integrals :
  1 pass through the AO integral file was required.
        2860 AO integrals were read.
        3100 MO integrals were written to HF2.
  Transformation of IJIJ integrals :
  1 pass through the AO integral file was required.
        4467 AO integrals were read.
        4793 MO integrals were written to HF2.
  Transformation of IJKL integrals :
  1 pass through the AO integral file was required.
        1735 AO integrals were read.
        1848 MO integrals were written to HF2.
  Summary of active molecular orbitals: 
------------------------------------------------------------------------
 
  Index      Eigenvalue    Symmetry    Index      Eigenvalue    Symmetry
------------------------------------------------------------------------
     1       -20.5533477        1        13         3.8392597        1
     2        -1.3343764        1        14         1.1995622        2
     3        -0.5702184        1        15         1.6587190        2
     4        -0.4934717        2        16         3.2910113        2
     5        -0.6898219        3        17         0.2552380        3
     6         0.1835738        1        18         0.7747426        3
     7         0.8575296        1        19         1.2565570        3
     8         1.1663994        1        20         1.9404434        3
     9         1.4219078        1        21         2.4264973        3
    10         1.8637522        1        22         4.1515433        3
    11         2.4737138        1        23         1.4826051        4
    12         3.5071000        1        24         3.3208403        4
------------------------------------------------------------------------
  @CHECKOUT-I, Total execution time :       0.0000 seconds.
                0.00 seconds walltime passed
 --executable xvtran finished with status            0
 --invoking executable xintprc
  @GETMEM-I,   Allocated    6675 MB of main memory.
  @GMOIAA-I, Processing MO integrals for spin case AA.
  @GMOIAA-I, Generation of integral list completed.
                      TYPE                NUMBER
                      ----               --------
                      PPPP                  4957
                      PPPH                  4884
                      PPHH                  1277
                      PHPH                   832
                      PHHH                   420
                      HHHH                    49

                     TOTAL                 12419

  @FORMT2-I, Second-order MP correlation energies:
              ----------------------------------------------
              E(SCF)                =  -76.026147600501 a.u.
              E2(AA)                =   -0.025847123038 a.u.
              E2(AB)                =   -0.153142783276 a.u.
              E2(TOT)               =   -0.204837029352 a.u.
              Total MP2 energy      =  -76.230984629852 a.u.
              ----------------------------------------------
   Largest T2 amplitudes for spin case AB:
       _       _                 _       _                 _       _
   i   j   a   b             i   j   a   b             i   j   a   b
-----------------------------------------------------------------------------
[  4   4  14  14]-0.04720 [  3   3   8   8]-0.03188 [  5   5  18  18]-0.03034
[  4   3  14   8] 0.02882 [  3   4   8  14] 0.02882 [  5   5  17  17]-0.02736
[  5   4  19  14] 0.02344 [  4   5  14  19] 0.02344 [  4   5  14  17]-0.02338
[  5   4  17  14]-0.02338 [  5   5   7   7]-0.02273 [  3   3  18  18]-0.02191
[  5   5  19  19]-0.02172 [  5   3  17   8] 0.01876 [  3   5   8  17] 0.01876
-----------------------------------------------------------------------------
   Norm of T2AB vector (     2459 symmetry allowed elements):  0.1949885506.
-----------------------------------------------------------------------------
  @CHECKOUT-I, Total execution time :       0.0100 seconds.
                0.00 seconds walltime passed
 --executable xintprc finished with status            0
 54                     3
 --invoking executable xvcc
  @GETMEM-I,   Allocated    6675 MB of main memory.
   CCSD(T) energy will be calculated.
   The total correlation energy is -0.204837029352 a.u.
   The total correlation energy is -0.209650884652 a.u.
  Convergence information after     1 iterations: 
  Largest element of residual vector : -0.61228083E-02.
  Largest element of DIIS residual   : -0.61228083E-02.
   The total correlation energy is -0.212935263064 a.u.
  Convergence information after     2 iterations: 
  Largest element of residual vector : -0.18767225E-02.
  Largest element of DIIS residual   : -0.22159198E-02.
   The total correlation energy is -0.213824209777 a.u.
  Convergence information after     3 iterations: 
  Largest element of residual vector :  0.93259494E-03.
  Largest element of DIIS residual   :  0.79968918E-03.
   The total correlation energy is -0.214113053320 a.u.
  Convergence information after     4 iterations: 
  Largest element of residual vector :  0.15775742E-03.
  Largest element of DIIS residual   :  0.96195071E-04.
   The total correlation energy is -0.214131244587 a.u.
  Convergence information after     5 iterations: 
  Largest element of residual vector :  0.12262080E-03.
  Largest element of DIIS residual   :  0.78056752E-04.
   The total correlation energy is -0.214134074845 a.u.
  Convergence information after     6 iterations: 
  Largest element of residual vector :  0.42172662E-04.
  Largest element of DIIS residual   :  0.17493896E-04.
   The total correlation energy is -0.214133393820 a.u.
  Convergence information after     7 iterations: 
  Largest element of residual vector :  0.15784213E-04.
  Largest element of DIIS residual   :  0.40618694E-05.
   The total correlation energy is -0.214133567207 a.u.
  Convergence information after     8 iterations: 
  Largest element of residual vector :  0.22662193E-05.
  Largest element of DIIS residual   :  0.77008856E-06.
   The total correlation energy is -0.214133541738 a.u.
  Convergence information after     9 iterations: 
  Largest element of residual vector :  0.39581520E-06.
  Largest element of DIIS residual   : -0.20571326E-06.
  Amplitude equations converged in     9iterations.
   The total correlation energy is -0.214133550255 a.u.
   The CC iterations have converged.

   Largest T1 amplitudes for spin case AA:
   i       a                 i       a                 i       a    
-----------------------------------------------------------------------------
[  3       6    ] 0.00769 [  5      21    ]-0.00747 [  5      17    ] 0.00604
[  3      11    ]-0.00518 [  5      19    ] 0.00489 [  2       8    ] 0.00431
[  2       6    ] 0.00360 [  4      15    ] 0.00339 [  4      14    ] 0.00322
[  3       7    ] 0.00312 [  3       9    ] 0.00296 [  2      11    ]-0.00274
[  5      18    ] 0.00205 [  2      10    ] 0.00153 [  3      10    ] 0.00139
-----------------------------------------------------------------------------
   Norm of T1AA vector (       33 symmetry allowed elements):  0.0170740984.
-----------------------------------------------------------------------------
   Largest T2 amplitudes for spin case AB:
       _       _                 _       _                 _       _
   i   j   a   b             i   j   a   b             i   j   a   b
-----------------------------------------------------------------------------
[  4   4  14  14]-0.05141 [  5   5  18  18]-0.03639 [  3   3   8   8]-0.03439
[  5   5  17  17]-0.03067 [  4   3  14   8] 0.02811 [  3   4   8  14] 0.02811
[  5   5   7   7]-0.02752 [  3   3  18  18]-0.02591 [  5   4  19  14] 0.02297
[  4   5  14  19] 0.02297 [  5   5  19  19]-0.02230 [  5   4  17  14]-0.02201
[  4   5  14  17]-0.02201 [  5   5  18  17]-0.02169 [  5   5  17  18]-0.02169
-----------------------------------------------------------------------------
   Norm of T2AB vector (     2459 symmetry allowed elements):  0.2174860806.
-----------------------------------------------------------------------------
       Summary of iterative solution of CC equations 
      -----------------------------------------------------------
                       Correlation           Total
       Iteration         Energy              Energy
      -----------------------------------------------------------
            0        -0.204837029352     -76.230984629852  DIIS 
            1        -0.209650884652     -76.235798485153  DIIS 
            2        -0.212935263064     -76.239082863565  DIIS 
            3        -0.213824209777     -76.239971810278  DIIS 
            4        -0.214113053320     -76.240260653821  DIIS 
            5        -0.214131244587     -76.240278845088  DIIS 
            6        -0.214134074845     -76.240281675345  DIIS 
            7        -0.214133393820     -76.240280994321  DIIS 
            8        -0.214133567207     -76.240281167707  DIIS 
            9        -0.214133550255     -76.240281150756  DIIS 
      -----------------------------------------------------------
      A miracle has come to pass. The CC iterations have converged.
        E(CCSD)           =     -76.240281150756
        E(CCSD + T(CCSD)) =     -76.243493841259
        E(CCSD(T))        =     -76.243404938886
  @CHECKOUT-I, Total execution time :       0.1000 seconds.
 --executable xvcc finished with status            0
 54 done                     3
 --invoking executable xlambda
  @GETMEM-I,   Allocated    6675 MB of main memory.
  The Lambda equations are solved for CCSD(T).
  Initial lambda amplitudes: 
  Convergence information after     1 iterations: 
  Largest element of residual vector : -0.26632038E-02.
  Largest element of DIIS residual   : -0.26632038E-02.
  Convergence information after     2 iterations: 
  Largest element of residual vector :  0.88705906E-03.
  Largest element of DIIS residual   :  0.56535343E-03.
  Convergence information after     3 iterations: 
  Largest element of residual vector :  0.22374566E-03.
  Largest element of DIIS residual   : -0.88171193E-04.
  Convergence information after     4 iterations: 
  Largest element of residual vector :  0.67786469E-04.
  Largest element of DIIS residual   :  0.58684546E-04.
  Convergence information after     5 iterations: 
  Largest element of residual vector :  0.36248782E-04.
  Largest element of DIIS residual   :  0.17406108E-04.
  Convergence information after     6 iterations: 
  Largest element of residual vector :  0.13655659E-04.
  Largest element of DIIS residual   :  0.55032768E-05.
  Convergence information after     7 iterations: 
  Largest element of residual vector :  0.45031117E-05.
  Largest element of DIIS residual   : -0.12722147E-05.
  Convergence information after     8 iterations: 
  Largest element of residual vector : -0.60003704E-06.
  Largest element of DIIS residual   : -0.14123651E-06.
  Convergence information after     9 iterations: 
  Largest element of residual vector : -0.10813193E-06.
  Largest element of DIIS residual   :  0.42089697E-07.
  Amplitude equations converged in     9 iterations.
      The lambda equations have converged.
  @CHECKOUT-I, Total execution time :       0.0500 seconds.
 --executable xlambda finished with status            0
 --invoking executable xdens
  @GETMEM-I,   Allocated    6675 MB of main memory.
  CCSD(T) density and intermediates are calculated.
  The perturbed orbitals are chosen canonical.
  The iterative expansion of D(ai) converged after  16 iterations.
  ----------------------------------------------------------------------
                 Natural orbital occupation numbers
  ----------------------------------------------------------------------
  1.99992  1.98408  1.97194  1.96444  1.96146  0.02910  0.02650  0.01754
  0.01168  0.00623  0.00586  0.00529  0.00467  0.00455  0.00134  0.00125
  0.00082  0.00079  0.00074  0.00060  0.00057  0.00053  0.00007  0.00005
  Trace of density matrix :  10.0000000000.
  ----------------------------------------------------------------------
  Density calculation successfully completed.
  @CHECKOUT-I, Total execution time :       0.0100 seconds.
                0.00 seconds walltime passed
 --executable xdens finished with status            0
 --invoking executable xanti
  @GETMEM-I,   Allocated    6675 MB of main memory.
 CCSD(T) MO gammas will be sorted to Mulliken order.
  @CHECKOUT-I, Total execution time :       0.0000 seconds.
                0.00 seconds walltime passed
 --executable xanti finished with status            0
 --invoking executable xbcktrn
  @GETMEM-I,   Allocated    6675 MB of main memory.
  @CHECKOUT-I, Total execution time :       0.0000 seconds.
                0.00 seconds walltime passed
 --executable xbcktrn finished with status            0
 --invoking executable xvdint
  @GETMEM-I,   Allocated    6675 MB of main memory.
 One- and two-electron integral derivatives are calculated
 for RHF-CC/MBPT gradients and dipole moments.
 Spherical gaussians are used.

                     Kinetic energy integral gradient
                     --------------------------------

                         H #1 y     1.1379981488
                         H #1 z    -0.9067490020
                         O #2 z     0.9067490020


 H #1 1     0.0000000000            0.5689990744           -0.4533745010
 H #1 2     0.0000000000           -0.5689990744           -0.4533745010
 O #2       0.0000000000            0.0000000000            0.9067490020



                   Nuclear attraction integral gradient
                   ------------------------------------

                         H #1 y   -10.7679980532
                         H #1 z     8.5465948771
                         O #2 z    -8.5465948771


 H #1 1     0.0000000000           -5.3839990266            4.2732974385
 H #1 2     0.0000000000            5.3839990266            4.2732974385
 O #2       0.0000000000            0.0000000000           -8.5465948771



                      Reorthonormalization gradient
                      -----------------------------

                         H #1 y     0.5533265320
                         H #1 z    -0.4786969553
                         O #2 z     0.4786969553


 H #1 1     0.0000000000            0.2766632660           -0.2393484777
 H #1 2     0.0000000000           -0.2766632660           -0.2393484777
 O #2       0.0000000000            0.0000000000            0.4786969553



                Electronic contributions to dipole moment
                -----------------------------------------

                               au             Debye

                    z     -0.23641767     -0.60091388

  Conversion factor used: 1 a.u. =   2.54174691 Debye 


  Evaluation of 1e integral derivatives required    0.00 seconds.
  Evaluation of 2el integral derivatives

                      Two-electron integral gradient
                      ------------------------------

                         H #1 y     5.0967392655
                         H #1 z    -4.1372598446
                         O #2 z     4.1372598446


 H #1 1     0.0000000000            2.5483696327           -2.0686299223
 H #1 2     0.0000000000           -2.5483696327           -2.0686299223
 O #2       0.0000000000            0.0000000000            4.1372598446


  Evaluation of 2e integral derivatives required    0.02 seconds.

                            Molecular gradient
                            ------------------

                         H #1 y    -0.0002798381
                         H #1 z     0.0001432181
                         O #2 z    -0.0001432181


 H #1 1     0.0000000000           -0.0001399191            0.0000716090
 H #1 2     0.0000000000            0.0001399191            0.0000716090
 O #2       0.0000000000            0.0000000000           -0.0001432181


  Molecular gradient norm 0.345E-03

                           Total dipole moment
                           -------------------

                               au             Debye

                    z      0.77589499      1.97212868

  Conversion factor used: 1 a.u. =   2.54174691 Debye 


  @CHECKOUT-I, Total execution time :       0.0200 seconds.
                0.25 seconds walltime passed
 --executable xvdint finished with status            0
 --invoking executable xsymcor
  @GETMEM-I,   Allocated    6675 MB of main memory.
  current energy   -76.2434049388862     
  there are                      1  more gradients 
  @CHECKOUT-I, Total execution time :       0.0000 seconds.
 --executable xsymcor finished with status            0
 --invoking executable xjoda
  @GETXYZ-I,     3 atoms read from ZMAT.
  1  H          1     1.00783
  2  O          8    15.99491
  3  H          1     1.00783
  1  H          1     1.00783
  2  O          8    15.99491
  3  H          1     1.00783
   Rotational constants (in cm-1): 
          9.3812826854            14.8596796763            25.4459207479
   Rotational constants (in MHz): 
     281243.8189456102        445482.0519371082        762849.6195828208
********************************************************************************
   The full molecular point group is C2v .
   The largest Abelian subgroup of the full molecular point group is C2v .
   The computational point group is C2v .
********************************************************************************
  There are   24 basis functions.
 @GEOPT-W, Archive file not created for single-point calculation.
                0.00 seconds walltime passed
 --executable xjoda finished with status            0
 --invoking executable xvmol
 Serial version of molecule started
 
    -------------------------------------------------------------------
                    Input from MOL file
    -------------------------------------------------------------------
 INTGRL        1    0    1    0    0    0    0    0    0                        
          *** CFOUR Program System (Release V0.1) ***                           
 MIN4                                                                           
     2    2 X  Y       0.10E-08              0    0                             
    9999.00      3.00                                                           
           1.00000000    1    2    1    1                                       
 H #1   0.000000000000000  -1.417701970000000   1.020958007858810               
     4    2                                                                     
    13.0100000000000       1.968500000000000E-002  0.000000000000000E+000       
    1.96200000000000       0.137977000000000       0.000000000000000E+000       
   0.444600000000000       0.478148000000000       0.000000000000000E+000       
   0.122000000000000       0.501240000000000        1.00000000000000            
     1    1                                                                     
[...]
   Largest T2 amplitudes for spin case AB:
       _       _                 _       _                 _       _
   i   j   a   b             i   j   a   b             i   j   a   b
-----------------------------------------------------------------------------
[  5   5  20  20]-0.04720 [  4   4  10  10]-0.03187 [  3   3   8   8]-0.03033
[  4   5  10  20] 0.02881 [  5   4  20  10] 0.02881 [  3   3   7   7]-0.02735
[  5   3  20  11] 0.02344 [  3   5  11  20] 0.02344 [  5   3  20   7]-0.02338
[  3   5   7  20]-0.02338 [  3   3   9   9]-0.02273 [  4   4   8   8]-0.02191
[  3   3  11  11]-0.02172 [  4   3  10   7] 0.01875 [  3   4   7  10] 0.01875
-----------------------------------------------------------------------------
   Norm of T2AB vector (     4877 symmetry allowed elements):  0.1949729235.
-----------------------------------------------------------------------------
  @CHECKOUT-I, Total execution time :       0.0100 seconds.
                0.00 seconds walltime passed
 --executable xintprc finished with status            0
 54                     3
 --invoking executable xvcc
  @GETMEM-I,   Allocated    6675 MB of main memory.
   CCSD(T) energy will be calculated.
   The total correlation energy is -0.204828516605 a.u.
   The total correlation energy is -0.209643641814 a.u.
  Convergence information after     1 iterations: 
  Largest element of residual vector : -0.61209164E-02.
  Largest element of DIIS residual   : -0.61209164E-02.
   The total correlation energy is -0.212926971133 a.u.
  Convergence information after     2 iterations: 
  Largest element of residual vector : -0.18759003E-02.
  Largest element of DIIS residual   : -0.22150621E-02.
   The total correlation energy is -0.213815607324 a.u.
  Convergence information after     3 iterations: 
  Largest element of residual vector :  0.93166121E-03.
  Largest element of DIIS residual   :  0.79890568E-03.
   The total correlation energy is -0.214104253123 a.u.
  Convergence information after     4 iterations: 
  Largest element of residual vector :  0.15746524E-03.
  Largest element of DIIS residual   :  0.96027609E-04.
   The total correlation energy is -0.214122430929 a.u.
  Convergence information after     5 iterations: 
  Largest element of residual vector :  0.12243556E-03.
  Largest element of DIIS residual   :  0.77955648E-04.
   The total correlation energy is -0.214125258760 a.u.
  Convergence information after     6 iterations: 
  Largest element of residual vector :  0.42112838E-04.
  Largest element of DIIS residual   :  0.17477992E-04.
   The total correlation energy is -0.214124579079 a.u.
  Convergence information after     7 iterations: 
  Largest element of residual vector :  0.15766471E-04.
  Largest element of DIIS residual   :  0.40600021E-05.
   The total correlation energy is -0.214124752189 a.u.
  Convergence information after     8 iterations: 
  Largest element of residual vector :  0.22644592E-05.
  Largest element of DIIS residual   :  0.76913470E-06.
   The total correlation energy is -0.214124726754 a.u.
  Convergence information after     9 iterations: 
  Largest element of residual vector :  0.39555654E-06.
  Largest element of DIIS residual   : -0.20559044E-06.
  Amplitude equations converged in     9iterations.
   The total correlation energy is -0.214124735263 a.u.
   The CC iterations have converged.

   Largest T1 amplitudes for spin case AA:
   i       a                 i       a                 i       a    
-----------------------------------------------------------------------------
[  4       6    ] 0.00769 [  3      15    ]-0.00747 [  3       7    ] 0.00604
[  4      16    ]-0.00518 [  3      11    ] 0.00489 [  2      10    ] 0.00430
[  2       6    ] 0.00360 [  5      22    ] 0.00339 [  5      20    ] 0.00322
[  4       9    ] 0.00312 [  4      12    ] 0.00296 [  2      16    ]-0.00274
[  3       8    ] 0.00205 [  2      13    ] 0.00153 [  4      13    ] 0.00139
-----------------------------------------------------------------------------
   Norm of T1AA vector (       61 symmetry allowed elements):  0.0170680731.
-----------------------------------------------------------------------------
   Largest T2 amplitudes for spin case AB:
       _       _                 _       _                 _       _
   i   j   a   b             i   j   a   b             i   j   a   b
-----------------------------------------------------------------------------
[  5   5  20  20]-0.05141 [  3   3   8   8]-0.03639 [  4   4  10  10]-0.03439
[  3   3   7   7]-0.03065 [  5   4  20  10] 0.02810 [  4   5  10  20] 0.02810
[  3   3   9   9]-0.02751 [  4   4   8   8]-0.02591 [  5   3  20  11] 0.02297
[  3   5  11  20] 0.02297 [  3   3  11  11]-0.02231 [  5   3  20   7]-0.02201
[  3   5   7  20]-0.02201 [  3   3   8   7]-0.02168 [  3   3   7   8]-0.02168
-----------------------------------------------------------------------------
   Norm of T2AB vector (     4877 symmetry allowed elements):  0.2174644864.
-----------------------------------------------------------------------------
       Summary of iterative solution of CC equations 
      -----------------------------------------------------------
                       Correlation           Total
       Iteration         Energy              Energy
      -----------------------------------------------------------
            0        -0.204828516605     -76.230985444781  DIIS 
            1        -0.209643641814     -76.235800569990  DIIS 
            2        -0.212926971133     -76.239083899309  DIIS 
            3        -0.213815607324     -76.239972535499  DIIS 
            4        -0.214104253123     -76.240261181298  DIIS 
            5        -0.214122430929     -76.240279359105  DIIS 
            6        -0.214125258760     -76.240282186935  DIIS 
            7        -0.214124579079     -76.240281507255  DIIS 
            8        -0.214124752189     -76.240281680364  DIIS 
            9        -0.214124735263     -76.240281663439  DIIS 
      -----------------------------------------------------------
      A miracle has come to pass. The CC iterations have converged.
        E(CCSD)           =     -76.240281663439
        E(CCSD + T(CCSD)) =     -76.243493783239
        E(CCSD(T))        =     -76.243404914824
  @CHECKOUT-I, Total execution time :       0.2000 seconds.
 --executable xvcc finished with status            0
 54 done                     3
 --invoking executable xlambda
  @GETMEM-I,   Allocated    6675 MB of main memory.
  The Lambda equations are solved for CCSD(T).
  Initial lambda amplitudes: 
  Convergence information after     1 iterations: 
  Largest element of residual vector : -0.26640848E-02.
  Largest element of DIIS residual   : -0.26640848E-02.
  Convergence information after     2 iterations: 
  Largest element of residual vector :  0.88681694E-03.
  Largest element of DIIS residual   :  0.56500597E-03.
  Convergence information after     3 iterations: 
  Largest element of residual vector :  0.22363642E-03.
  Largest element of DIIS residual   : -0.88117130E-04.
  Convergence information after     4 iterations: 
  Largest element of residual vector :  0.67725651E-04.
  Largest element of DIIS residual   :  0.58637468E-04.
  Convergence information after     5 iterations: 
  Largest element of residual vector :  0.36216718E-04.
  Largest element of DIIS residual   :  0.17390760E-04.
  Convergence information after     6 iterations: 
  Largest element of residual vector :  0.13643535E-04.
  Largest element of DIIS residual   :  0.54998984E-05.
  Convergence information after     7 iterations: 
  Largest element of residual vector :  0.44995061E-05.
  Largest element of DIIS residual   : -0.12712428E-05.
  Convergence information after     8 iterations: 
  Largest element of residual vector : -0.59953485E-06.
  Largest element of DIIS residual   : -0.14116258E-06.
  Convergence information after     9 iterations: 
  Largest element of residual vector : -0.10808067E-06.
  Largest element of DIIS residual   :  0.42051351E-07.
  Amplitude equations converged in     9 iterations.
      The lambda equations have converged.
  @CHECKOUT-I, Total execution time :       0.0900 seconds.
 --executable xlambda finished with status            0
 --invoking executable xdens
  @GETMEM-I,   Allocated    6675 MB of main memory.
  CCSD(T) density and intermediates are calculated.
  The perturbed orbitals are chosen canonical.
  The iterative expansion of D(ai) converged after  17 iterations.
  ----------------------------------------------------------------------
                 Natural orbital occupation numbers
  ----------------------------------------------------------------------
  1.99992  1.98408  1.97194  1.96445  1.96147  0.02909  0.02649  0.01754
  0.01168  0.00623  0.00586  0.00529  0.00467  0.00455  0.00134  0.00125
  0.00082  0.00079  0.00074  0.00060  0.00057  0.00053  0.00007  0.00005
  Trace of density matrix :  10.0000000000.
  ----------------------------------------------------------------------
  Density calculation successfully completed.
  @CHECKOUT-I, Total execution time :       0.0300 seconds.
                0.25 seconds walltime passed
 --executable xdens finished with status            0
 --invoking executable xanti
  @GETMEM-I,   Allocated    6675 MB of main memory.
 CCSD(T) MO gammas will be sorted to Mulliken order.
  @CHECKOUT-I, Total execution time :       0.0100 seconds.
                0.00 seconds walltime passed
 --executable xanti finished with status            0
 --invoking executable xbcktrn
  @GETMEM-I,   Allocated    6675 MB of main memory.
  @CHECKOUT-I, Total execution time :       0.0000 seconds.
                0.00 seconds walltime passed
 --executable xbcktrn finished with status            0
 --invoking executable xvdint
  @GETMEM-I,   Allocated    6675 MB of main memory.
 One- and two-electron integral derivatives are calculated
 for RHF-CC/MBPT gradients and dipole moments.
 Spherical gaussians are used.

                     Kinetic energy integral gradient
                     --------------------------------

                         H #1 x     0.5689801298
                         H #1 y    -0.4542126672
                         O #2 x     0.0002424457
                         O #2 y     0.9072180675
                         H #3 x    -0.5692225754
                         H #3 y    -0.4530054003


 H #1       0.5689801298           -0.4542126672            0.0000000000
 O #2       0.0002424457            0.9072180675            0.0000000000
 H #3      -0.5692225754           -0.4530054003            0.0000000000



                   Nuclear attraction integral gradient
                   ------------------------------------

                         H #1 x    -5.3824283723
                         H #1 y     4.2800464281
                         O #2 x    -0.0039336408
                         O #2 y    -8.5500317690
                         H #3 x     5.3863620130
                         H #3 y     4.2699853409


 H #1      -5.3824283723            4.2800464281            0.0000000000
 O #2      -0.0039336408           -8.5500317690            0.0000000000
 H #3       5.3863620130            4.2699853409            0.0000000000



                      Reorthonormalization gradient
                      -----------------------------

                         H #1 x     0.2765389368
                         H #1 y    -0.2396790052
                         O #2 x     0.0002741880
                         O #2 y     0.4788617088
                         H #3 x    -0.2768131248
                         H #3 y    -0.2391827035


 H #1       0.2765389368           -0.2396790052            0.0000000000
 O #2       0.0002741880            0.4788617088            0.0000000000
 H #3      -0.2768131248           -0.2391827035            0.0000000000



                Electronic contributions to dipole moment
                -----------------------------------------

                               au             Debye

                    x     -0.00036195     -0.00092000
                    y     -0.23637059     -0.60079422

  Conversion factor used: 1 a.u. =   2.54174691 Debye 


  Evaluation of 1e integral derivatives required    0.00 seconds.
  Evaluation of 2el integral derivatives

                      Two-electron integral gradient
                      ------------------------------

                         H #1 x     2.5471674142
                         H #1 y    -2.0716775110
                         O #2 x     0.0023743244
                         O #2 y     4.1388449613
                         H #3 x    -2.5495417386
                         H #3 y    -2.0671674503


 H #1       2.5471674142           -2.0716775110            0.0000000000
 O #2       0.0023743244            4.1388449613            0.0000000000
 H #3      -2.5495417386           -2.0671674503            0.0000000000


  Evaluation of 2e integral derivatives required    0.03 seconds.

                            Molecular gradient
                            ------------------

                         H #1 x     0.0001559909
                         H #1 y    -0.0001258141
                         O #2 x    -0.0003109206
                         O #2 y    -0.0000004161
                         H #3 x     0.0001549297
                         H #3 y     0.0001262302


 H #1       0.0001559909           -0.0001258141            0.0000000000
 O #2      -0.0003109206           -0.0000004161            0.0000000000
 H #3       0.0001549297            0.0001262302            0.0000000000


  Molecular gradient norm 0.420E-03

                           Total dipole moment
                           -------------------

                               au             Debye

                    x      0.00063285      0.00160855
                    y      0.77594161      1.97224718

  Conversion factor used: 1 a.u. =   2.54174691 Debye 


  @CHECKOUT-I, Total execution time :       0.0300 seconds.
                0.00 seconds walltime passed
 --executable xvdint finished with status            0
 --invoking executable xsymcor
  @GETMEM-I,   Allocated    6675 MB of main memory.
  current energy   -76.2434049148242     
  there are                      0  more gradients 
  Vibrational frequencies  (cm-1) :
      1 1691.62162    54.04297
      2 3824.93426     3.25330
  Vibrational frequencies  (cm-1) :
      1 3931.30176    19.56669
  @CHECKOUT-I, Total execution time :       0.0000 seconds.
 --executable xsymcor finished with status            0
 --invoking executable xjoda
  @GETXYZ-I,     3 atoms read from ZMAT.
  1  H          1     1.00783
  2  O          8    15.99491
  3  H          1     1.00783
  1  H          1     1.00783
  2  O          8    15.99491
  3  H          1     1.00783
   Rotational constants (in cm-1): 
          9.3835314895            14.8596796763            25.4624724182
   Rotational constants (in MHz): 
     281311.2364057262        445482.0519371080        763345.8262442052
********************************************************************************
   The full molecular point group is C2v .
   The largest Abelian subgroup of the full molecular point group is C2v .
   The computational point group is C2v .
********************************************************************************
 @GEOPT-W, Archive file not created for single-point calculation.
  @PROJFCM-I, Projecting force constant matrix onto totally symmetric subspace.
  Largest difference between matrix elements of symmetrized
  and unsymmetrized FCM : .5551115123E-16.
  masses used (in AMU) in vibrational analysis: 
   1.007825035     15.994914630      1.007825035
                     Normal Coordinate Analysis
  ----------------------------------------------------------------
    Irreducible         Harmonic       Infrared        Type 
   Representation       Frequency      Intensity 
  ----------------------------------------------------------------
                       (cm-1)         (km/mol)
  ----------------------------------------------------------------
      ----                 0.0000i        0.0000       --------- 
      ----                 0.0000i        0.0000       --------- 
      ----                 0.0000         0.0000       --------- 
      ----                 0.0000         0.0000       --------- 
      ----                 0.0000         0.0000       --------- 
      ----                 0.0001         0.0000       --------- 
        A1              1691.6239        54.0430       VIBRATION 
        A1              3824.9395         3.2533       VIBRATION 
        B2              3931.3071        19.5667       VIBRATION 
  ----------------------------------------------------------------
 
 
                                   Normal Coordinates 

                A1                        A1                        B2
              1691.62                   3824.94                   3931.31 
             VIBRATION                 VIBRATION                 VIBRATION 
 H     -0.000 0.4209  0.5354    0.0000  0.5682 -0.3967    0.0000  0.5295 -0.4293
 O     -0.000-0.0000 -0.2688   -0.0000 -0.0000  0.1991    0.0000 -0.2658 -0.0000
 H      0.000-0.4209  0.5354   -0.0000 -0.5682 -0.3967   -0.0000  0.5295  0.4293
  ----------------------------------------------------------------
                    Dipole Moment Function
                   (Normal Coordinate Basis)
  ----------------------------------------------------------------
    Mode     Symmetry    d(Mu(x))/dQ   d(Mu(y))/dQ   d(Mu(z))/dQ
  ----------------------------------------------------------------
     Q7          A1        0.000000      0.000000      0.235449
     Q8          A1        0.000000      0.000000     -0.057768
     Q9          B2        0.000000      0.141673      0.000000
  ----------------------------------------------------------------
---------------------------------------------------------------------------
------------------------------------------------------------
        Parameter                (MHz)                 (CM-1)
------------------------------------------------------------
 
           R6                -.327468E+01           -.109232E-03
           R5                0.282715E+02           0.943035E-03
           SI                            0.486911E+01
 
  A-reduced centrifugal distortion parameters 
 
           DJ                0.298855E+02           0.996874E-03
           DK                0.568250E+03           0.189548E-01
           DJK               -.103491E+03           -.345210E-02
           DELJ              0.364349E+02           0.121534E-02
           DELK              0.600996E+03           0.200471E-01
           DELJK             -.142788E+03           -.476288E-02
           delJ              0.148281E+02           0.494611E-03
           delK              0.723611E+01           0.241371E-03
 
  S-reduced centrifugal distortion parameters 
 
           DJ                0.356918E+02           0.119055E-02
           DK                0.597281E+03           0.199232E-01
           DJK               -.138329E+03           -.461416E-02
           D1                -.148281E+02           -.494611E-03
           D2                -.371532E+00           -.123930E-04
------------------------------------------------------------
   Vibrational frequencies after rotational projection  of 
   Cartesian force constants: 
            1               0.0000i
            2               0.0000i
            3               0.0000i
            4               0.0000 
            5               0.0000 
            6               0.0000 
            7            1691.6239 
            8            3824.9395 
            9            3931.3071 
  Zero-point vibrational energy:   13.5064 kcal/mol =   56.5108 kJ/mol.
                0.00 seconds walltime passed
 --executable xjoda finished with status            0
