
 Primary working directories    : /tmp/333988.2.gen4.q
 Secondary working directories  : /tmp/333988.2.gen4.q
 Wavefunction directory         : /home/vulcan/mel64643/wfu/
 Main file repository           : /tmp/333988.2.gen4.q/

 ARCHNAME  : Linux/x86_64
 FC        : /opt/intel/compilers_and_libraries_2016.1.150/linux/bin/intel64/ifort
 FCVERSION : 16.0.1
 BLASLIB   : -mkl
 id        : ccgc

 Nodes     nprocs
 n059         3
 Number of processes for MPI-2 version of Molpro:   nprocs(total)=    4   nprocs(compute)=    3   nprocs(helper)=    1
 ga_uses_ma=false, calling ma_init with nominal heap.
 GA-space will be limited to   8.0 MW (determined by -G option)

 Using customized tuning parameters: mindgm=10; mindgv=16; mindgc=4; mindgr=1; noblas=0; mincuda=1000; minvec=7
 default implementation of scratch files=sf  

 ***,Optimization of min3
 memory,1000,m
 gthresh,energy=1.0d-10,orbital=1.0d-10,oneint=1.0d-16,twoint=1.0d-16,optgrad=1.0d-6,compress=1.0d-13
 geomtyp=xyz
 
  bohr
  geometry = {
  12
  arbitrary comment
  C         -3.0995201705          1.5876547788          0.0162854003
  C         -0.8628615462         -0.0730449231         -0.6538782669
  C         -1.1226968282         -2.7815385159          0.2481144512
  O          1.3118454463          1.0986954750          0.5964654226
  O          3.4503700595          0.1280747455         -0.2590529295
  H         -4.8019087613          0.8502277464         -0.8837847612
  H         -2.8002824634          3.5234686323         -0.6233768866
  H         -3.3956361285          1.6007130575          2.0581916969
  H         -0.4532548741         -0.0071336406         -2.6738333418
  H         -2.7001461043         -3.6929500558         -0.7203834577
  H         -1.4822369408         -2.8250628848          2.2800299465
  H          0.6008084207         -3.8338939827         -0.1543715575
 }
 
 basis=cc-pvtz
 {rhf;maxit,200}
 {uccsd(t);maxit,200}

 Variables initialized (661), CPU time= 0.00 sec
 Commands  initialized (458), CPU time= 0.00 sec, 486 directives.
 Default parameters read. Elapsed time= 0.04 sec

 Checking input...
 Passed
1


                                         ***  PROGRAM SYSTEM MOLPRO  ***
                         Copyright, University College Cardiff Consultants Limited, 2008

                                    Version 2010.1 linked May 16 2016 07:17:05


 **********************************************************************************************************************************
 LABEL *   Optimization of min3                                                          
 Linux-4.4.3/n059(x86_64) 64 bit mpp version                                             DATE: 15-Jul-20          TIME: 01:47:23  
 **********************************************************************************************************************************

 SHA1:             9e8077add272b0f3cad6f7df79ec5211205f459d
 **********************************************************************************************************************************

 THRESHOLDS:

 ZERO    =  1.00D-12  ONEINT  =  1.00D-16  TWOINT  =  1.00D-16  PREFAC  =  1.00D-14  LOCALI  =  1.00D-09  EORDER  =  1.00D-04
 ENERGY  =  1.00D-10  ETEST   =  0.00D+00  EDENS   =  0.00D+00  THRDEDEF=  1.00D-06  GRADIENT=  1.00D-02  STEP    =  1.00D-03
 ORBITAL =  1.00D-10  CIVEC   =  1.00D-05  COEFF   =  1.00D-04  PRINTCI =  5.00D-02  PUNCHCI =  9.90D+01  OPTGRAD =  1.00D-06
 OPTENERG=  1.00D-06  OPTSTEP =  3.00D-04  THRGRAD =  1.00D-10  COMPRESS=  1.00D-13  VARMIN  =  1.00D-07  VARMAX  =  1.00D-03
 THRDOUB =  0.00D+00  THRDIV  =  1.00D-05  THRRED  =  1.00D-07  THRPSP  =  1.00D+00  THRDC   =  1.00D-10  THRCS   =  1.00D-10
 THRNRM  =  1.00D-08  THREQ   =  0.00D+00  THRDE   =  1.00D+00  THRREF  =  1.00D-05  SPARFAC =  1.00D+00  THRDLP  =  1.00D-07
 THRDIA  =  1.00D-10  THRDLS  =  1.00D-07  THRGPS  =  0.00D+00  THRKEX  =  0.00D+00  THRDIS  =  2.00D-01  THRVAR  =  1.00D-10
 THRLOC  =  1.00D-06  THRGAP  =  1.00D-06  THRLOCT = -1.00D+00  THRGAPT = -1.00D+00  THRORB  =  1.00D-06  THRMLTP =  0.00D+00
 THRCPQCI=  1.00D-10  KEXTA   =  0.00D+00  THRCOARS=  0.00D+00  SYMTOL  =  1.00D-06  GRADTOL =  1.00D-06  THROVL  =  1.00D-08
 THRORTH =  1.00D-08  GRID    =  1.00D-06  GRIDMAX =  1.00D-03  DTMAX   =  0.00D+00

 SETTING GEOMTYP        =    XYZ
 ZUNIT=BOHR
 

 Variable memory set to 1000000000 words,  buffer space   230000 words

 SETTING BASIS          =    CC-PVTZ


 Recomputing integrals since basis changed


 Using spherical harmonics

 Library entry C      S cc-pVTZ              selected for orbital group  1
 Library entry C      P cc-pVTZ              selected for orbital group  1
 Library entry C      D cc-pVTZ              selected for orbital group  1
 Library entry C      F cc-pVTZ              selected for orbital group  1
 Library entry O      S cc-pVTZ              selected for orbital group  2
 Library entry O      P cc-pVTZ              selected for orbital group  2
 Library entry O      D cc-pVTZ              selected for orbital group  2
 Library entry O      F cc-pVTZ              selected for orbital group  2
 Library entry H      S cc-pVTZ              selected for orbital group  3
 Library entry H      P cc-pVTZ              selected for orbital group  3
 Library entry H      D cc-pVTZ              selected for orbital group  3

1PROGRAM * SEWARD (Integral evaluation for generally contracted gaussian basis sets)     Author: Roland Lindh, 1990

 Geometry written to block  1 of record 700


 Point group  C1  



 ATOMIC COORDINATES

 NR  ATOM    CHARGE       X              Y              Z

   1  C       6.00   -3.099520170    1.587654779    0.016285400
   2  C       6.00   -0.862861546   -0.073044923   -0.653878267
   3  C       6.00   -1.122696828   -2.781538516    0.248114451
   4  O       8.00    1.311845446    1.098695475    0.596465423
   5  O       8.00    3.450370059    0.128074746   -0.259052929
   6  H       1.00   -4.801908761    0.850227746   -0.883784761
   7  H       1.00   -2.800282463    3.523468632   -0.623376887
   8  H       1.00   -3.395636129    1.600713057    2.058191697
   9  H       1.00   -0.453254874   -0.007133641   -2.673833342
  10  H       1.00   -2.700146104   -3.692950056   -0.720383458
  11  H       1.00   -1.482236941   -2.825062885    2.280029947
  12  H       1.00    0.600808421   -3.833893983   -0.154371558

 Bond lengths in Bohr (Angstrom)

 1-2  2.865254726  1-6  2.062050397  1-7  2.060603388  1-8  2.063307176  2-3  2.866538466
     ( 1.516227499)     ( 1.091190074)     ( 1.090424350)     ( 1.091855133)     ( 1.516906825)

  2- 4  2.768697420   2- 9  2.062120372   3-10  2.063251176   3-11  2.063938963   3-12  2.059105961
       ( 1.465131573)       ( 1.091227103)       ( 1.091825499)       ( 1.092189460)       ( 1.089631945)

 4-5  2.499460696
     ( 1.322657635)

 Bond angles

  1-2-3  113.78387539   1-2-4  105.20209880   1-2-9  111.44705761   2-1-6  109.57812229

  2- 1- 7  111.01013572   2- 1- 8  110.31403862   2- 3-10  109.81465684   2- 3-11  110.21208462

  2- 3-12  110.21351164   2- 4- 5  110.67807383   3- 2- 4  109.20642435   3- 2- 9  110.88137127

  4-2-9  105.83211757   6-1-7  108.68424135   6-1-8  108.40581810   7-1-8  108.79000225

 10- 3-11  108.63999351  10- 3-12  108.80962708  11- 3-12  109.11498850

 NUCLEAR CHARGE:                   41
 NUMBER OF PRIMITIVE AOS:         354
 NUMBER OF SYMMETRY AOS:          322
 NUMBER OF CONTRACTIONS:          248   ( 248A   )
 NUMBER OF CORE ORBITALS:           5   (   5A   )
 NUMBER OF VALENCE ORBITALS:       27   (  27A   )


 NUCLEAR REPULSION ENERGY  186.60803393


 Eigenvalues of metric

         1 0.808E-03 0.955E-03 0.110E-02 0.124E-02 0.136E-02 0.150E-02 0.160E-02 0.164E-02


 Contracted 2-electron integrals neglected if value below      1.0D-16
 AO integral compression algorithm  1   Integral accuracy      1.0D-16

     3372.220 MB (compressed) written to integral file ( 82.1%)

     Node minimum: 1080.295 MB, node maximum: 1149.501 MB


 NUMBER OF SORTED TWO-ELECTRON INTEGRALS:  158903334.     BUFFER LENGTH:  32768
 NUMBER OF SEGMENTS:  10  SEGMENT LENGTH:   15997437      RECORD LENGTH: 524288

 Memory used in sort:      16.55 MW

 SORT1 READ   513528052. AND WROTE   152619514. INTEGRALS IN    442 RECORDS. CPU TIME:    19.05 SEC, REAL TIME:    20.15 SEC
 SORT2 READ   459361485. AND WROTE   476679126. INTEGRALS IN  12363 RECORDS. CPU TIME:     1.49 SEC, REAL TIME:    12.52 SEC

 Node minimum:   158882750.  Node maximum:   158903334. integrals

 OPERATOR DM      FOR CENTER  0  COORDINATES:    0.000000    0.000000    0.000000


 **********************************************************************************************************************************
 DATASETS  * FILE   NREC   LENGTH (MB)   RECORD NAMES
              1      18        5.04       500      610      700      900      950      970     1000      129      960     1100   
                                          VAR    BASINP    GEOM    SYMINP    ZMAT    AOBASIS   BASIS     P2S    ABASIS      S 
                                         1400     1410     1200     1210     1080     1600     1650     1700   
                                           T        V       H0       H01     AOSYM     SMH    MOLCAS    OPER   

 PROGRAMS   *        TOTAL       INT
 CPU TIMES  *        27.38     27.34
 REAL TIME  *        40.31 SEC
 DISK USED  *         8.85 GB      
 GA USED    *         0.01 MB       (max)       0.00 MB       (current)
 **********************************************************************************************************************************

1PROGRAM * RHF-SCF (OPEN SHELL)       Authors: W. Meyer, H.-J. Werner


 NUMBER OF ELECTRONS:      21+   20-    SPACE SYMMETRY=1    SPIN SYMMETRY: Doublet 
 CONVERGENCE THRESHOLDS:    1.00E-10 (Density)    1.00E-11 (Energy)
 MAX. NUMBER OF ITERATIONS:      200
 INTERPOLATION TYPE:            DIIS
 INTERPOLATION STEPS:              2 (START)      1 (STEP)
 LEVEL SHIFTS:                 -0.30 (CLOSED)  0.00 (OPEN) 



 Orbital guess generated from atomic densities. Full valence occupancy:   32

 Molecular orbital dump at record        2100.2

 ITERATION    DDIFF          GRAD             ENERGY        2-EL.EN.            DIPOLE MOMENTS         DIIS
    1      0.000D+00      0.000D+00      -267.26110716    559.759498   -1.77500   -0.07323   -0.09225    0
    2      0.000D+00      0.326D-02      -267.33463906    562.611124   -1.01567   -0.42991   -0.36082    1
    3      0.471D-02      0.230D-02      -267.36117109    561.562730   -1.18924   -0.24363   -0.21603    2
    4      0.211D-02      0.546D-03      -267.36940693    561.749752   -0.97770   -0.31544   -0.29820    3
    5      0.926D-03      0.484D-03      -267.37362890    561.792162   -0.92210   -0.31738   -0.30259    4
    6      0.582D-03      0.272D-03      -267.37555313    561.759416   -0.88068   -0.31068   -0.30061    5
    7      0.485D-03      0.133D-03      -267.37588979    561.745140   -0.89058   -0.29924   -0.29239    6
    8      0.258D-03      0.357D-04      -267.37591175    561.742430   -0.89016   -0.29596   -0.29090    7
    9      0.849D-04      0.190D-04      -267.37592275    561.742658   -0.89270   -0.29650   -0.29095    8
   10      0.449D-04      0.821D-05      -267.37592457    561.742559   -0.89386   -0.29588   -0.29065    9
   11      0.199D-04      0.321D-05      -267.37592482    561.742501   -0.89449   -0.29572   -0.29048    9
   12      0.786D-05      0.148D-05      -267.37592488    561.742729   -0.89463   -0.29581   -0.29052    9
   13      0.371D-05      0.529D-06      -267.37592489    561.742783   -0.89464   -0.29587   -0.29055    9
   14      0.149D-05      0.301D-06      -267.37592489    561.742784   -0.89463   -0.29589   -0.29056    9
   15      0.842D-06      0.150D-06      -267.37592489    561.742791   -0.89463   -0.29590   -0.29056    9
   16      0.449D-06      0.786D-07      -267.37592489    561.742795   -0.89462   -0.29590   -0.29056    9
   17      0.218D-06      0.440D-07      -267.37592489    561.742790   -0.89462   -0.29590   -0.29056    9
   18      0.186D-06      0.321D-07      -267.37592489    561.742788   -0.89462   -0.29590   -0.29056    9
   19      0.138D-06      0.247D-07      -267.37592489    561.742792   -0.89462   -0.29590   -0.29056    9
   20      0.206D-06      0.203D-07      -267.37592489    561.742791   -0.89462   -0.29590   -0.29056    9
   21      0.276D-06      0.141D-07      -267.37592489    561.742793   -0.89462   -0.29590   -0.29056    9
   22      0.277D-06      0.916D-08      -267.37592489    561.742795   -0.89462   -0.29590   -0.29056    9
   23      0.170D-06      0.421D-08      -267.37592489    561.742795   -0.89462   -0.29590   -0.29056    9
   24      0.621D-07      0.235D-08      -267.37592489    561.742795   -0.89462   -0.29590   -0.29056    9
   25      0.187D-07      0.973D-09      -267.37592489    561.742795   -0.89462   -0.29590   -0.29056    9
   26      0.931D-08      0.413D-09      -267.37592489    561.742796   -0.89462   -0.29590   -0.29056    9
   27      0.134D-08      0.195D-09      -267.37592489    561.742796   -0.89462   -0.29590   -0.29056    9
   28      0.534D-09      0.989D-10      -267.37592489    561.742796   -0.89462   -0.29590   -0.29056    9
   29      0.486D-09      0.548D-10      -267.37592489    561.742796   -0.89462   -0.29590   -0.29056    9
   30      0.300D-09      0.268D-10      -267.37592489    561.742796   -0.89462   -0.29590   -0.29056    9
   31      0.792D-10      0.147D-10      -267.37592489    561.742796   -0.89462   -0.29590   -0.29056    9
   32      0.113D-09      0.787D-11      -267.37592489    561.742796   -0.89462   -0.29590   -0.29056    9
   33      0.420D-10      0.117D-10      -267.37592489    561.742796   -0.89462   -0.29590   -0.29056    0

 Final alpha occupancy:  21
 Final beta  occupancy:  20

 !RHF STATE 1.1 Energy               -267.375924889771
 Nuclear energy                       186.60803393
 One-electron energy                 -734.85535661
 Two-electron energy                  280.87139779
 Virial quotient                       -1.00116700
 !RHF STATE 1.1 Dipole moment          -0.89461615    -0.29589684    -0.29055743
 Dipole moment /Debye                  -2.27373851    -0.75204548    -0.73847496

 Orbital energies:

         1.1          2.1          3.1          4.1          5.1          6.1          7.1          8.1          9.1         10.1
    -20.648702   -20.640380   -11.297442   -11.229090   -11.225498    -1.523555    -1.170892    -1.034492    -0.952899    -0.819551

        11.1         12.1         13.1         14.1         15.1         16.1         17.1         18.1         19.1         20.1
     -0.695162    -0.667976    -0.652377    -0.595604    -0.562920    -0.557684    -0.544355    -0.501269    -0.489731    -0.465261

        21.1         22.1         23.1
     -0.562878     0.137629     0.174826


 **********************************************************************************************************************************
 DATASETS  * FILE   NREC   LENGTH (MB)   RECORD NAMES
              1      18        5.04       500      610      700      900      950      970     1000      129      960     1100   
                                          VAR    BASINP    GEOM    SYMINP    ZMAT    AOBASIS   BASIS     P2S    ABASIS      S 
                                         1400     1410     1200     1210     1080     1600     1650     1700   
                                           T        V       H0       H01     AOSYM     SMH    MOLCAS    OPER   

              2       3        2.21       700     1000     2100   
                                         GEOM     BASIS     RHF  

 PROGRAMS   *        TOTAL       RHF       INT
 CPU TIMES  *        84.75     57.37     27.34
 REAL TIME  *       101.68 SEC
 DISK USED  *         8.89 GB      
 SF USED    *         0.25 MB      
 GA USED    *         0.01 MB       (max)       0.00 MB       (current)
 **********************************************************************************************************************************


1PROGRAM * CCSD (Unrestricted open-shell coupled cluster)     Authors: C. Hampel, H.-J. Werner, 1991, M. Deegan, P.J. Knowles, 1992


 Convergence thresholds:  THRVAR = 1.00D-08  THRDEN = 1.00D-10

 CCSD(T)     terms to be evaluated (factor= 1.000)


 Number of core orbitals:           5 (   5 )
 Number of closed-shell orbitals:  15 (  15 )
 Number of active  orbitals:        1 (   1 )
 Number of external orbitals:     227 ( 227 )

 Memory could be reduced to 332.02 Mwords without degradation in triples

 Number of N-1 electron functions:              31
 Number of N-2 electron functions:             465
 Number of singly external CSFs:              7068
 Number of doubly external CSFs:          18353430
 Total number of CSFs:                    18360498

 Molecular orbitals read from record     2100.2  Type=RHF/CANONICAL (state 1.1)

 Integral transformation finished. Total CPU:  27.57 sec, npass=  1  Memory used: 145.25 MW

 Starting RMP2 calculation

 ITER.      SQ.NORM     CORR.ENERGY   TOTAL ENERGY   ENERGY CHANGE        DEN1      VAR(S)    VAR(P)  DIIS     TIME
   1      1.26537275    -0.96760937  -268.34353426    -0.96760937    -0.00323708  0.26D-04  0.11D-02  1  1    31.56
   2      1.26815845    -0.97109974  -268.34702463    -0.00349037    -0.00000667  0.10D-05  0.23D-05  2  2    34.64
   3      1.26823844    -0.97115267  -268.34707756    -0.00005293    -0.00000008  0.54D-07  0.11D-07  3  3    37.98
   4      1.26824015    -0.97115248  -268.34707737     0.00000019    -0.00000000  0.16D-08  0.12D-09  4  4    41.71
   5      1.26824041    -0.97115257  -268.34707746    -0.00000009    -0.00000000  0.19D-10  0.46D-11  5  5    45.83
   6      1.26824047    -0.97115260  -268.34707749    -0.00000003    -0.00000000  0.50D-13  0.56D-13  6  6    51.57
   7      1.26824047    -0.97115260  -268.34707749     0.00000000    -0.00000000  0.15D-14  0.86D-15  6  1    57.29
   8      1.26824047    -0.97115260  -268.34707749     0.00000000    -0.00000000  0.16D-16  0.79D-17  6  2    62.61
   9      1.26824047    -0.97115260  -268.34707749    -0.00000000    -0.00000000  0.31D-18  0.10D-18  6  3    66.88

 Norm of t1 vector:      0.04589897      S-energy:    -0.00446829      T1 diagnostic:  0.00074427
 Norm of t2 vector:      0.51588153      P-energy:    -0.96668431
                                         Alpha-Beta:  -0.73708806
                                         Alpha-Alpha: -0.11898670
                                         Beta-Beta:   -0.11060955

 Spin contamination <S**2-Sz**2-Sz>     0.00145464
  Reference energy                   -267.375924889772
  RHF-RMP2 correlation energy          -0.971152598911
 !RHF-RMP2 energy                    -268.347077488683

 Starting UCCSD calculation

 ITER.      SQ.NORM     CORR.ENERGY   TOTAL ENERGY   ENERGY CHANGE        DEN1      VAR(S)    VAR(P)  DIIS     TIME
   1      1.27984344    -0.97926665  -268.35519154    -0.97926665    -0.02933295  0.65D-02  0.54D-02  1  1   150.11
   2      1.30625002    -1.00589238  -268.38181727    -0.02662573    -0.00363511  0.62D-03  0.97D-03  2  2   264.40
   3      1.32290166    -1.01271669  -268.38864158    -0.00682432    -0.00091222  0.75D-03  0.76D-04  3  3   378.71
   4      1.33414149    -1.01537589  -268.39130077    -0.00265919    -0.00038531  0.31D-03  0.33D-04  4  4   462.04
   5      1.34921795    -1.01737325  -268.39329814    -0.00199737    -0.00011802  0.10D-03  0.90D-05  5  5   545.33
   6      1.36075081    -1.01839629  -268.39432118    -0.00102303    -0.00001815  0.93D-05  0.32D-05  6  6   628.92
   7      1.36444737    -1.01863728  -268.39456217    -0.00024099    -0.00000317  0.16D-05  0.61D-06  6  1   711.95
   8      1.36505201    -1.01867947  -268.39460436    -0.00004219    -0.00000067  0.27D-06  0.15D-06  6  2   795.17
   9      1.36537320    -1.01869801  -268.39462290    -0.00001854    -0.00000015  0.66D-07  0.32D-07  6  4   883.74
  10      1.36535942    -1.01869672  -268.39462161     0.00000129    -0.00000002  0.11D-07  0.43D-08  6  3   967.53
  11      1.36542204    -1.01870182  -268.39462671    -0.00000510    -0.00000000  0.27D-08  0.95D-09  6  5  1050.97
  12      1.36541457    -1.01869933  -268.39462422     0.00000249    -0.00000000  0.13D-08  0.22D-09  6  6  1134.43
  13      1.36541026    -1.01869817  -268.39462306     0.00000116    -0.00000000  0.82D-09  0.63D-10  6  1  1243.25
  14      1.36539713    -1.01869664  -268.39462153     0.00000153    -0.00000000  0.57D-09  0.28D-10  6  2  1363.12
  15      1.36539055    -1.01869585  -268.39462074     0.00000079    -0.00000000  0.46D-09  0.23D-10  6  3  1482.75
  16      1.36538720    -1.01869568  -268.39462057     0.00000017    -0.00000000  0.32D-09  0.19D-10  6  4  1602.45
  17      1.36538697    -1.01869573  -268.39462062    -0.00000005    -0.00000000  0.15D-09  0.18D-10  6  5  1722.01
  18      1.36539055    -1.01869596  -268.39462085    -0.00000023    -0.00000000  0.30D-10  0.65D-11  6  6  1841.73
  19      1.36539401    -1.01869630  -268.39462119    -0.00000035    -0.00000000  0.27D-11  0.18D-11  6  2  1961.36
  20      1.36539346    -1.01869617  -268.39462106     0.00000013    -0.00000000  0.66D-12  0.18D-12  6  1  2080.94
  21      1.36539375    -1.01869621  -268.39462110    -0.00000004    -0.00000000  0.23D-12  0.65D-13  6  4  2191.30
  22      1.36539370    -1.01869621  -268.39462110     0.00000001    -0.00000000  0.68D-13  0.15D-13  6  3  2309.27
  23      1.36539372    -1.01869621  -268.39462110    -0.00000001    -0.00000000  0.19D-13  0.63D-14  6  6  2429.61
  24      1.36539373    -1.01869621  -268.39462110     0.00000000    -0.00000000  0.44D-14  0.11D-14  6  5  2549.33
  25      1.36539373    -1.01869621  -268.39462110     0.00000000    -0.00000000  0.92D-15  0.30D-15  6  1  2668.91
  26      1.36539375    -1.01869621  -268.39462110    -0.00000000    -0.00000000  0.15D-15  0.55D-16  6  2  2788.55
  27      1.36539375    -1.01869621  -268.39462110    -0.00000000    -0.00000000  0.46D-16  0.16D-16  6  3  2906.67
  28      1.36539375    -1.01869621  -268.39462110    -0.00000000    -0.00000000  0.98D-17  0.49D-17  6  5  3025.19
  29      1.36539375    -1.01869621  -268.39462110    -0.00000000    -0.00000000  0.16D-17  0.38D-18  6  4  3143.93
  30      1.36539375    -1.01869621  -268.39462110     0.00000000    -0.00000000  0.54D-18  0.14D-18  6  6  3262.54

 Norm of t1 vector:      0.23123311      S-energy:    -0.00501563      T1 diagnostic:  0.02849375
                                                                       D1 diagnostic:  0.14603100
 Norm of t2 vector:      0.55850247      P-energy:    -1.01368058
                                         Alpha-Beta:  -0.80138338
                                         Alpha-Alpha: -0.10867896
                                         Beta-Beta:   -0.10361825

 Singles amplitudes (print threshold =  0.500E-01):

         I         SYM. A    A   T(IA) [Beta-Beta]

         8         1         1      0.09677049
         9         1         1     -0.09833706
        11         1         1      0.05400033
        12         1         1      0.07551923
        14         1         1      0.11145631

 Spin contamination <S**2-Sz**2-Sz>     0.00176105

 Memory could be reduced to 360.52 Mwords without degradation in triples
 

 RESULTS
 =======

  Reference energy                   -267.375924889772
  UCCSD singles energy                 -0.005015628683
  UCCSD pair energy                    -1.013680583867
  UCCSD correlation energy             -1.018696212550
  Triples (T) contribution             -0.040835186019
  Total correlation energy             -1.059531398569
 
  RHF-UCCSD energy                   -268.394621102322
  RHF-UCCSD[T] energy                -268.438778481586
  RHF-UCCSD-T energy                 -268.434958911761
 !RHF-UCCSD(T) energy                -268.435456288341

 Program statistics:

 Available memory in ccsd:               999997692
 Min. memory needed in ccsd:              51505734
 Max. memory used in ccsd:                74803578
 Max. memory used in cckext:              59475747 (30 integral passes)
 Max. memory used in cckint:             145249478 ( 1 integral passes)



 **********************************************************************************************************************************
 DATASETS  * FILE   NREC   LENGTH (MB)   RECORD NAMES
              1      18        5.04       500      610      700      900      950      970     1000      129      960     1100   
                                          VAR    BASINP    GEOM    SYMINP    ZMAT    AOBASIS   BASIS     P2S    ABASIS      S 
                                         1400     1410     1200     1210     1080     1600     1650     1700   
                                           T        V       H0       H01     AOSYM     SMH    MOLCAS    OPER   

              2       3        2.21       700     1000     2100   
                                         GEOM     BASIS     RHF  

 PROGRAMS   *        TOTAL  UCCSD(T)       RHF       INT
 CPU TIMES  *      4943.08   4858.33     57.37     27.34
 REAL TIME  *      5064.42 SEC
 DISK USED  *        15.87 GB      
 SF USED    *         6.57 GB      
 GA USED    *         0.01 MB       (max)       0.00 MB       (current)
 **********************************************************************************************************************************

        UCCSD(T)        RHF-SCF 
   -268.43545629   -267.37592489
 **********************************************************************************************************************************
 Variable memory released
