
 Primary working directories    : /tmp/333988.44.gen4.q
 Secondary working directories  : /tmp/333988.44.gen4.q
 Wavefunction directory         : /home/vulcan/mel64643/wfu/
 Main file repository           : /tmp/333988.44.gen4.q/

 ARCHNAME  : Linux/x86_64
 FC        : /opt/intel/compilers_and_libraries_2016.1.150/linux/bin/intel64/ifort
 FCVERSION : 16.0.1
 BLASLIB   : -mkl
 id        : ccgc

 Nodes     nprocs
 n041         3
 Number of processes for MPI-2 version of Molpro:   nprocs(total)=    4   nprocs(compute)=    3   nprocs(helper)=    1
 ga_uses_ma=false, calling ma_init with nominal heap.
 GA-space will be limited to   8.0 MW (determined by -G option)

 Using customized tuning parameters: mindgm=10; mindgv=16; mindgc=4; mindgr=1; noblas=0; mincuda=1000; minvec=7
 default implementation of scratch files=sf  

 ***,Optimization of min3
 memory,1000,m
 gthresh,energy=1.0d-10,orbital=1.0d-10,oneint=1.0d-16,twoint=1.0d-16,optgrad=1.0d-6,compress=1.0d-13
 geomtyp=xyz
 
  bohr
  geometry = {
  12
  arbitrary comment
  C         -3.1015778024          1.5847722958          0.0202146464
  C         -0.8651659081         -0.0711231483         -0.6553852500
  C         -1.1183447622         -2.7793615403          0.2473474339
  O          1.3114936134          1.1049396490          0.5888765006
  O          3.4493676534          0.1200626505         -0.2518239215
  H         -4.8000496010          0.8516018005         -0.8899998543
  H         -2.8159081776          3.5259219211         -0.6107970681
  H         -3.3808360624          1.6098380412          2.0643130980
  H         -0.4580924986         -0.0047151052         -2.6757560153
  H         -2.6852856581         -3.7000524831         -0.7296688566
  H         -1.4670848879         -2.8131319976          2.2808754438
  H          0.5962109967         -3.8405170026         -0.1704917390
 }
 
 basis=cc-pvtz
 {rhf;maxit,200}
 {uccsd(t);maxit,200}

 Variables initialized (661), CPU time= 0.00 sec
 Commands  initialized (458), CPU time= 0.01 sec, 486 directives.
 Default parameters read. Elapsed time= 0.07 sec

 Checking input...
 Passed
1


                                         ***  PROGRAM SYSTEM MOLPRO  ***
                         Copyright, University College Cardiff Consultants Limited, 2008

                                    Version 2010.1 linked May 16 2016 07:17:05


 **********************************************************************************************************************************
 LABEL *   Optimization of min3                                                          
 Linux-4.4.3/n041(x86_64) 64 bit mpp version                                             DATE: 15-Jul-20          TIME: 16:17:23  
 **********************************************************************************************************************************

 SHA1:             9e8077add272b0f3cad6f7df79ec5211205f459d
 **********************************************************************************************************************************

 THRESHOLDS:

 ZERO    =  1.00D-12  ONEINT  =  1.00D-16  TWOINT  =  1.00D-16  PREFAC  =  1.00D-14  LOCALI  =  1.00D-09  EORDER  =  1.00D-04
 ENERGY  =  1.00D-10  ETEST   =  0.00D+00  EDENS   =  0.00D+00  THRDEDEF=  1.00D-06  GRADIENT=  1.00D-02  STEP    =  1.00D-03
 ORBITAL =  1.00D-10  CIVEC   =  1.00D-05  COEFF   =  1.00D-04  PRINTCI =  5.00D-02  PUNCHCI =  9.90D+01  OPTGRAD =  1.00D-06
 OPTENERG=  1.00D-06  OPTSTEP =  3.00D-04  THRGRAD =  1.00D-10  COMPRESS=  1.00D-13  VARMIN  =  1.00D-07  VARMAX  =  1.00D-03
 THRDOUB =  0.00D+00  THRDIV  =  1.00D-05  THRRED  =  1.00D-07  THRPSP  =  1.00D+00  THRDC   =  1.00D-10  THRCS   =  1.00D-10
 THRNRM  =  1.00D-08  THREQ   =  0.00D+00  THRDE   =  1.00D+00  THRREF  =  1.00D-05  SPARFAC =  1.00D+00  THRDLP  =  1.00D-07
 THRDIA  =  1.00D-10  THRDLS  =  1.00D-07  THRGPS  =  0.00D+00  THRKEX  =  0.00D+00  THRDIS  =  2.00D-01  THRVAR  =  1.00D-10
 THRLOC  =  1.00D-06  THRGAP  =  1.00D-06  THRLOCT = -1.00D+00  THRGAPT = -1.00D+00  THRORB  =  1.00D-06  THRMLTP =  0.00D+00
 THRCPQCI=  1.00D-10  KEXTA   =  0.00D+00  THRCOARS=  0.00D+00  SYMTOL  =  1.00D-06  GRADTOL =  1.00D-06  THROVL  =  1.00D-08
 THRORTH =  1.00D-08  GRID    =  1.00D-06  GRIDMAX =  1.00D-03  DTMAX   =  0.00D+00

 SETTING GEOMTYP        =    XYZ
 ZUNIT=BOHR
 

 Variable memory set to 1000000000 words,  buffer space   230000 words

 SETTING BASIS          =    CC-PVTZ


 Recomputing integrals since basis changed


 Using spherical harmonics

 Library entry C      S cc-pVTZ              selected for orbital group  1
 Library entry C      P cc-pVTZ              selected for orbital group  1
 Library entry C      D cc-pVTZ              selected for orbital group  1
 Library entry C      F cc-pVTZ              selected for orbital group  1
 Library entry O      S cc-pVTZ              selected for orbital group  2
 Library entry O      P cc-pVTZ              selected for orbital group  2
 Library entry O      D cc-pVTZ              selected for orbital group  2
 Library entry O      F cc-pVTZ              selected for orbital group  2
 Library entry H      S cc-pVTZ              selected for orbital group  3
 Library entry H      P cc-pVTZ              selected for orbital group  3
 Library entry H      D cc-pVTZ              selected for orbital group  3

1PROGRAM * SEWARD (Integral evaluation for generally contracted gaussian basis sets)     Author: Roland Lindh, 1990

 Geometry written to block  1 of record 700


 Point group  C1  



 ATOMIC COORDINATES

 NR  ATOM    CHARGE       X              Y              Z

   1  C       6.00   -3.101577802    1.584772296    0.020214646
   2  C       6.00   -0.865165908   -0.071123148   -0.655385250
   3  C       6.00   -1.118344762   -2.779361540    0.247347434
   4  O       8.00    1.311493613    1.104939649    0.588876501
   5  O       8.00    3.449367653    0.120062651   -0.251823921
   6  H       1.00   -4.800049601    0.851601801   -0.889999854
   7  H       1.00   -2.815908178    3.525921921   -0.610797068
   8  H       1.00   -3.380836062    1.609838041    2.064313098
   9  H       1.00   -0.458092499   -0.004715105   -2.675756015
  10  H       1.00   -2.685285658   -3.700052483   -0.729668857
  11  H       1.00   -1.467084888   -2.813131998    2.280875444
  12  H       1.00    0.596210997   -3.840517003   -0.170491739

 Bond lengths in Bohr (Angstrom)

 1-2  2.863557770  1-6  2.061755529  1-7  2.061030030  1-8  2.063238219  2-3  2.865934580
     ( 1.515329509)     ( 1.091034037)     ( 1.090650119)     ( 1.091818642)     ( 1.516587262)

  2- 4  2.769324409   2- 9  2.062041905   3-10  2.063379852   3-11  2.063491286   3-12  2.059209057
       ( 1.465463361)       ( 1.091185580)       ( 1.091893591)       ( 1.091952559)       ( 1.089686501)

 4-5  2.499453003
     ( 1.322653564)

 Bond angles

  1-2-3  113.77450303   1-2-4  105.20490662   1-2-9  111.51328322   2-1-6  109.48668887

  2- 1- 7  111.35512889   2- 1- 8  110.27177051   2- 3-10  109.85202944   2- 3-11  109.92614392

  2- 3-12  110.45653850   2- 4- 5  110.72136679   3- 2- 4  109.22132948   3- 2- 9  110.88505105

  4-2-9  105.74644706   6-1-7  108.29685718   6-1-8  109.28088420   7-1-8  108.09787549

 10- 3-11  109.32837052  10- 3-12  107.83537545  11- 3-12  109.40544061

 NUCLEAR CHARGE:                   41
 NUMBER OF PRIMITIVE AOS:         354
 NUMBER OF SYMMETRY AOS:          322
 NUMBER OF CONTRACTIONS:          248   ( 248A   )
 NUMBER OF CORE ORBITALS:           5   (   5A   )
 NUMBER OF VALENCE ORBITALS:       27   (  27A   )


 NUCLEAR REPULSION ENERGY  186.63201350


 Eigenvalues of metric

         1 0.805E-03 0.953E-03 0.110E-02 0.124E-02 0.136E-02 0.150E-02 0.159E-02 0.164E-02


 Contracted 2-electron integrals neglected if value below      1.0D-16
 AO integral compression algorithm  1   Integral accuracy      1.0D-16

     3372.220 MB (compressed) written to integral file ( 82.1%)

     Node minimum: 824.967 MB, node maximum: 1289.486 MB


 NUMBER OF SORTED TWO-ELECTRON INTEGRALS:  158903334.     BUFFER LENGTH:  32768
 NUMBER OF SEGMENTS:  10  SEGMENT LENGTH:   15997437      RECORD LENGTH: 524288

 Memory used in sort:      16.55 MW

 SORT1 READ   513521532. AND WROTE   152633857. INTEGRALS IN    442 RECORDS. CPU TIME:    20.35 SEC, REAL TIME:    24.90 SEC
 SORT2 READ   459396154. AND WROTE   476679126. INTEGRALS IN  14757 RECORDS. CPU TIME:     1.63 SEC, REAL TIME:    18.02 SEC

 Node minimum:   158882750.  Node maximum:   158903334. integrals

 OPERATOR DM      FOR CENTER  0  COORDINATES:    0.000000    0.000000    0.000000


 **********************************************************************************************************************************
 DATASETS  * FILE   NREC   LENGTH (MB)   RECORD NAMES
              1      18        5.04       500      610      700      900      950      970     1000      129      960     1100   
                                          VAR    BASINP    GEOM    SYMINP    ZMAT    AOBASIS   BASIS     P2S    ABASIS      S 
                                         1400     1410     1200     1210     1080     1600     1650     1700   
                                           T        V       H0       H01     AOSYM     SMH    MOLCAS    OPER   

 PROGRAMS   *        TOTAL       INT
 CPU TIMES  *        30.41     30.32
 REAL TIME  *        52.05 SEC
 DISK USED  *         9.10 GB      
 GA USED    *         0.01 MB       (max)       0.00 MB       (current)
 **********************************************************************************************************************************

1PROGRAM * RHF-SCF (OPEN SHELL)       Authors: W. Meyer, H.-J. Werner


 NUMBER OF ELECTRONS:      21+   20-    SPACE SYMMETRY=1    SPIN SYMMETRY: Doublet 
 CONVERGENCE THRESHOLDS:    1.00E-10 (Density)    1.00E-11 (Energy)
 MAX. NUMBER OF ITERATIONS:      200
 INTERPOLATION TYPE:            DIIS
 INTERPOLATION STEPS:              2 (START)      1 (STEP)
 LEVEL SHIFTS:                 -0.30 (CLOSED)  0.00 (OPEN) 



 Orbital guess generated from atomic densities. Full valence occupancy:   32

 Molecular orbital dump at record        2100.2

 ITERATION    DDIFF          GRAD             ENERGY        2-EL.EN.            DIPOLE MOMENTS         DIIS
    1      0.000D+00      0.000D+00      -267.26100307    559.816673   -1.77211   -0.06681   -0.10144    0
    2      0.000D+00      0.326D-02      -267.33454055    562.660129   -1.01427   -0.43079   -0.36180    1
    3      0.471D-02      0.230D-02      -267.36109724    561.613313   -1.18793   -0.24232   -0.21926    2
    4      0.211D-02      0.546D-03      -267.36934365    561.800287   -0.97662   -0.31543   -0.30006    3
    5      0.927D-03      0.485D-03      -267.37356959    561.842394   -0.92114   -0.31763   -0.30412    4
    6      0.583D-03      0.272D-03      -267.37549347    561.809553   -0.87993   -0.31105   -0.30193    5
    7      0.486D-03      0.133D-03      -267.37582913    561.795270   -0.88987   -0.29946   -0.29379    6
    8      0.258D-03      0.356D-04      -267.37585095    561.792593   -0.88948   -0.29626   -0.29232    7
    9      0.844D-04      0.188D-04      -267.37586174    561.792800   -0.89199   -0.29676   -0.29238    8
   10      0.446D-04      0.820D-05      -267.37586355    561.792698   -0.89317   -0.29614   -0.29208    9
   11      0.199D-04      0.322D-05      -267.37586380    561.792642   -0.89379   -0.29598   -0.29191    9
   12      0.790D-05      0.150D-05      -267.37586386    561.792867   -0.89393   -0.29607   -0.29196    9
   13      0.374D-05      0.531D-06      -267.37586387    561.792919   -0.89395   -0.29613   -0.29199    9
   14      0.149D-05      0.302D-06      -267.37586387    561.792917   -0.89394   -0.29615   -0.29199    9
   15      0.823D-06      0.147D-06      -267.37586387    561.792923   -0.89393   -0.29616   -0.29199    9
   16      0.430D-06      0.746D-07      -267.37586387    561.792926   -0.89393   -0.29616   -0.29199    9
   17      0.181D-06      0.354D-07      -267.37586387    561.792920   -0.89392   -0.29616   -0.29199    9
   18      0.121D-06      0.216D-07      -267.37586387    561.792917   -0.89393   -0.29616   -0.29199    9
   19      0.819D-07      0.145D-07      -267.37586387    561.792918   -0.89393   -0.29616   -0.29199    9
   20      0.718D-07      0.109D-07      -267.37586387    561.792917   -0.89393   -0.29616   -0.29199    9
   21      0.849D-07      0.904D-08      -267.37586387    561.792915   -0.89393   -0.29616   -0.29199    9
   22      0.113D-06      0.690D-08      -267.37586387    561.792916   -0.89393   -0.29616   -0.29199    9
   23      0.122D-06      0.422D-08      -267.37586387    561.792915   -0.89393   -0.29616   -0.29199    9
   24      0.859D-07      0.238D-08      -267.37586387    561.792914   -0.89393   -0.29616   -0.29199    9
   25      0.382D-07      0.918D-09      -267.37586387    561.792915   -0.89393   -0.29616   -0.29199    9
   26      0.594D-08      0.439D-09      -267.37586387    561.792915   -0.89393   -0.29616   -0.29199    9
   27      0.433D-08      0.200D-09      -267.37586387    561.792915   -0.89393   -0.29616   -0.29199    9
   28      0.668D-09      0.917D-10      -267.37586387    561.792915   -0.89393   -0.29616   -0.29199    9
   29      0.303D-09      0.469D-10      -267.37586387    561.792915   -0.89393   -0.29616   -0.29199    9
   30      0.149D-09      0.239D-10      -267.37586387    561.792915   -0.89393   -0.29616   -0.29199    9
   31      0.586D-10      0.196D-10      -267.37586387    561.792915   -0.89393   -0.29616   -0.29199    0

 Final alpha occupancy:  21
 Final beta  occupancy:  20

 !RHF STATE 1.1 Energy               -267.375863872541
 Nuclear energy                       186.63201350
 One-electron energy                 -734.90433468
 Two-electron energy                  280.89645730
 Virial quotient                       -1.00116083
 !RHF STATE 1.1 Dipole moment          -0.89392641    -0.29615540    -0.29199277
 Dipole moment /Debye                  -2.27198549    -0.75270265    -0.74212298

 Orbital energies:

         1.1          2.1          3.1          4.1          5.1          6.1          7.1          8.1          9.1         10.1
    -20.648596   -20.640243   -11.297416   -11.229067   -11.225479    -1.523383    -1.170848    -1.034625    -0.953003    -0.819344

        11.1         12.1         13.1         14.1         15.1         16.1         17.1         18.1         19.1         20.1
     -0.695457    -0.667995    -0.652473    -0.595006    -0.562757    -0.558447    -0.543700    -0.502085    -0.489223    -0.465153

        21.1         22.1         23.1
     -0.562818     0.137738     0.174948


 **********************************************************************************************************************************
 DATASETS  * FILE   NREC   LENGTH (MB)   RECORD NAMES
              1      18        5.04       500      610      700      900      950      970     1000      129      960     1100   
                                          VAR    BASINP    GEOM    SYMINP    ZMAT    AOBASIS   BASIS     P2S    ABASIS      S 
                                         1400     1410     1200     1210     1080     1600     1650     1700   
                                           T        V       H0       H01     AOSYM     SMH    MOLCAS    OPER   

              2       3        2.21       700     1000     2100   
                                         GEOM     BASIS     RHF  

 PROGRAMS   *        TOTAL       RHF       INT
 CPU TIMES  *        80.13     49.72     30.32
 REAL TIME  *       106.22 SEC
 DISK USED  *         9.14 GB      
 SF USED    *         0.25 MB      
 GA USED    *         0.01 MB       (max)       0.00 MB       (current)
 **********************************************************************************************************************************


1PROGRAM * CCSD (Unrestricted open-shell coupled cluster)     Authors: C. Hampel, H.-J. Werner, 1991, M. Deegan, P.J. Knowles, 1992


 Convergence thresholds:  THRVAR = 1.00D-08  THRDEN = 1.00D-10

 CCSD(T)     terms to be evaluated (factor= 1.000)


 Number of core orbitals:           5 (   5 )
 Number of closed-shell orbitals:  15 (  15 )
 Number of active  orbitals:        1 (   1 )
 Number of external orbitals:     227 ( 227 )

 Memory could be reduced to 332.02 Mwords without degradation in triples

 Number of N-1 electron functions:              31
 Number of N-2 electron functions:             465
 Number of singly external CSFs:              7068
 Number of doubly external CSFs:          18353430
 Total number of CSFs:                    18360498

 Molecular orbitals read from record     2100.2  Type=RHF/CANONICAL (state 1.1)

 Integral transformation finished. Total CPU:  33.52 sec, npass=  1  Memory used: 145.25 MW

 Starting RMP2 calculation

 ITER.      SQ.NORM     CORR.ENERGY   TOTAL ENERGY   ENERGY CHANGE        DEN1      VAR(S)    VAR(P)  DIIS     TIME
   1      1.26536127    -0.96761619  -268.34348006    -0.96761619    -0.00323608  0.26D-04  0.11D-02  1  1    38.14
   2      1.26814570    -0.97110536  -268.34696923    -0.00348917    -0.00000665  0.10D-05  0.23D-05  2  2    41.70
   3      1.26822557    -0.97115824  -268.34702211    -0.00005287    -0.00000008  0.53D-07  0.11D-07  3  3    45.46
   4      1.26822728    -0.97115805  -268.34702192     0.00000019    -0.00000000  0.16D-08  0.12D-09  4  4    49.62
   5      1.26822754    -0.97115813  -268.34702201    -0.00000009    -0.00000000  0.19D-10  0.45D-11  5  5    54.56
   6      1.26822759    -0.97115817  -268.34702204    -0.00000003    -0.00000000  0.51D-13  0.56D-13  6  6    59.60
   7      1.26822759    -0.97115817  -268.34702204     0.00000000    -0.00000000  0.15D-14  0.85D-15  6  1    63.92
   8      1.26822759    -0.97115817  -268.34702204     0.00000000    -0.00000000  0.16D-16  0.79D-17  6  2    69.18
   9      1.26822759    -0.97115817  -268.34702204    -0.00000000    -0.00000000  0.31D-18  0.10D-18  6  3    74.26

 Norm of t1 vector:      0.04588826      S-energy:    -0.00446728      T1 diagnostic:  0.00074386
 Norm of t2 vector:      0.51587000      P-energy:    -0.96669089
                                         Alpha-Beta:  -0.73708491
                                         Alpha-Alpha: -0.11899513
                                         Beta-Beta:   -0.11061085

 Spin contamination <S**2-Sz**2-Sz>     0.00145373
  Reference energy                   -267.375863872542
  RHF-RMP2 correlation energy          -0.971158166964
 !RHF-RMP2 energy                    -268.347022039507

 Starting UCCSD calculation

 ITER.      SQ.NORM     CORR.ENERGY   TOTAL ENERGY   ENERGY CHANGE        DEN1      VAR(S)    VAR(P)  DIIS     TIME
   1      1.27982863    -0.97926754  -268.35513141    -0.97926754    -0.02933493  0.65D-02  0.54D-02  1  1   188.51
   2      1.30623194    -1.00589240  -268.38175627    -0.02662486    -0.00363597  0.62D-03  0.97D-03  2  2   299.91
   3      1.32288284    -1.01271632  -268.38858019    -0.00682392    -0.00091222  0.75D-03  0.76D-04  3  3   409.20
   4      1.33412187    -1.01537571  -268.39123958    -0.00265939    -0.00038520  0.31D-03  0.33D-04  4  4   519.51
   5      1.34919544    -1.01737285  -268.39323672    -0.00199714    -0.00011794  0.10D-03  0.90D-05  5  5   647.88
   6      1.36073066    -1.01839596  -268.39425983    -0.00102311    -0.00001811  0.93D-05  0.32D-05  6  6   758.28
   7      1.36441792    -1.01863631  -268.39450018    -0.00024035    -0.00000316  0.16D-05  0.61D-06  6  1   868.35
   8      1.36502289    -1.01867847  -268.39454235    -0.00004217    -0.00000067  0.27D-06  0.15D-06  6  2   977.69
   9      1.36534382    -1.01869692  -268.39456079    -0.00001844    -0.00000015  0.66D-07  0.32D-07  6  4  1087.40
  10      1.36533032    -1.01869565  -268.39455952     0.00000127    -0.00000002  0.10D-07  0.43D-08  6  3  1197.34
  11      1.36539309    -1.01870077  -268.39456464    -0.00000512    -0.00000000  0.23D-08  0.94D-09  6  5  1307.61
  12      1.36538544    -1.01869827  -268.39456214     0.00000250    -0.00000000  0.89D-09  0.21D-09  6  6  1417.67
  13      1.36538098    -1.01869711  -268.39456099     0.00000116    -0.00000000  0.49D-09  0.50D-10  6  1  1527.96
  14      1.36536834    -1.01869565  -268.39455952     0.00000147    -0.00000000  0.30D-09  0.17D-10  6  2  1636.99
  15      1.36536289    -1.01869499  -268.39455887     0.00000065    -0.00000000  0.25D-09  0.12D-10  6  3  1747.10
  16      1.36536027    -1.01869485  -268.39455872     0.00000015    -0.00000000  0.19D-09  0.94D-11  6  4  1861.25
  17      1.36535948    -1.01869483  -268.39455870     0.00000002    -0.00000000  0.11D-09  0.95D-11  6  5  2024.44
  18      1.36536143    -1.01869496  -268.39455884    -0.00000013    -0.00000000  0.26D-10  0.45D-11  6  6  2169.53
  19      1.36536425    -1.01869525  -268.39455912    -0.00000029    -0.00000000  0.27D-11  0.15D-11  6  2  2301.71
  20      1.36536365    -1.01869511  -268.39455899     0.00000013    -0.00000000  0.64D-12  0.17D-12  6  1  2433.07
  21      1.36536396    -1.01869516  -268.39455903    -0.00000004    -0.00000000  0.22D-12  0.57D-13  6  4  2584.02
  22      1.36536381    -1.01869514  -268.39455901     0.00000002    -0.00000000  0.72D-13  0.20D-13  6  2  2748.77
  23      1.36536385    -1.01869515  -268.39455902    -0.00000001    -0.00000000  0.20D-13  0.39D-14  6  3  2891.06
  24      1.36536377    -1.01869514  -268.39455901     0.00000001    -0.00000000  0.21D-14  0.74D-15  6  5  3023.31
  25      1.36536376    -1.01869513  -268.39455901     0.00000000    -0.00000000  0.68D-15  0.20D-15  6  6  3166.47
  26      1.36536376    -1.01869513  -268.39455901     0.00000000    -0.00000000  0.36D-15  0.70D-16  6  1  3305.83
  27      1.36536376    -1.01869513  -268.39455901    -0.00000000    -0.00000000  0.23D-15  0.18D-16  6  4  3420.84
  28      1.36536377    -1.01869514  -268.39455901    -0.00000000    -0.00000000  0.17D-15  0.92D-17  6  2  3531.11
  29      1.36536377    -1.01869514  -268.39455901    -0.00000000    -0.00000000  0.13D-15  0.69D-17  6  5  3640.34
  30      1.36536377    -1.01869514  -268.39455901     0.00000000    -0.00000000  0.47D-16  0.61D-17  6  3  3749.72
  31      1.36536376    -1.01869513  -268.39455901     0.00000000    -0.00000000  0.12D-16  0.25D-17  6  1  3859.24
  32      1.36536376    -1.01869513  -268.39455901     0.00000000    -0.00000000  0.38D-17  0.90D-18  6  6  3989.77
  33      1.36536376    -1.01869513  -268.39455901     0.00000000    -0.00000000  0.18D-17  0.35D-18  6  1  4099.10

 Norm of t1 vector:      0.23121386      S-energy:    -0.00501459      T1 diagnostic:  0.02849155
                                                                       D1 diagnostic:  0.14600274
 Norm of t2 vector:      0.55848359      P-energy:    -1.01368055
                                         Alpha-Beta:  -0.80137368
                                         Alpha-Alpha: -0.10868759
                                         Beta-Beta:   -0.10361928

 Singles amplitudes (print threshold =  0.500E-01):

         I         SYM. A    A   T(IA) [Beta-Beta]

         8         1         1     -0.09581113
         9         1         1      0.10106891
        12         1         1     -0.07965804
        14         1         1     -0.11038229

 Spin contamination <S**2-Sz**2-Sz>     0.00176015

 Memory could be reduced to 360.52 Mwords without degradation in triples
 

 RESULTS
 =======

  Reference energy                   -267.375863872542
  UCCSD singles energy                 -0.005014587626
  UCCSD pair energy                    -1.013680547175
  UCCSD correlation energy             -1.018695134801
  Triples (T) contribution             -0.040833576503
  Total correlation energy             -1.059528711304
 
  RHF-UCCSD energy                   -268.394559007343
  RHF-UCCSD[T] energy                -268.438715659930
  RHF-UCCSD-T energy                 -268.434894663182
 !RHF-UCCSD(T) energy                -268.435392583846

 Program statistics:

 Available memory in ccsd:               999997692
 Min. memory needed in ccsd:              51505734
 Max. memory used in ccsd:                74803578
 Max. memory used in cckext:              59475747 (33 integral passes)
 Max. memory used in cckint:             145249478 ( 1 integral passes)



 **********************************************************************************************************************************
 DATASETS  * FILE   NREC   LENGTH (MB)   RECORD NAMES
              1      18        5.04       500      610      700      900      950      970     1000      129      960     1100   
                                          VAR    BASINP    GEOM    SYMINP    ZMAT    AOBASIS   BASIS     P2S    ABASIS      S 
                                         1400     1410     1200     1210     1080     1600     1650     1700   
                                           T        V       H0       H01     AOSYM     SMH    MOLCAS    OPER   

              2       3        2.21       700     1000     2100   
                                         GEOM     BASIS     RHF  

 PROGRAMS   *        TOTAL  UCCSD(T)       RHF       INT
 CPU TIMES  *      6799.92   6719.79     49.72     30.32
 REAL TIME  *      6942.26 SEC
 DISK USED  *        16.11 GB      
 SF USED    *         6.57 GB      
 GA USED    *         0.01 MB       (max)       0.00 MB       (current)
 **********************************************************************************************************************************

        UCCSD(T)        RHF-SCF 
   -268.43539258   -267.37586387
 **********************************************************************************************************************************
 Variable memory released
