
 Working directory              : /scratch/mel64643/tmp/40073435/
 Global scratch directory       : /scratch/mel64643/tmp/40073435/
 Wavefunction directory         : /home/mel64643/wfu/
 Main file repository           : /scratch/mel64643/tmp/40073435/

 id        : ccgc

 Nodes     nprocs
 a1-8         3
 Distribution of processes:   nprocs(total)=    4   nprocs(compute)=    3   nprocs(helper)=    1
 GA implementation: MPI file
 GA implementation (serial work in mppx): MPI file

 Using customized tuning parameters: mindgm=1; mindgv=20; mindgc=4; mindgr=1; noblas=0; minvec=7
 default implementation of scratch files=sf  


 Variables initialized (1015), CPU time= 0.01 sec
 ***,Optimization of min3
 memory,1000,m
 gthresh,energy=1.0d-12,orbital=1.0d-10,oneint=1.0d-16,twoint=1.0d-16,optgrad=1.0d-6,compress=1.0d-13
 geomtyp=xyz
 
  bohr
  geometry = {
  6
  arbitrary comment
  C   -1.3681011760   -0.0238069818    0.0027959906
  O    1.3024192368    0.1259709587    0.0003718921
  H   -2.0788561209    1.9061541867    0.0089284994
  H   -2.0942730972   -0.9716854573    1.6756442603
  H   -2.0980774769   -0.9888734183   -1.6884416915
  H    1.9131644743   -1.5778914078    0.0006926393
 }
 
 basis=cc-pvdz
 {rhf;maxit,200}
 {ccsd(t);maxit,200}
 Commands initialized (818), CPU time= 0.01 sec, 672 directives.
 Default parameters read. Elapsed time= 0.09 sec

 Checking input...
 Passed
1


                                         ***  PROGRAM SYSTEM MOLPRO  ***
                                       Copyright, TTI GmbH Stuttgart, 2015
                                    Version 2022.1 linked Mar  4 2022 00:40:14


 **********************************************************************************************************************************
 LABEL *   Optimization of min3                                                          
  64 bit mpp version                                                                     DATE: 07-Aug-25          TIME: 21:27:04  
 **********************************************************************************************************************************

 SHA1:             31073afc4d8441e10870424e0d77336a33bc4286
 **********************************************************************************************************************************

 Memory per process:      1000 MW
 Total memory per node:   3000 MW

 GA preallocation disabled
 GA check disabled

 Variable memory set to 1000.0 MW


 THRESHOLDS:

 ZERO    =  1.00D-12  ONEINT  =  1.00D-16  TWOINT  =  1.00D-16  PREFAC  =  1.00D-14  XXXXXX  =  1.00D-09  EORDER  =  1.00D-04
 ENERGY  =  1.00D-12  ETEST   =  0.00D+00  EDENS   =  0.00D+00  THRDEDEF=  1.00D-06  GRADIENT=  1.00D-05  STEP    =  1.00D-03
 ORBITAL =  1.00D-10  CIVEC   =  1.00D-05  COEFF   =  1.00D-04  PRINTCI =  5.00D-02  PUNCHCI =  9.90D+01  OPTGRAD =  1.00D-06
 OPTENERG=  1.00D-06  OPTSTEP =  3.00D-04  THRGRAD =  1.00D-10  COMPRESS=  1.00D-13  VARMIN  =  1.00D-07  VARMAX  =  1.00D-03
 THRDOUB =  0.00D+00  THRDIV  =  1.00D-05  THRRED  =  1.00D-07  THRPSP  =  1.00D+00  THRDC   =  1.00D-10  THRCS   =  1.00D-10
 THRNRM  =  1.00D-08  THREQ   =  0.00D+00  THRDE   =  1.00D+00  THRREF  =  1.00D-05  SPARFAC =  1.00D+00  THRDLP  =  1.00D-07
 THRDIA  =  1.00D-10  THRDLS  =  1.00D-07  THRGPS  =  0.00D+00  THRKEX  =  0.00D+00  THRDIS  =  2.00D-01  THRVAR  =  1.00D-10
 THRLOC  =  1.00D-06  THRGAP  =  1.00D-06  THRLOCT = -1.00D+00  THRGAPT = -1.00D+00  THRORB  =  1.00D-06  THRMLTP =  0.00D+00
 THRCPQCI=  1.00D-10  KEXTA   =  0.00D+00  THRCOARS=  0.00D+00  SYMTOL  =  1.00D-06  GRADTOL =  1.00D-06  THROVL  =  1.00D-08
 THRORTH =  1.00D-08  THRDLOVL= -1.00D+00  GRID    =  1.00D-06  GRIDMAX =  1.00D-03  DTMAX   =  0.00D+00  THROCCDE=  1.00D-01
 THROCCDE=  1.00D-01  THRPRINT=  2.50D-01

 SETTING GEOMTYP        =    XYZ
 ZUNIT=BOHR

 SETTING BASIS          =    CC-PVDZ


 Recomputing integrals since basis changed


 Using spherical harmonics

 Library entry C      S cc-pVDZ              selected for orbital group  1
 Library entry C      P cc-pVDZ              selected for orbital group  1
 Library entry C      D cc-pVDZ              selected for orbital group  1
 Library entry O      S cc-pVDZ              selected for orbital group  2
 Library entry O      P cc-pVDZ              selected for orbital group  2
 Library entry O      D cc-pVDZ              selected for orbital group  2
 Library entry H      S cc-pVDZ              selected for orbital group  3
 Library entry H      P cc-pVDZ              selected for orbital group  3


 PROGRAM * SEWARD (Integral evaluation for generally contracted gaussian basis sets)     Author: Roland Lindh, 1990

 Geometry written to block  1 of record 700


 Point group  C1  



 ATOMIC COORDINATES

 NR  ATOM    CHARGE       X              Y              Z

   1  C       6.00   -1.368101176   -0.023806982    0.002795991
   2  O       8.00    1.302419237    0.125970959    0.000371892
   3  H       1.00   -2.078856121    1.906154187    0.008928499
   4  H       1.00   -2.094273097   -0.971685457    1.675644260
   5  H       1.00   -2.098077477   -0.988873418   -1.688441692
   6  H       1.00    1.913164474   -1.577891408    0.000692639

 Bond lengths in Bohr (Angstrom)

 1-2  2.674718412  1-3  2.056686731  1-4  2.055290879  1-5  2.079544066  2-6  1.810015694
     ( 1.415400029)     ( 1.088351748)     ( 1.087613095)     ( 1.100447329)     ( 0.957819057)

 Bond angles

  1-2-6  106.50996595   2-1-3  107.00741908   2-1-4  112.29199967   2-1-5  112.06920612

  3-1-4  107.95350371   3-1-5  108.45727733   4-1-5  108.89837022

 NUCLEAR CHARGE:                   18
 NUMBER OF PRIMITIVE AOS:          82
 NUMBER OF SYMMETRY AOS:           80
 NUMBER OF CONTRACTIONS:           48   (   48A   )
 NUMBER OF INNER CORE ORBITALS:     0   (    0A   )
 NUMBER OF OUTER CORE ORBITALS:     2   (    2A   )
 NUMBER OF VALENCE ORBITALS:       12   (   12A   )


 NUCLEAR REPULSION ENERGY   40.42450638

 Eigenvalues of metric

         1 0.963E-02 0.175E-01 0.365E-01 0.376E-01 0.381E-01 0.468E-01 0.480E-01 0.514E-01


 Contracted 2-electron integrals neglected if value below      1.0D-16
 AO integral compression algorithm  1   Integral accuracy      1.0D-16

     7.340 MB (compressed) written to integral file (100.0%)

     Node minimum: 2.359 MB, node maximum: 2.621 MB


 NUMBER OF SORTED TWO-ELECTRON INTEGRALS:     231084.     BUFFER LENGTH:  32768
 NUMBER OF SEGMENTS:   1  SEGMENT LENGTH:     231084      RECORD LENGTH: 524288

 Memory used in sort:       0.79 MW

 SORT1 READ      832256. AND WROTE      227683. INTEGRALS IN      1 RECORDS. CPU TIME:     0.01 SEC, REAL TIME:     0.02 SEC
 SORT2 READ      682150. AND WROTE      692076. INTEGRALS IN     27 RECORDS. CPU TIME:     0.01 SEC, REAL TIME:     0.01 SEC

 Node minimum:      230300.  Node maximum:      231084. integrals

 OPERATOR DM      FOR CENTER  0  COORDINATES:    0.000000    0.000000    0.000000


 **********************************************************************************************************************************
 DATASETS  * FILE   NREC   LENGTH (MB)   RECORD NAMES
              1      18       28.73       500      610      700      900      950      970     1000      129      960     1100   
                                          VAR    BASINP    GEOM    SYMINP    ZMAT    AOBASIS   BASIS     P2S    ABASIS      S 
                                         1400     1410     1200     1210     1080     1600     1650     1700   
                                           T        V       H0       H01     AOSYM     SMH    MOLCAS    OPER   

 PROGRAMS   *        TOTAL       INT
 CPU TIMES  *         0.36      0.24
 REAL TIME  *         1.07 SEC
 DISK USED  *        29.07 MB (local),      104.69 MB (total)
 GA USED    *         0.00 MB       (max)       0.00 MB       (current)
 **********************************************************************************************************************************


 Program * Restricted Hartree-Fock

 Orbital guess generated from atomic densities. Full valence occupancy:   14

 Initial occupancy:   9

 NELEC=   18   SYM=1   MS2= 0   THRE=1.0D-12   THRD=1.0D-10   THRG=1.0D-10  HFMA2=F  DIIS_START=2   DIIS_MAX=10   DIIS_INCORE=F

 Level shifts:    0.00 (CLOSED)    0.00 (OPEN)    0.30 (GAP_MIN)

 ITER           ETOT              DE          GRAD        DDIFF     DIIS  NEXP   TIME(IT)  TIME(TOT)  DIAG
   1     -115.01422550    -115.01422550     0.00D+00     0.16D+00     0     0       0.01      0.01    start
   2     -115.04266710      -0.02844160     0.10D-01     0.21D-01     1     0       0.00      0.01    diag
   3     -115.04866255      -0.00599545     0.48D-02     0.64D-02     2     0       0.00      0.01    diag
   4     -115.04912606      -0.00046352     0.10D-02     0.20D-02     3     0       0.00      0.01    diag
   5     -115.04914714      -0.00002107     0.19D-03     0.43D-03     4     0       0.00      0.01    diag
   6     -115.04914794      -0.00000080     0.33D-04     0.93D-04     5     0       0.02      0.03    diag
   7     -115.04914797      -0.00000003     0.68D-05     0.15D-04     6     0       0.00      0.03    diag
   8     -115.04914797      -0.00000000     0.22D-05     0.50D-05     7     0       0.00      0.03    fixocc
   9     -115.04914797      -0.00000000     0.45D-06     0.14D-05     8     0       0.00      0.03    diag
  10     -115.04914797      -0.00000000     0.74D-07     0.24D-06     9     0       0.00      0.03    diag/orth
  11     -115.04914797      -0.00000000     0.18D-07     0.48D-07     9     0       0.00      0.03    diag
  12     -115.04914797       0.00000000     0.45D-08     0.14D-07     9     0       0.01      0.04    diag
  13     -115.04914797      -0.00000000     0.70D-09     0.20D-08     9     0       0.00      0.04    diag
  14     -115.04914797      -0.00000000     0.16D-09     0.42D-09     9     0       0.00      0.04    diag
  15     -115.04914797       0.00000000     0.70D-10     0.13D-09     9     0       0.00      0.04    diag
  16     -115.04914797      -0.00000000     0.21D-10     0.48D-10     9     0       0.00      0.04    diag
  17     -115.04914797       0.00000000     0.53D-11     0.88D-11     0     0       0.01      0.05    diag

 Final occupancy:   9

 !RHF STATE 1.1 Energy               -115.049147973893
  RHF One-electron energy            -237.099058864713
  RHF Two-electron energy              81.625404513868
  RHF Kinetic energy                  114.963078670050
  RHF Nuclear energy                   40.424506376953
  RHF Virial quotient                  -1.000748669093

 !RHF STATE 1.1 Dipole moment          -0.39268831    -0.59571228     0.00587374
 Dipole moment /Debye                  -0.99811413    -1.51414958     0.01492956

 Orbital energies:

           1.1          2.1          3.1          4.1          5.1          6.1          7.1          8.1          9.1         10.1
    -20.550123   -11.273930    -1.352940    -0.921065    -0.684425    -0.615175    -0.585977    -0.497581    -0.442909     0.184366

          11.1
      0.225189


 HOMO      9.1    -0.442909 =     -12.0522eV
 LUMO     10.1     0.184366 =       5.0169eV
 LUMO-HOMO         0.627275 =      17.0690eV

 Orbitals saved in record  2100.2


 **********************************************************************************************************************************
 DATASETS  * FILE   NREC   LENGTH (MB)   RECORD NAMES
              1      18       28.73       500      610      700      900      950      970     1000      129      960     1100   
                                          VAR    BASINP    GEOM    SYMINP    ZMAT    AOBASIS   BASIS     P2S    ABASIS      S 
                                         1400     1410     1200     1210     1080     1600     1650     1700   
                                           T        V       H0       H01     AOSYM     SMH    MOLCAS    OPER   

              2       4        0.47       700     1000      520     2100   
                                         GEOM     BASIS   MCVARS     RHF  

 PROGRAMS   *        TOTAL   RHF-SCF       INT
 CPU TIMES  *         0.41      0.05      0.24
 REAL TIME  *         1.35 SEC
 DISK USED  *        29.40 MB (local),      105.68 MB (total)
 GA USED    *         0.00 MB       (max)       0.00 MB       (current)
 **********************************************************************************************************************************


 PROGRAM * CCSD (Closed-shell coupled cluster)     Authors: C. Hampel, H.-J. Werner, 1991, M. Deegan, P.J. Knowles, 1992


 Convergence thresholds:  THRVAR = 1.00D-08  THRDEN = 1.00D-12

 CCSD(T)     terms to be evaluated (factor= 1.000)


 Number of core orbitals:           2 (   2 )
 Number of closed-shell orbitals:   7 (   7 )
 Number of external orbitals:      39 (  39 )

 Molecular orbitals read from record     2100.2  Type=RHF/CANONICAL  

 Number of N-1 electron functions:               7
 Number of N-2 electron functions:              28
 Number of singly external CSFs:               273
 Number of doubly external CSFs:             37401
 Total number of CSFs:                       37675

 Length of J-op  integral file:               0.00 MB
 Length of K-op  integral file:               0.16 MB
 Length of 3-ext integral record:             0.00 MB

 Memory could be reduced to 0.73 Mwords without degradation in triples

 Integral transformation finished. Total CPU:   0.02 sec, npass=  1  Memory used:   0.66 MW

 Reference energy:                   -115.04914797

 MP2 singlet pair energy:              -0.21850481
 MP2 triplet pair energy:              -0.11984872
 MP2 correlation energy:               -0.33835353
 MP2 total energy:                   -115.38750151

 SCS-MP2 correlation energy:           -0.33677831   (PS=  1.200000  PT=  0.333333)
 SCS-MP2 total energy:               -115.38592628

 ITER.      SQ.NORM     CORR.ENERGY   TOTAL ENERGY   ENERGY CHANGE        DEN1      VAR(S)    VAR(P)  DIIS     TIME  TIME/IT
   1      1.10713068    -0.36114422  -115.41029219    -0.02279069    -0.01414017  0.91D-03  0.17D-02  1  1     0.04     0.05
   2      1.11561225    -0.36307953  -115.41222750    -0.00193531    -0.00922348  0.19D-04  0.16D-03  2  2     0.05     0.04
   3      1.11747206    -0.36320502  -115.41235299    -0.00012549    -0.00119326  0.93D-05  0.85D-05  3  3     0.07     0.04
   4      1.11797988    -0.36320361  -115.41235158     0.00000141    -0.00025231  0.31D-06  0.66D-06  4  4     0.09     0.03
   5      1.11807559    -0.36320404  -115.41235201    -0.00000043    -0.00003539  0.94D-07  0.48D-07  5  5     0.11     0.03
   6      1.11809388    -0.36320272  -115.41235070     0.00000131    -0.00000425  0.15D-07  0.39D-08  6  6     0.13     0.03
   7      1.11809841    -0.36320232  -115.41235029     0.00000040    -0.00000034  0.19D-08  0.68D-09  6  1     0.14     0.03
   8      1.11809962    -0.36320242  -115.41235039    -0.00000010     0.00000072  0.25D-09  0.67D-10  6  3     0.16     0.03
   9      1.11810064    -0.36320230  -115.41235027     0.00000012    -0.00000037  0.12D-10  0.10D-10  6  2     0.18     0.03
  10      1.11810057    -0.36320230  -115.41235028    -0.00000000     0.00000007  0.10D-11  0.82D-12  6  5     0.20     0.03
  11      1.11810060    -0.36320230  -115.41235027     0.00000000    -0.00000000  0.18D-12  0.48D-13  6  4     0.22     0.03
  12      1.11810059    -0.36320230  -115.41235028    -0.00000000     0.00000001  0.19D-13  0.93D-14  6  1     0.23     0.03
  13      1.11810059    -0.36320230  -115.41235028    -0.00000000    -0.00000000  0.26D-14  0.92D-15  6  6     0.25     0.03
  14      1.11810059    -0.36320230  -115.41235028     0.00000000    -0.00000000  0.30D-15  0.13D-15  6  3     0.27     0.03
  15      1.11810059    -0.36320230  -115.41235028    -0.00000000    -0.00000000  0.50D-16  0.19D-16  6  2     0.29     0.03
  16      1.11810059    -0.36320230  -115.41235028    -0.00000000    -0.00000000  0.73D-17  0.19D-17  6  4     0.30     0.03
  17      1.11810059    -0.36320230  -115.41235028    -0.00000000    -0.00000000  0.17D-17  0.27D-18  6  5     0.32     0.03
  18      1.11810059    -0.36320230  -115.41235028     0.00000000    -0.00000000  0.28D-18  0.73D-19  6  6     0.34     0.03
  19      1.11810059    -0.36320230  -115.41235028     0.00000000     0.00000000  0.19D-19  0.61D-20  6  1     0.36     0.03
  20      1.11810059    -0.36320230  -115.41235028    -0.00000000     0.00000000  0.17D-20  0.90D-21  6  2     0.37     0.03

 Norm of t1 vector:      0.04142907      S-energy:    -0.00000000      T1 diagnostic:  0.00782936
                                                                       D1 diagnostic:  0.01724507
                                                                       D2 diagnostic:  0.13414434 (internal)


 Total CPU time for triples:      0.08 sec


 RESULTS
 =======

  Reference energy                   -115.049147973893
  CCSD singlet pair energy             -0.254387575840
  CCSD triplet pair energy             -0.108814726915
  CCSD correlation energy              -0.363202302755

  Triples (T) contribution             -0.007718487018
  Total correlation energy             -0.370920789773

  CCSD total energy                  -115.412350276647
  CCSD[T] energy                     -115.420356390356
  CCSD-T energy                      -115.419919995683
 !CCSD(T) total energy               -115.420068763665

 Timing summary (sec):

 STEP                 CPU(USER)    SYS     CPU(TOT)    WALL
 Transformation          0.02      0.01      0.03      0.04
 CCSD iterations         0.35      0.06      0.41      0.71
 Triples                 0.08      0.01      0.09      0.08

 Program statistics:

 Available memory in ccsd:               999999795
 Min. memory needed in ccsd:                136177
 Max. memory used in ccsd:                  162910
 Max. memory used in cckext:                178997 (20 integral passes)



 **********************************************************************************************************************************
 DATASETS  * FILE   NREC   LENGTH (MB)   RECORD NAMES
              1      19       31.13       500      610      700      900      950      970     1000      129      960     1100   
                                          VAR    BASINP    GEOM    SYMINP    ZMAT    AOBASIS   BASIS     P2S    ABASIS      S 
                                         1400     1410     1200     1210     1080     1600     1650     1700     1380   
                                           T        V       H0       H01     AOSYM     SMH    MOLCAS    OPER     JKOP   

              2       4        0.47       700     1000      520     2100   
                                         GEOM     BASIS   MCVARS     RHF  

 PROGRAMS   *        TOTAL   CCSD(T)   RHF-SCF       INT
 CPU TIMES  *         0.90      0.49      0.05      0.24
 REAL TIME  *         2.25 SEC
 DISK USED  *        35.56 MB (local),      116.33 MB (total)
 SF USED    *         5.97 MB
 GA USED    *         0.00 MB       (max)       0.00 MB       (current)
 **********************************************************************************************************************************

 CCSD(T)/cc-pVDZ energy=   -115.420068763665

         CCSD(T)         RHF-SCF
   -115.42006876   -115.04914797
 **********************************************************************************************************************************
 Molpro calculation terminated
