
    -----------------------------------------------------------------------
          Psi4: An Open-Source Ab Initio Electronic Structure Package
                               Psi4 1.4a2.dev629 

                         Git: Rev {master} 2938fc2 dirty


    D. G. A. Smith, L. A. Burns, A. C. Simmonett, R. M. Parrish,
    M. C. Schieber, R. Galvelis, P. Kraus, H. Kruse, R. Di Remigio,
    A. Alenaizan, A. M. James, S. Lehtola, J. P. Misiewicz, M. Scheurer,
    R. A. Shaw, J. B. Schriber, Y. Xie, Z. L. Glick, D. A. Sirianni,
    J. S. O'Brien, J. M. Waldrop, A. Kumar, E. G. Hohenstein,
    B. P. Pritchard, B. R. Brooks, H. F. Schaefer III, A. Yu. Sokolov,
    K. Patkowski, A. E. DePrince III, U. Bozkaya, R. A. King,
    F. A. Evangelista, J. M. Turney, T. D. Crawford, C. D. Sherrill,
    J. Chem. Phys. 152(18) 184108 (2020). https://doi.org/10.1063/5.0006002

                            Additional Code Authors
    E. T. Seidl, C. L. Janssen, E. F. Valeev, M. L. Leininger,
    J. F. Gonthier, R. M. Richard, H. R. McAlexander, M. Saitow, X. Wang,
    P. Verma, and M. H. Lechner

             Previous Authors, Complete List of Code Contributors,
                       and Citations for Specific Modules
    https://github.com/psi4/psi4/blob/master/codemeta.json
    https://github.com/psi4/psi4/graphs/contributors
    http://psicode.org/psi4manual/master/introduction.html#citing-psifour

    -----------------------------------------------------------------------


    Psi4 started on: Wednesday, 21 September 2022 04:31PM

    Process ID: 87965
    Host:       n071
    PSIDATADIR: /opt/psi/4/master/share/psi4
    Memory:     500.0 MiB
    Threads:    1
    
  ==> Input File <==

--------------------------------------------------------------------------
# o-Benzyne preliminary computations

memory 14 gb

molecule {
  0 1
  units bohr
 C   -1.3762965432   -0.0251383213    0.0000006313
 O    1.3051472418    0.1204536465    0.0000007188
 H   -2.0780268391    1.9062646025   -0.0000803862
 H   -2.1075337482   -0.9769718569    1.6765243040
 H   -2.1075267664   -0.9771021581   -1.6764520071
 H    1.9405124950   -1.5776380327   -0.0000016710
}

set {
  basis cc-pvtz
  reference rhf
  e_convergence 10 
  d_convergence 10
  r_convergence 8
  maxiter 300
  freeze_core True
}

e, wfn = energy('ccsd(t)', return_wfn = True)
psi4.print_out('Giraffe The Energy is %.12f \n'%(e))
--------------------------------------------------------------------------

  Memory set to  13.039 GiB by Python driver.

Scratch directory: /tmp/

*** tstart() called on n071
*** at Wed Sep 21 16:31:55 2022

   => Loading Basis Set <=

    Name: CC-PVTZ
    Role: ORBITAL
    Keyword: BASIS
    atoms 1   entry C          line   186 file /opt/psi/4/master/share/psi4/basis/cc-pvtz.gbs 
    atoms 2   entry O          line   262 file /opt/psi/4/master/share/psi4/basis/cc-pvtz.gbs 
    atoms 3-6 entry H          line    23 file /opt/psi/4/master/share/psi4/basis/cc-pvtz.gbs 


         ---------------------------------------------------------
                                   SCF
               by Justin Turney, Rob Parrish, Andy Simmonett
                          and Daniel G. A. Smith
                              RHF Reference
                        1 Threads,  13351 MiB Core
         ---------------------------------------------------------

  ==> Geometry <==

    Molecular point group: c1
    Full point group: C1

    Geometry (in Bohr), charge = 0, multiplicity = 1:

       Center              X                  Y                   Z               Mass       
    ------------   -----------------  -----------------  -----------------  -----------------
         C           -1.375469916722    -0.024726761952     0.000000342909    12.000000000000
         O            1.305973868278     0.120865205848     0.000000430409    15.994914619570
         H           -2.077200212622     1.906676161848    -0.000080674591     1.007825032230
         H           -2.106707121722    -0.976560297552     1.676524015609     1.007825032230
         H           -2.106700139922    -0.976690598752    -1.676452295491     1.007825032230
         H            1.941339121478    -1.577226473352    -0.000001959391     1.007825032230

  Running in c1 symmetry.

  Rotational constants: A =      4.30007  B =      0.82759  C =      0.79829 [cm^-1]
  Rotational constants: A = 128912.84609  B =  24810.40532  C =  23932.20152 [MHz]
  Nuclear repulsion =   40.337276110234782

  Charge       = 0
  Multiplicity = 1
  Electrons    = 18
  Nalpha       = 9
  Nbeta        = 9

  ==> Algorithm <==

  SCF Algorithm Type is PK.
  DIIS enabled.
  MOM disabled.
  Fractional occupation disabled.
  Guess Type is SAD.
  Energy threshold   = 1.00e-10
  Density threshold  = 1.00e-10
  Integral threshold = 0.00e+00

  ==> Primary Basis <==

  Basis Set: CC-PVTZ
    Blend: CC-PVTZ
    Number of shells: 44
    Number of basis function: 116
    Number of Cartesian functions: 130
    Spherical Harmonics?: true
    Max angular momentum: 3

  ==> Integral Setup <==

  Using in-core PK algorithm.
   Calculation information:
      Number of atoms:                   6
      Number of AO shells:              44
      Number of primitives:             84
      Number of atomic orbitals:       130
      Number of basis functions:       116

      Integral cutoff                 1.00e-12
      Number of threads:                 1

  Performing in-core PK
  Using 46056582 doubles for integral storage.
  We computed 490487 shell quartets total.
  Whereas there are 490545 unique shell quartets.

  ==> DiskJK: Disk-Based J/K Matrices <==

    J tasked:                  Yes
    K tasked:                  Yes
    wK tasked:                  No
    Memory [MiB]:            10013
    Schwarz Cutoff:          1E-12

    OpenMP threads:              1

  Minimum eigenvalue in the overlap matrix is 1.8341099621E-03.
  Reciprocal condition number of the overlap matrix is 2.7689001090E-04.
    Using symmetric orthogonalization.

  ==> Pre-Iterations <==

  SCF Guess: Superposition of Atomic Densities via on-the-fly atomic UHF (no occupation information).

   -------------------------
    Irrep   Nso     Nmo    
   -------------------------
     A        116     116 
   -------------------------
    Total     116     116
   -------------------------

  ==> Iterations <==

                        Total Energy        Delta E     RMS |[F,P]|

   @RHF iter SAD:  -114.41790906078616   -1.14418e+02   0.00000e+00 
   @RHF iter   1:  -115.01454209845457   -5.96633e-01   3.41357e-03 DIIS
   @RHF iter   2:  -115.07145179863952   -5.69097e-02   1.95167e-03 DIIS
   @RHF iter   3:  -115.08823388634519   -1.67821e-02   3.01534e-04 DIIS
   @RHF iter   4:  -115.08911834231046   -8.84456e-04   8.80784e-05 DIIS
   @RHF iter   5:  -115.08919227201127   -7.39297e-05   2.14309e-05 DIIS
   @RHF iter   6:  -115.08919714020607   -4.86819e-06   4.74246e-06 DIIS
   @RHF iter   7:  -115.08919750911527   -3.68909e-07   1.09979e-06 DIIS
   @RHF iter   8:  -115.08919753073259   -2.16173e-08   2.26753e-07 DIIS
   @RHF iter   9:  -115.08919753164081   -9.08216e-10   4.21004e-08 DIIS
   @RHF iter  10:  -115.08919753167044   -2.96296e-11   1.08736e-08 DIIS
   @RHF iter  11:  -115.08919753167264   -2.20268e-12   2.22975e-09 DIIS
   @RHF iter  12:  -115.08919753167285   -2.13163e-13   3.98392e-10 DIIS
   @RHF iter  13:  -115.08919753167248    3.69482e-13   7.32637e-11 DIIS
  Energy and wave function converged.


  ==> Post-Iterations <==

    Orbital Energies [Eh]
    ---------------------

    Doubly Occupied:                                                      

       1A    -20.552409     2A    -11.268665     3A     -1.353895  
       4A     -0.923989     5A     -0.688040     6A     -0.618346  
       7A     -0.590005     8A     -0.502354     9A     -0.449426  

    Virtual:                                                              

      10A      0.138486    11A      0.178731    12A      0.220368  
      13A      0.223903    14A      0.290575    15A      0.386650  
      16A      0.404283    17A      0.544673    18A      0.583523  
      19A      0.624459    20A      0.625173    21A      0.639129  
      22A      0.690276    23A      0.704088    24A      0.721530  
      25A      0.833483    26A      0.864836    27A      0.872291  
      28A      0.927985    29A      1.069255    30A      1.100852  
      31A      1.177749    32A      1.189888    33A      1.261987  
      34A      1.272607    35A      1.282626    36A      1.365304  
      37A      1.447421    38A      1.492094    39A      1.523614  
      40A      1.545404    41A      1.583076    42A      1.619769  
      43A      1.777358    44A      2.092423    45A      2.180061  
      46A      2.197769    47A      2.299832    48A      2.323474  
      49A      2.487735    50A      2.510783    51A      2.575895  
      52A      2.806127    53A      2.950576    54A      3.055451  
      55A      3.110443    56A      3.116165    57A      3.144624  
      58A      3.222266    59A      3.243372    60A      3.314473  
      61A      3.314617    62A      3.343289    63A      3.383687  
      64A      3.500120    65A      3.614503    66A      3.634367  
      67A      3.702266    68A      3.707395    69A      3.745155  
      70A      3.761404    71A      3.814959    72A      3.841314  
      73A      3.905639    74A      4.012030    75A      4.029129  
      76A      4.118160    77A      4.160664    78A      4.170981  
      79A      4.247996    80A      4.256162    81A      4.288038  
      82A      4.401506    83A      4.438450    84A      4.467254  
      85A      4.559729    86A      4.582642    87A      4.712207  
      88A      4.786796    89A      4.996823    90A      5.033113  
      91A      5.057598    92A      5.201289    93A      5.271905  
      94A      5.317570    95A      5.370050    96A      5.442273  
      97A      5.546656    98A      5.549587    99A      5.568492  
     100A      5.786703   101A      5.943818   102A      6.190872  
     103A      6.207959   104A      6.247945   105A      6.426214  
     106A      6.636946   107A      6.994765   108A      7.126021  
     109A      7.176563   110A      7.236466   111A      7.353209  
     112A      7.428844   113A      7.594822   114A      7.908217  
     115A     12.129261   116A     13.733882  

    Final Occupation by Irrep:
              A 
    DOCC [     9 ]

  @RHF Final Energy:  -115.08919753167248

   => Energetics <=

    Nuclear Repulsion Energy =             40.3372761102347823
    One-Electron Energy =                -236.9586852982760377
    Two-Electron Energy =                  81.5322116563687587
    Total Energy =                       -115.0891975316724825

Computation Completed


Properties will be evaluated at   0.000000,   0.000000,   0.000000 [a0]

Properties computed using the SCF density matrix

  Nuclear Dipole Moment: [e a0]
     X:    -2.1543      Y:    -0.8052      Z:    -0.0000

  Electronic Dipole Moment: [e a0]
     X:     1.7649      Y:     0.2160      Z:     0.0000

  Dipole Moment: [e a0]
     X:    -0.3894      Y:    -0.5892      Z:    -0.0000     Total:     0.7063

  Dipole Moment: [D]
     X:    -0.9898      Y:    -1.4977      Z:    -0.0000     Total:     1.7952


*** tstop() called on n071 at Wed Sep 21 16:31:59 2022
Module time:
	user time   =       4.34 seconds =       0.07 minutes
	system time =       0.08 seconds =       0.00 minutes
	total time  =          4 seconds =       0.07 minutes
Total time:
	user time   =       4.34 seconds =       0.07 minutes
	system time =       0.08 seconds =       0.00 minutes
	total time  =          4 seconds =       0.07 minutes
 MINTS: Wrapper to libmints.
   by Justin Turney

   Calculation information:
      Number of threads:                 1
      Number of atoms:                   6
      Number of AO shells:              44
      Number of SO shells:              44
      Number of primitives:             84
      Number of atomic orbitals:       130
      Number of basis functions:       116

      Number of irreps:                  1
      Integral cutoff                 0.00e+00
      Number of functions per irrep: [ 116 ]

 OEINTS: Overlap, kinetic, potential, dipole, and quadrupole integrals
         stored in file 35.

      Computing two-electron integrals...done
      Computed 22879367 non-zero two-electron integrals.
        Stored in file 33.


*** tstart() called on n071
*** at Wed Sep 21 16:32:01 2022


	Wfn Parameters:
	--------------------
	Wavefunction         = CCSD_T
	Number of irreps     = 1
	Number of MOs        = 116
	Number of active MOs = 114
	AO-Basis             = NONE
	Semicanonical        = false
	Reference            = RHF
	Print Level          = 1

	IRREP	# MOs	# FZDC	# DOCC	# SOCC	# VIRT	# FZVR
	-----	-----	------	------	------	------	------
	 A	   116	    2	    7	    0	    107	    0
	Transforming integrals...
	IWL integrals will be deleted.
	(OO|OO)...
	Presorting SO-basis two-electron integrals.
	Sorting File: SO Ints (nn|nn) nbuckets = 1
	Transforming the one-electron integrals and constructing Fock matrices
	Starting first half-transformation.
	Sorting half-transformed integrals.
	First half integral transformation complete.
	Starting second half-transformation.
	Two-electron integral transformation complete.
	(OO|OV)...
	Starting second half-transformation.
	Two-electron integral transformation complete.
	(OO|VV)...
	Starting second half-transformation.
	Two-electron integral transformation complete.
	(OV|OO)...
	Starting first half-transformation.
	Sorting half-transformed integrals.
	First half integral transformation complete.
	Starting second half-transformation.
	Two-electron integral transformation complete.
	(OV|OV)...
	Starting second half-transformation.
	Two-electron integral transformation complete.
	(OV|VV)...
	Starting second half-transformation.
	Two-electron integral transformation complete.
	(VV|OO)...
	Starting first half-transformation.
	Sorting half-transformed integrals.
	First half integral transformation complete.
	Starting second half-transformation.
	Two-electron integral transformation complete.
	(VV|OV)...
	Starting second half-transformation.
	Two-electron integral transformation complete.
	(VV|VV)...
	Starting second half-transformation.
	Two-electron integral transformation complete.
	Frozen core energy     =   -106.49778523668650

	Size of irrep 0 of <ab|cd> integrals:    131.080 (MW) /   1048.637 (MB)
	Total:                                   131.080 (MW) /   1048.637 (MB)

	Size of irrep 0 of <ia|bc> integrals:      8.575 (MW) /     68.602 (MB)
	Total:                                     8.575 (MW) /     68.602 (MB)

	Size of irrep 0 of tijab amplitudes:       0.561 (MW) /      4.488 (MB)
	Total:                                     0.561 (MW) /      4.488 (MB)

	Nuclear Rep. energy          =     40.33727611023478
	SCF energy                   =   -115.08919753167248
	One-electron energy          =    -87.60526334507875
	Two-electron energy          =     38.67657493985767
	Reference energy             =   -115.08919753167280

*** tstop() called on n071 at Wed Sep 21 16:32:14 2022
Module time:
	user time   =       9.04 seconds =       0.15 minutes
	system time =       3.73 seconds =       0.06 minutes
	total time  =         13 seconds =       0.22 minutes
Total time:
	user time   =      14.98 seconds =       0.25 minutes
	system time =       3.99 seconds =       0.07 minutes
	total time  =         19 seconds =       0.32 minutes
            **************************
            *                        *
            *        CCENERGY        *
            *                        *
            **************************

    Nuclear Rep. energy (wfn)     =   40.337276110234782
    SCF energy          (wfn)     = -115.089197531672482
    Reference energy    (file100) = -115.089197531672795

    Input parameters:
    -----------------
    Wave function   =     CCSD_T
    Reference wfn   =     RHF
    Brueckner       =     No
    Memory (Mbytes) =     14000.0
    Maxiter         =    300
    R_Convergence   =     1.0e-08
    E_Convergence   =     1.0e-10
    Restart         =     Yes
    DIIS            =     Yes
    AO Basis        =     NONE
    ABCD            =     NEW
    Cache Level     =     2
    Cache Type      =     LOW
    Print Level     =     1
    Num. of threads =     1
    # Amps to Print =     10
    Print MP2 Amps? =     No
    Analyze T2 Amps =     No
    Print Pair Ener =     No
    Local CC        =     No
    SCS-MP2         =     False
    SCSN-MP2        =     False
    SCS-CCSD        =     False

MP2 correlation energy -0.4282708864755547
                Solving CC Amplitude Equations
                ------------------------------
  Iter             Energy              RMS        T1Diag      D1Diag    New D1Diag    D2Diag
  ----     ---------------------    ---------   ----------  ----------  ----------   --------
     0        -0.428270886475555    0.000e+00    0.000000    0.000000    0.000000    0.128370
     1        -0.435565509498896    4.775e-02    0.007294    0.014802    0.014802    0.129705
     2        -0.445378110867784    1.571e-02    0.007413    0.014748    0.014748    0.135489
     3        -0.446844046549142    5.509e-03    0.008317    0.016863    0.016863    0.136937
     4        -0.446752676674006    1.216e-03    0.008378    0.017020    0.017020    0.137174
     5        -0.446795506303736    4.442e-04    0.008417    0.017168    0.017168    0.137276
     6        -0.446802926849979    1.280e-04    0.008428    0.017226    0.017226    0.137284
     7        -0.446800447164515    4.753e-05    0.008431    0.017243    0.017243    0.137282
     8        -0.446800475629269    1.752e-05    0.008432    0.017253    0.017253    0.137282
     9        -0.446800554812611    4.941e-06    0.008433    0.017255    0.017255    0.137281
    10        -0.446800306019322    1.563e-06    0.008433    0.017255    0.017255    0.137281
    11        -0.446800371073589    4.865e-07    0.008433    0.017255    0.017255    0.137281
    12        -0.446800356425461    1.198e-07    0.008433    0.017255    0.017255    0.137281
    13        -0.446800359943391    4.342e-08    0.008433    0.017255    0.017255    0.137281
    14        -0.446800361149783    1.226e-08    0.008433    0.017255    0.017255    0.137281
    15        -0.446800361186534    5.079e-09    0.008433    0.017255    0.017255    0.137281
    16        -0.446800361209528    1.559e-09    0.008433    0.017255    0.017255    0.137281

    Iterations converged.


    Largest TIA Amplitudes:
              3   6        -0.0081339890
              3  14         0.0075980785
              6  14        -0.0067470295
              3   9         0.0066624799
              4   7         0.0059184946
              5   8         0.0058199078
              4   3        -0.0057712706
              6   6         0.0054859792
              3   2         0.0053514788
              4   5        -0.0051551935

    Largest TIjAb Amplitudes:
      3   3   9   9        -0.0231676373
      4   4   7   7        -0.0216928330
      6   6  14  14        -0.0211468037
      5   5  12  12        -0.0204206606
      2   2   7   7        -0.0190199984
      4   4   8   8        -0.0160654506
      3   3  14  14        -0.0151919730
      3   3   2   9        -0.0150643533
      3   3   9   2        -0.0150643533
      5   5   7   7        -0.0150175486

    SCF energy       (wfn)                    = -115.089197531672482
    Reference energy (file100)                = -115.089197531672795

    Opposite-spin MP2 correlation energy      =   -0.330069505308217
    Same-spin MP2 correlation energy          =   -0.098201381167338
    Singles MP2 correlation energy            =   -0.000000000000000
    MP2 correlation energy                    =   -0.428270886475555
      * MP2 total energy                      = -115.517468418148354

    Opposite-spin CCSD correlation energy     =   -0.357623293963856
    Same-spin CCSD correlation energy         =   -0.089177067245673
    Singles CCSD correlation energy           =    0.000000000000000
    CCSD correlation energy                   =   -0.446800361209528
      * CCSD total energy                     = -115.535997892882321

            **************************
            *                        *
            *        CCTRIPLES       *
            *                        *
            **************************


    Wave function   =    CCSD_T
    Reference wfn   =      RHF

    Nuclear Rep. energy (wfn)                =   40.337276110234782
    SCF energy          (wfn)                = -115.089197531672482
    Reference energy    (file100)            = -115.089197531672795
    CCSD energy         (file100)            =   -0.446800361209528
    Total CCSD energy   (file100)            = -115.535997892882321

    Number of ijk index combinations:               84
    Memory available in words        :      1750000000
    ~Words needed per explicit thread:         4900172
    Number of threads for explicit ijk threading:    1

    MKL num_threads set to 1 for explicit threading.

    (T) energy                                =   -0.014771781301927
      * CCSD(T) total energy                  = -115.550769674184252

Giraffe The Energy is -115.550769674184 

    Psi4 stopped on: Wednesday, 21 September 2022 04:32PM
    Psi4 wall time for execution: 0:00:53.60

*** Psi4 exiting successfully. Buy a developer a beer!
