
 Primary working directories    : /tmp/795519.140.gen4.q
 Secondary working directories  : /tmp/795519.140.gen4.q
 Wavefunction directory         : /home/vulcan/mel64643/wfu/
 Main file repository           : /tmp/795519.140.gen4.q/

 ARCHNAME  : Linux/x86_64
 FC        : /opt/intel/compilers_and_libraries_2016.1.150/linux/bin/intel64/ifort
 FCVERSION : 16.0.1
 BLASLIB   : -mkl
 id        : ccgc

 Nodes     nprocs
 n054         1
 ga_uses_ma=false, calling ma_init with nominal heap.
 GA-space will be limited to   8.0 MW (determined by -G option)

 Using customized tuning parameters: mindgm=10; mindgv=16; mindgc=4; mindgr=1; noblas=0; mincuda=1000; minvec=7
 default implementation of scratch files=df  

 ***,Optimization of min3
 memory,1000,m
 gthresh,energy=1.0d-12,orbital=1.0d-10,oneint=1.0d-16,twoint=1.0d-16,optgrad=1.0d-6,compress=1.0d-13
 geomtyp=xyz
 
  bohr
  geometry = {
  6
  arbitrary comment
  C   -1.3741749591   -0.0242348632    0.0008259099
  O    1.3074592745    0.1211883553   -0.0015513246
  H   -2.0775927397    1.9144130263    0.0008519479
  H   -2.1164918225   -0.9808741998    1.6889832417
  H   -2.1031411750   -0.9836218882   -1.6847271062
  H    1.9402172619   -1.5770025505   -0.0043910787
 }
 
 basis=cc-pvdz
 {rhf;maxit,200}
 {ccsd(t);maxit,200}

 Variables initialized (661), CPU time= 0.00 sec
 Commands  initialized (458), CPU time= 0.01 sec, 486 directives.
 Default parameters read. Elapsed time= 0.04 sec

 Checking input...
 Passed
1


                                         ***  PROGRAM SYSTEM MOLPRO  ***
                         Copyright, University College Cardiff Consultants Limited, 2008

                                    Version 2010.1 linked May 16 2016 07:17:05


 **********************************************************************************************************************************
 LABEL *   Optimization of min3                                                          
 Linux-4.4.3/n054(x86_64) 64 bit mpp version                                             DATE: 24-Oct-22          TIME: 15:43:51  
 **********************************************************************************************************************************

 SHA1:             9e8077add272b0f3cad6f7df79ec5211205f459d
 **********************************************************************************************************************************

 THRESHOLDS:

 ZERO    =  1.00D-12  ONEINT  =  1.00D-16  TWOINT  =  1.00D-16  PREFAC  =  1.00D-14  LOCALI  =  1.00D-09  EORDER  =  1.00D-04
 ENERGY  =  1.00D-12  ETEST   =  0.00D+00  EDENS   =  0.00D+00  THRDEDEF=  1.00D-06  GRADIENT=  1.00D-02  STEP    =  1.00D-03
 ORBITAL =  1.00D-10  CIVEC   =  1.00D-05  COEFF   =  1.00D-04  PRINTCI =  5.00D-02  PUNCHCI =  9.90D+01  OPTGRAD =  1.00D-06
 OPTENERG=  1.00D-06  OPTSTEP =  3.00D-04  THRGRAD =  1.00D-10  COMPRESS=  1.00D-13  VARMIN  =  1.00D-07  VARMAX  =  1.00D-03
 THRDOUB =  0.00D+00  THRDIV  =  1.00D-05  THRRED  =  1.00D-07  THRPSP  =  1.00D+00  THRDC   =  1.00D-10  THRCS   =  1.00D-10
 THRNRM  =  1.00D-08  THREQ   =  0.00D+00  THRDE   =  1.00D+00  THRREF  =  1.00D-05  SPARFAC =  1.00D+00  THRDLP  =  1.00D-07
 THRDIA  =  1.00D-10  THRDLS  =  1.00D-07  THRGPS  =  0.00D+00  THRKEX  =  0.00D+00  THRDIS  =  2.00D-01  THRVAR  =  1.00D-10
 THRLOC  =  1.00D-06  THRGAP  =  1.00D-06  THRLOCT = -1.00D+00  THRGAPT = -1.00D+00  THRORB  =  1.00D-06  THRMLTP =  0.00D+00
 THRCPQCI=  1.00D-10  KEXTA   =  0.00D+00  THRCOARS=  0.00D+00  SYMTOL  =  1.00D-06  GRADTOL =  1.00D-06  THROVL  =  1.00D-08
 THRORTH =  1.00D-08  GRID    =  1.00D-06  GRIDMAX =  1.00D-03  DTMAX   =  0.00D+00

 SETTING GEOMTYP        =    XYZ
 ZUNIT=BOHR
 

 Variable memory set to 1000000000 words,  buffer space   230000 words

 SETTING BASIS          =    CC-PVDZ


 Recomputing integrals since basis changed


 Using spherical harmonics

 Library entry C      S cc-pVDZ              selected for orbital group  1
 Library entry C      P cc-pVDZ              selected for orbital group  1
 Library entry C      D cc-pVDZ              selected for orbital group  1
 Library entry O      S cc-pVDZ              selected for orbital group  2
 Library entry O      P cc-pVDZ              selected for orbital group  2
 Library entry O      D cc-pVDZ              selected for orbital group  2
 Library entry H      S cc-pVDZ              selected for orbital group  3
 Library entry H      P cc-pVDZ              selected for orbital group  3

1PROGRAM * SEWARD (Integral evaluation for generally contracted gaussian basis sets)     Author: Roland Lindh, 1990

 Geometry written to block  1 of record 700


 Point group  C1  



 ATOMIC COORDINATES

 NR  ATOM    CHARGE       X              Y              Z

   1  C       6.00   -1.374174959   -0.024234863    0.000825910
   2  O       8.00    1.307459274    0.121188355   -0.001551325
   3  H       1.00   -2.077592740    1.914413026    0.000851948
   4  H       1.00   -2.116491823   -0.980874200    1.688983242
   5  H       1.00   -2.103141175   -0.983621888   -1.684727106
   6  H       1.00    1.940217262   -1.577002551   -0.004391079

 Bond lengths in Bohr (Angstrom)

 1-2  2.685575493  1-3  2.062317195  1-4  2.077514939  1-5  2.071932474  2-6  1.812248076
     ( 1.421145344)     ( 1.091331258)     ( 1.099373557)     ( 1.096419444)     ( 0.959000379)

 Bond angles

  1-2-6  107.33173399   2-1-3  106.83868773   2-1-4  112.48486691   2-1-5  112.06549230

  3-1-4  108.11818447   3-1-5  108.37777401   4-1-5  108.79134105

 NUCLEAR CHARGE:                   18
 NUMBER OF PRIMITIVE AOS:          82
 NUMBER OF SYMMETRY AOS:           80
 NUMBER OF CONTRACTIONS:           48   (  48A   )
 NUMBER OF CORE ORBITALS:           2   (   2A   )
 NUMBER OF VALENCE ORBITALS:       12   (  12A   )


 NUCLEAR REPULSION ENERGY   40.27406576


 Eigenvalues of metric

         1 0.968E-02 0.177E-01 0.371E-01 0.378E-01 0.382E-01 0.476E-01 0.484E-01 0.519E-01


 Contracted 2-electron integrals neglected if value below      1.0D-16
 AO integral compression algorithm  1   Integral accuracy      1.0D-16

     6.816 MB (compressed) written to integral file (100.0%)

     Node minimum: 6.816 MB, node maximum: 6.816 MB


 NUMBER OF SORTED TWO-ELECTRON INTEGRALS:     692076.     BUFFER LENGTH:  32768
 NUMBER OF SEGMENTS:   1  SEGMENT LENGTH:     692076      RECORD LENGTH: 524288

 Memory used in sort:       1.25 MW

 SORT1 READ      832256. AND WROTE      682150. INTEGRALS IN      2 RECORDS. CPU TIME:     0.00 SEC, REAL TIME:     0.01 SEC
 SORT2 READ      682150. AND WROTE      692076. INTEGRALS IN     26 RECORDS. CPU TIME:     0.02 SEC, REAL TIME:     0.02 SEC

 FILE SIZES:   FILE 1:     8.4 MBYTE,  FILE 4:     8.4 MBYTE,   TOTAL:     16.8 MBYTE

 OPERATOR DM      FOR CENTER  0  COORDINATES:    0.000000    0.000000    0.000000


 **********************************************************************************************************************************
 DATASETS  * FILE   NREC   LENGTH (MB)   RECORD NAMES
              1      19        8.41       500      610      700      900      950      970     1000      129      960     1100   
                                          VAR    BASINP    GEOM    SYMINP    ZMAT    AOBASIS   BASIS     P2S    ABASIS      S 
                                         1400     1410     1200     1210     1080     1600     1650     1300     1700   
                                           T        V       H0       H01     AOSYM     SMH    MOLCAS    ERIS     OPER   

 PROGRAMS   *        TOTAL       INT
 CPU TIMES  *         0.22      0.18
 REAL TIME  *         0.41 SEC
 DISK USED  *        24.24 MB      
 GA USED    *         0.00 MB       (max)       0.00 MB       (current)
 **********************************************************************************************************************************

1PROGRAM * RHF-SCF (CLOSED SHELL)       Authors: W. Meyer, H.-J. Werner


 NUMBER OF ELECTRONS:       9+    9-    SPACE SYMMETRY=1    SPIN SYMMETRY: Singlet 
 CONVERGENCE THRESHOLDS:    1.00E-10 (Density)    1.00E-13 (Energy)
 MAX. NUMBER OF ITERATIONS:      200
 INTERPOLATION TYPE:            DIIS
 INTERPOLATION STEPS:              2 (START)      1 (STEP)
 LEVEL SHIFTS:                  0.00 (CLOSED)  0.00 (OPEN) 



 Orbital guess generated from atomic densities. Full valence occupancy:   14

 Molecular orbital dump at record        2100.2

 ITERATION    DDIFF          GRAD             ENERGY        2-EL.EN.            DIPOLE MOMENTS         DIIS
    1      0.000D+00      0.000D+00      -115.01416898    164.318234   -0.49653   -0.90065    0.00038    0
    2      0.000D+00      0.110D-01      -115.04253485    162.106777   -0.31561   -0.53503   -0.00111    1
    3      0.205D-01      0.531D-02      -115.04859631    163.129223   -0.39964   -0.61031   -0.00104    2
    4      0.640D-02      0.112D-02      -115.04905955    162.973450   -0.38929   -0.59924   -0.00120    3
    5      0.204D-02      0.202D-03      -115.04908053    162.980073   -0.39203   -0.59495   -0.00124    4
    6      0.434D-03      0.353D-04      -115.04908133    162.980076   -0.39232   -0.59475   -0.00125    5
    7      0.926D-04      0.721D-05      -115.04908136    162.978943   -0.39244   -0.59458   -0.00125    6
    8      0.149D-04      0.231D-05      -115.04908136    162.979322   -0.39247   -0.59456   -0.00125    7
    9      0.487D-05      0.486D-06      -115.04908136    162.979279   -0.39249   -0.59456   -0.00125    6
   10      0.139D-05      0.850D-07      -115.04908136    162.979278   -0.39249   -0.59456   -0.00125    6
   11      0.229D-06      0.319D-07      -115.04908136    162.979284   -0.39249   -0.59456   -0.00125    6
   12      0.578D-07      0.131D-07      -115.04908136    162.979282   -0.39249   -0.59456   -0.00125    7
   13      0.242D-07      0.295D-08      -115.04908136    162.979282   -0.39249   -0.59456   -0.00125    7
   14      0.733D-08      0.644D-09      -115.04908136    162.979282   -0.39249   -0.59456   -0.00125    7
   15      0.165D-08      0.149D-09      -115.04908136    162.979282   -0.39249   -0.59456   -0.00125    7
   16      0.330D-09      0.442D-10      -115.04908136    162.979282   -0.39249   -0.59456   -0.00125    7
   17      0.864D-10      0.160D-10      -115.04908136    162.979282   -0.39249   -0.59456   -0.00125    7
   18      0.410D-10      0.279D-11      -115.04908136    162.979282   -0.39249   -0.59456   -0.00125    0

 Final occupancy:   9

 !RHF STATE 1.1 Energy               -115.049081359328
 Nuclear energy                        40.27406576
 One-electron energy                 -236.81278805
 Two-electron energy                   81.48964093
 Virial quotient                       -1.00103122
 !RHF STATE 1.1 Dipole moment          -0.39248886    -0.59455966    -0.00125463
 Dipole moment /Debye                  -0.99754185    -1.51112095    -0.00318875

 Orbital energies:

         1.1          2.1          3.1          4.1          5.1          6.1          7.1          8.1          9.1         10.1
    -20.550150   -11.275769    -1.350098    -0.920386    -0.682692    -0.613120    -0.584599    -0.496953    -0.442985     0.184387

        11.1
      0.224286


 **********************************************************************************************************************************
 DATASETS  * FILE   NREC   LENGTH (MB)   RECORD NAMES
              1      19        8.41       500      610      700      900      950      970     1000      129      960     1100   
                                          VAR    BASINP    GEOM    SYMINP    ZMAT    AOBASIS   BASIS     P2S    ABASIS      S 
                                         1400     1410     1200     1210     1080     1600     1650     1300     1700   
                                           T        V       H0       H01     AOSYM     SMH    MOLCAS    ERIS     OPER   

              2       3        0.39       700     1000     2100   
                                         GEOM     BASIS     RHF  

 PROGRAMS   *        TOTAL       RHF       INT
 CPU TIMES  *         0.30      0.08      0.18
 REAL TIME  *         0.53 SEC
 DISK USED  *        24.24 MB      
 GA USED    *         0.00 MB       (max)       0.00 MB       (current)
 **********************************************************************************************************************************


1PROGRAM * CCSD (Closed-shell coupled cluster)     Authors: C. Hampel, H.-J. Werner, 1991, M. Deegan, P.J. Knowles, 1992


 Convergence thresholds:  THRVAR = 1.00D-08  THRDEN = 1.00D-12

 CCSD(T)     terms to be evaluated (factor= 1.000)


 Number of core orbitals:           2 (   2 )
 Number of closed-shell orbitals:   7 (   7 )
 Number of external orbitals:      39 (  39 )

 Molecular orbitals read from record     2100.2  Type=RHF/CANONICAL (state 1.1)

 Number of N-1 electron functions:               7
 Number of N-2 electron functions:              28
 Number of singly external CSFs:               273
 Number of doubly external CSFs:             37401
 Total number of CSFs:                       37675

 Length of J-op  integral file:               0.00 MB
 Length of K-op  integral file:               0.19 MB
 Length of 3-ext integral record:             0.00 MB

 Memory could be reduced to 0.96 Mwords without degradation in triples

 Integral transformation finished. Total CPU:   0.02 sec, npass=  1  Memory used:   0.66 MW

 Reference energy:                   -115.04908136

 MP2 singlet pair energy:              -0.21876918
 MP2 triplet pair energy:              -0.11985484
 MP2 correlation energy:               -0.33862403
 MP2 total energy:                   -115.38770538

 SCS-MP2 correlation energy:           -0.33709937   (PS=  1.200000  PT=  0.333333)
 SCS-MP2 total energy:               -115.38618072

 ITER.      SQ.NORM     CORR.ENERGY   TOTAL ENERGY   ENERGY CHANGE        DEN1      VAR(S)    VAR(P)  DIIS     TIME
   1      1.10751474    -0.36144150  -115.41052286    -0.02281748    -0.01411522  0.92D-03  0.17D-02  1  1     0.05
   2      1.11607867    -0.36339368  -115.41247504    -0.00195218    -0.00927131  0.20D-04  0.16D-03  2  2     0.09
   3      1.11797585    -0.36352239  -115.41260375    -0.00012871    -0.00121159  0.96D-05  0.87D-05  3  3     0.13
   4      1.11849572    -0.36352107  -115.41260243     0.00000133    -0.00025684  0.34D-06  0.68D-06  4  4     0.17
   5      1.11859492    -0.36352149  -115.41260285    -0.00000043    -0.00003637  0.10D-06  0.50D-07  5  5     0.21
   6      1.11861421    -0.36352013  -115.41260149     0.00000136    -0.00000443  0.16D-07  0.42D-08  6  6     0.25
   7      1.11861898    -0.36351971  -115.41260107     0.00000042    -0.00000035  0.20D-08  0.72D-09  6  1     0.28
   8      1.11862025    -0.36351981  -115.41260117    -0.00000010     0.00000075  0.26D-09  0.72D-10  6  3     0.32
   9      1.11862132    -0.36351969  -115.41260104     0.00000012    -0.00000038  0.13D-10  0.11D-10  6  2     0.36
  10      1.11862125    -0.36351969  -115.41260105    -0.00000000     0.00000007  0.11D-11  0.89D-12  6  5     0.40
  11      1.11862128    -0.36351968  -115.41260104     0.00000000    -0.00000000  0.19D-12  0.51D-13  6  4     0.43
  12      1.11862127    -0.36351969  -115.41260105    -0.00000000     0.00000001  0.19D-13  0.10D-13  6  1     0.47
  13      1.11862127    -0.36351969  -115.41260105    -0.00000000    -0.00000000  0.24D-14  0.94D-15  6  6     0.51
  14      1.11862127    -0.36351969  -115.41260105     0.00000000    -0.00000000  0.23D-15  0.13D-15  6  3     0.55
  15      1.11862127    -0.36351969  -115.41260105    -0.00000000    -0.00000000  0.25D-16  0.17D-16  6  2     0.59
  16      1.11862127    -0.36351969  -115.41260105    -0.00000000    -0.00000000  0.57D-17  0.17D-17  6  5     0.63
  17      1.11862127    -0.36351969  -115.41260105    -0.00000000    -0.00000000  0.56D-18  0.26D-18  6  4     0.67
  18      1.11862127    -0.36351969  -115.41260105     0.00000000    -0.00000000  0.89D-19  0.44D-19  6  1     0.71
  19      1.11862127    -0.36351969  -115.41260105    -0.00000000    -0.00000000  0.11D-19  0.45D-20  6  6     0.75
  20      1.11862127    -0.36351969  -115.41260105     0.00000000     0.00000000  0.16D-20  0.61D-21  6  3     0.79

 Norm of t1 vector:      0.04174415      S-energy:    -0.00000000      T1 diagnostic:  0.00788890
                                                                       D1 diagnostic:  0.01750999


 Total CPU time for triples:      0.20 sec


 RESULTS
 =======

  Reference energy                   -115.049081359328
  CCSD singlet pair energy             -0.254780142715
  CCSD triplet pair energy             -0.108739544394
  CCSD correlation energy              -0.363519687109

  Triples (T) contribution             -0.007756162372
  Total correlation energy             -0.371275849481

  CCSD total energy                  -115.412601046437
  CCSD[T] energy                     -115.420648985949
  CCSD-T energy                      -115.420206305805
 !CCSD(T) total energy               -115.420357208809

 Timing summary (sec):

 STEP                 CPU(USER)    SYS     CPU(TOT)    WALL
 Transformation          0.02      0.01      0.03      0.03
 CCSD iterations         0.78      0.04      0.82      0.85
 Triples                 0.20      0.00      0.20      0.21

 Program statistics:

 Available memory in ccsd:               999999704
 Min. memory needed in ccsd:                136801
 Max. memory used in ccsd:                  163198
 Max. memory used in cckext:                182024 (20 integral passes)



 **********************************************************************************************************************************
 DATASETS  * FILE   NREC   LENGTH (MB)   RECORD NAMES
              1      20       10.94       500      610      700      900      950      970     1000      129      960     1100   
                                          VAR    BASINP    GEOM    SYMINP    ZMAT    AOBASIS   BASIS     P2S    ABASIS      S 
                                         1400     1410     1200     1210     1080     1600     1650     1300     1700     1380   
                                           T        V       H0       H01     AOSYM     SMH    MOLCAS    ERIS     OPER     JKOP   

              2       3        0.39       700     1000     2100   
                                         GEOM     BASIS     RHF  

 PROGRAMS   *        TOTAL   CCSD(T)       RHF       INT
 CPU TIMES  *         1.30      1.00      0.08      0.18
 REAL TIME  *         1.64 SEC
 DISK USED  *        25.67 MB      
 GA USED    *         0.00 MB       (max)       0.00 MB       (current)
 **********************************************************************************************************************************

        CCSD(T)         RHF-SCF 
   -115.42035721   -115.04908136
 **********************************************************************************************************************************
 Variable memory released
