
 Primary working directories    : /tmp/601555.94.gen4.q
 Secondary working directories  : /tmp/601555.94.gen4.q
 Wavefunction directory         : /home/vulcan/mel64643/wfu/
 Main file repository           : /tmp/601555.94.gen4.q/

 ARCHNAME  : Linux/x86_64
 FC        : /opt/intel/compilers_and_libraries_2016.1.150/linux/bin/intel64/ifort
 FCVERSION : 16.0.1
 BLASLIB   : -mkl
 id        : ccgc

 Nodes     nprocs
 n035         1
 ga_uses_ma=false, calling ma_init with nominal heap.
 GA-space will be limited to   8.0 MW (determined by -G option)

 Using customized tuning parameters: mindgm=10; mindgv=16; mindgc=4; mindgr=1; noblas=0; mincuda=1000; minvec=7
 default implementation of scratch files=df  

 ***,Optimization of min3
 memory,1000,m
 gthresh,energy=1.0d-12,orbital=1.0d-10,oneint=1.0d-16,twoint=1.0d-16,optgrad=1.0d-6,compress=1.0d-13
 geomtyp=xyz
 
  bohr
  geometry = {
  6
  arbitrary comment
  C   -1.3759275847   -0.0232553736    0.0000003444
  O    1.3028392548    0.1248220948    0.0000002949
  H   -2.0768055127    1.9044820854   -0.0000797263
  H   -2.1084826285   -0.9771731169    1.6769281861
  H   -2.1084756534   -0.9773039324   -1.6768562041
  H    1.9431279644   -1.5817038773   -0.0000013051
 }
 
 basis=cc-pvdz
 {rhf;maxit,200}
 {ccsd(t);maxit,200}

 Variables initialized (661), CPU time= 0.00 sec
 Commands  initialized (458), CPU time= 0.00 sec, 486 directives.
 Default parameters read. Elapsed time= 0.05 sec

 Checking input...
 Passed
1


                                         ***  PROGRAM SYSTEM MOLPRO  ***
                         Copyright, University College Cardiff Consultants Limited, 2008

                                    Version 2010.1 linked May 16 2016 07:17:05


 **********************************************************************************************************************************
 LABEL *   Optimization of min3                                                          
 Linux-4.4.3/n035(x86_64) 64 bit mpp version                                             DATE: 06-Nov-21          TIME: 15:39:46  
 **********************************************************************************************************************************

 SHA1:             9e8077add272b0f3cad6f7df79ec5211205f459d
 **********************************************************************************************************************************

 THRESHOLDS:

 ZERO    =  1.00D-12  ONEINT  =  1.00D-16  TWOINT  =  1.00D-16  PREFAC  =  1.00D-14  LOCALI  =  1.00D-09  EORDER  =  1.00D-04
 ENERGY  =  1.00D-12  ETEST   =  0.00D+00  EDENS   =  0.00D+00  THRDEDEF=  1.00D-06  GRADIENT=  1.00D-02  STEP    =  1.00D-03
 ORBITAL =  1.00D-10  CIVEC   =  1.00D-05  COEFF   =  1.00D-04  PRINTCI =  5.00D-02  PUNCHCI =  9.90D+01  OPTGRAD =  1.00D-06
 OPTENERG=  1.00D-06  OPTSTEP =  3.00D-04  THRGRAD =  1.00D-10  COMPRESS=  1.00D-13  VARMIN  =  1.00D-07  VARMAX  =  1.00D-03
 THRDOUB =  0.00D+00  THRDIV  =  1.00D-05  THRRED  =  1.00D-07  THRPSP  =  1.00D+00  THRDC   =  1.00D-10  THRCS   =  1.00D-10
 THRNRM  =  1.00D-08  THREQ   =  0.00D+00  THRDE   =  1.00D+00  THRREF  =  1.00D-05  SPARFAC =  1.00D+00  THRDLP  =  1.00D-07
 THRDIA  =  1.00D-10  THRDLS  =  1.00D-07  THRGPS  =  0.00D+00  THRKEX  =  0.00D+00  THRDIS  =  2.00D-01  THRVAR  =  1.00D-10
 THRLOC  =  1.00D-06  THRGAP  =  1.00D-06  THRLOCT = -1.00D+00  THRGAPT = -1.00D+00  THRORB  =  1.00D-06  THRMLTP =  0.00D+00
 THRCPQCI=  1.00D-10  KEXTA   =  0.00D+00  THRCOARS=  0.00D+00  SYMTOL  =  1.00D-06  GRADTOL =  1.00D-06  THROVL  =  1.00D-08
 THRORTH =  1.00D-08  GRID    =  1.00D-06  GRIDMAX =  1.00D-03  DTMAX   =  0.00D+00

 SETTING GEOMTYP        =    XYZ
 ZUNIT=BOHR
 

 Variable memory set to 1000000000 words,  buffer space   230000 words

 SETTING BASIS          =    CC-PVDZ


 Recomputing integrals since basis changed


 Using spherical harmonics

 Library entry C      S cc-pVDZ              selected for orbital group  1
 Library entry C      P cc-pVDZ              selected for orbital group  1
 Library entry C      D cc-pVDZ              selected for orbital group  1
 Library entry O      S cc-pVDZ              selected for orbital group  2
 Library entry O      P cc-pVDZ              selected for orbital group  2
 Library entry O      D cc-pVDZ              selected for orbital group  2
 Library entry H      S cc-pVDZ              selected for orbital group  3
 Library entry H      P cc-pVDZ              selected for orbital group  3

1PROGRAM * SEWARD (Integral evaluation for generally contracted gaussian basis sets)     Author: Roland Lindh, 1990

 Geometry written to block  1 of record 700


 Point group  C1  



 ATOMIC COORDINATES

 NR  ATOM    CHARGE       X              Y              Z

   1  C       6.00   -1.375927585   -0.023255374    0.000000344
   2  O       8.00    1.302839255    0.124822095    0.000000295
   3  H       1.00   -2.076805513    1.904482085   -0.000079726
   4  H       1.00   -2.108482629   -0.977173117    1.676928186
   5  H       1.00   -2.108475653   -0.977303932   -1.676856204
   6  H       1.00    1.943127964   -1.581703877   -0.000001305

 Bond lengths in Bohr (Angstrom)

 1-2  2.682856447  1-3  2.051195161  1-4  2.063657660  1-5  2.063657726  2-6  1.822690463
     ( 1.419706487)     ( 1.085445730)     ( 1.092040601)     ( 1.092040636)     ( 0.964526252)

 Bond angles

  1-2-6  107.40210706   2-1-3  106.81603296   2-1-4  112.33065084   2-1-5  112.33065591

  3-1-4  108.24991832   3-1-5  108.24975420   4-1-5  108.69804964

 NUCLEAR CHARGE:                   18
 NUMBER OF PRIMITIVE AOS:          82
 NUMBER OF SYMMETRY AOS:           80
 NUMBER OF CONTRACTIONS:           48   (  48A   )
 NUMBER OF CORE ORBITALS:           2   (   2A   )
 NUMBER OF VALENCE ORBITALS:       12   (  12A   )


 NUCLEAR REPULSION ENERGY   40.33184294


 Eigenvalues of metric

         1 0.964E-02 0.176E-01 0.365E-01 0.371E-01 0.383E-01 0.472E-01 0.472E-01 0.517E-01


 Contracted 2-electron integrals neglected if value below      1.0D-16
 AO integral compression algorithm  1   Integral accuracy      1.0D-16

     6.291 MB (compressed) written to integral file ( 98.3%)

     Node minimum: 6.291 MB, node maximum: 6.291 MB


 NUMBER OF SORTED TWO-ELECTRON INTEGRALS:     692076.     BUFFER LENGTH:  32768
 NUMBER OF SEGMENTS:   1  SEGMENT LENGTH:     692076      RECORD LENGTH: 524288

 Memory used in sort:       1.25 MW

 SORT1 READ      832256. AND WROTE      682148. INTEGRALS IN      2 RECORDS. CPU TIME:     0.01 SEC, REAL TIME:     0.01 SEC
 SORT2 READ      682148. AND WROTE      692076. INTEGRALS IN     24 RECORDS. CPU TIME:     0.02 SEC, REAL TIME:     0.03 SEC

 FILE SIZES:   FILE 1:     8.0 MBYTE,  FILE 4:     8.4 MBYTE,   TOTAL:     16.4 MBYTE

 OPERATOR DM      FOR CENTER  0  COORDINATES:    0.000000    0.000000    0.000000


 **********************************************************************************************************************************
 DATASETS  * FILE   NREC   LENGTH (MB)   RECORD NAMES
              1      19        8.03       500      610      700      900      950      970     1000      129      960     1100   
                                          VAR    BASINP    GEOM    SYMINP    ZMAT    AOBASIS   BASIS     P2S    ABASIS      S 
                                         1400     1410     1200     1210     1080     1600     1650     1300     1700   
                                           T        V       H0       H01     AOSYM     SMH    MOLCAS    ERIS     OPER   

 PROGRAMS   *        TOTAL       INT
 CPU TIMES  *         0.34      0.29
 REAL TIME  *         0.52 SEC
 DISK USED  *        23.34 MB      
 GA USED    *         0.00 MB       (max)       0.00 MB       (current)
 **********************************************************************************************************************************

1PROGRAM * RHF-SCF (CLOSED SHELL)       Authors: W. Meyer, H.-J. Werner


 NUMBER OF ELECTRONS:       9+    9-    SPACE SYMMETRY=1    SPIN SYMMETRY: Singlet 
 CONVERGENCE THRESHOLDS:    1.00E-10 (Density)    1.00E-13 (Energy)
 MAX. NUMBER OF ITERATIONS:      200
 INTERPOLATION TYPE:            DIIS
 INTERPOLATION STEPS:              2 (START)      1 (STEP)
 LEVEL SHIFTS:                  0.00 (CLOSED)  0.00 (OPEN) 



 Orbital guess generated from atomic densities. Full valence occupancy:   14

 Molecular orbital dump at record        2100.2

 ITERATION    DDIFF          GRAD             ENERGY        2-EL.EN.            DIPOLE MOMENTS         DIIS
    1      0.000D+00      0.000D+00      -115.01402398    164.451680   -0.48797   -0.90763   -0.00000    0
    2      0.000D+00      0.109D-01      -115.04243293    162.216283   -0.31416   -0.53786   -0.00000    1
    3      0.204D-01      0.530D-02      -115.04845941    163.248262   -0.39768   -0.61371   -0.00000    2
    4      0.639D-02      0.113D-02      -115.04892699    163.090698   -0.38814   -0.60208   -0.00000    3
    5      0.204D-02      0.204D-03      -115.04894847    163.097007   -0.39123   -0.59766   -0.00000    4
    6      0.436D-03      0.362D-04      -115.04894930    163.097326   -0.39161   -0.59743   -0.00000    5
    7      0.946D-04      0.770D-05      -115.04894934    163.096067   -0.39177   -0.59725   -0.00000    6
    8      0.156D-04      0.250D-05      -115.04894934    163.096462   -0.39182   -0.59722   -0.00000    7
    9      0.535D-05      0.508D-06      -115.04894934    163.096422   -0.39184   -0.59722   -0.00000    6
   10      0.147D-05      0.946D-07      -115.04894934    163.096421   -0.39184   -0.59722   -0.00000    6
   11      0.250D-06      0.351D-07      -115.04894934    163.096427   -0.39184   -0.59722   -0.00000    6
   12      0.637D-07      0.151D-07      -115.04894934    163.096425   -0.39184   -0.59722   -0.00000    7
   13      0.284D-07      0.324D-08      -115.04894934    163.096425   -0.39184   -0.59722   -0.00000    7
   14      0.810D-08      0.670D-09      -115.04894934    163.096425   -0.39184   -0.59722   -0.00000    7
   15      0.170D-08      0.158D-09      -115.04894934    163.096425   -0.39184   -0.59722   -0.00000    7
   16      0.353D-09      0.482D-10      -115.04894934    163.096425   -0.39184   -0.59722   -0.00000    7
   17      0.917D-10      0.159D-10      -115.04894934    163.096425   -0.39184   -0.59722   -0.00000    0

 Final occupancy:   9

 !RHF STATE 1.1 Energy               -115.048949339062
 Nuclear energy                        40.33184294
 One-electron energy                 -236.92900477
 Two-electron energy                   81.54821249
 Virial quotient                       -1.00087575
 !RHF STATE 1.1 Dipole moment          -0.39183932    -0.59722395    -0.00000278
 Dipole moment /Debye                  -0.99589098    -1.51789244    -0.00000706

 Orbital energies:

         1.1          2.1          3.1          4.1          5.1          6.1          7.1          8.1          9.1         10.1
    -20.550240   -11.273511    -1.349039    -0.921725    -0.682311    -0.614147    -0.585183    -0.497145    -0.442989     0.184397

        11.1
      0.224185


 **********************************************************************************************************************************
 DATASETS  * FILE   NREC   LENGTH (MB)   RECORD NAMES
              1      19        8.03       500      610      700      900      950      970     1000      129      960     1100   
                                          VAR    BASINP    GEOM    SYMINP    ZMAT    AOBASIS   BASIS     P2S    ABASIS      S 
                                         1400     1410     1200     1210     1080     1600     1650     1300     1700   
                                           T        V       H0       H01     AOSYM     SMH    MOLCAS    ERIS     OPER   

              2       3        0.39       700     1000     2100   
                                         GEOM     BASIS     RHF  

 PROGRAMS   *        TOTAL       RHF       INT
 CPU TIMES  *         0.44      0.10      0.29
 REAL TIME  *         0.65 SEC
 DISK USED  *        23.34 MB      
 GA USED    *         0.00 MB       (max)       0.00 MB       (current)
 **********************************************************************************************************************************


1PROGRAM * CCSD (Closed-shell coupled cluster)     Authors: C. Hampel, H.-J. Werner, 1991, M. Deegan, P.J. Knowles, 1992


 Convergence thresholds:  THRVAR = 1.00D-08  THRDEN = 1.00D-12

 CCSD(T)     terms to be evaluated (factor= 1.000)


 Number of core orbitals:           2 (   2 )
 Number of closed-shell orbitals:   7 (   7 )
 Number of external orbitals:      39 (  39 )

 Molecular orbitals read from record     2100.2  Type=RHF/CANONICAL (state 1.1)

 Number of N-1 electron functions:               7
 Number of N-2 electron functions:              28
 Number of singly external CSFs:               273
 Number of doubly external CSFs:             37401
 Total number of CSFs:                       37675

 Length of J-op  integral file:               0.00 MB
 Length of K-op  integral file:               0.19 MB
 Length of 3-ext integral record:             0.00 MB

 Memory could be reduced to 0.96 Mwords without degradation in triples

 Integral transformation finished. Total CPU:   0.03 sec, npass=  1  Memory used:   0.66 MW

 Reference energy:                   -115.04894934

 MP2 singlet pair energy:              -0.21865220
 MP2 triplet pair energy:              -0.11988236
 MP2 correlation energy:               -0.33853456
 MP2 total energy:                   -115.38748390

 SCS-MP2 correlation energy:           -0.33697611   (PS=  1.200000  PT=  0.333333)
 SCS-MP2 total energy:               -115.38592544

 ITER.      SQ.NORM     CORR.ENERGY   TOTAL ENERGY   ENERGY CHANGE        DEN1      VAR(S)    VAR(P)  DIIS     TIME
   1      1.10728123    -0.36129922  -115.41024856    -0.02276467    -0.01408579  0.91D-03  0.17D-02  1  1     0.08
   2      1.11579513    -0.36324331  -115.41219265    -0.00194408    -0.00924734  0.20D-04  0.16D-03  2  2     0.13
   3      1.11767533    -0.36336998  -115.41231932    -0.00012667    -0.00120456  0.95D-05  0.86D-05  3  3     0.17
   4      1.11819030    -0.36336873  -115.41231807     0.00000125    -0.00025475  0.34D-06  0.67D-06  4  4     0.22
   5      1.11828853    -0.36336914  -115.41231848    -0.00000041    -0.00003606  0.10D-06  0.49D-07  5  5     0.27
   6      1.11830773    -0.36336776  -115.41231710     0.00000137    -0.00000436  0.16D-07  0.41D-08  6  6     0.32
   7      1.11831260    -0.36336734  -115.41231668     0.00000042    -0.00000036  0.21D-08  0.73D-09  6  1     0.38
   8      1.11831389    -0.36336745  -115.41231679    -0.00000010     0.00000076  0.26D-09  0.74D-10  6  3     0.43
   9      1.11831497    -0.36336732  -115.41231666     0.00000012    -0.00000039  0.13D-10  0.10D-10  6  2     0.48
  10      1.11831502    -0.36336732  -115.41231666     0.00000000     0.00000000  0.14D-11  0.12D-11  6  4     0.53
  11      1.11831498    -0.36336732  -115.41231666     0.00000000     0.00000003  0.34D-12  0.85D-13  6  5     0.58
  12      1.11831493    -0.36336732  -115.41231666    -0.00000000     0.00000003  0.34D-13  0.13D-13  6  6     0.63
  13      1.11831491    -0.36336733  -115.41231667    -0.00000000     0.00000001  0.38D-14  0.16D-14  6  3     0.67
  14      1.11831491    -0.36336733  -115.41231667    -0.00000000     0.00000000  0.28D-15  0.14D-15  6  1     0.72
  15      1.11831491    -0.36336733  -115.41231667     0.00000000    -0.00000000  0.35D-16  0.31D-16  6  2     0.77
  16      1.11831491    -0.36336733  -115.41231666     0.00000000    -0.00000000  0.31D-17  0.16D-17  6  5     0.82
  17      1.11831491    -0.36336733  -115.41231666    -0.00000000     0.00000000  0.13D-18  0.12D-18  6  4     0.88
  18      1.11831491    -0.36336733  -115.41231666     0.00000000    -0.00000000  0.27D-19  0.12D-19  6  3     0.93
  19      1.11831491    -0.36336733  -115.41231666     0.00000000    -0.00000000  0.26D-20  0.10D-20  6  6     0.98

 Norm of t1 vector:      0.04171143      S-energy:    -0.00000000      T1 diagnostic:  0.00788272
                                                                       D1 diagnostic:  0.01753535


 Total CPU time for triples:      0.25 sec


 RESULTS
 =======

  Reference energy                   -115.048949339062
  CCSD singlet pair energy             -0.254583475290
  CCSD triplet pair energy             -0.108783850645
  CCSD correlation energy              -0.363367325935

  Triples (T) contribution             -0.007735118338
  Total correlation energy             -0.371102444273

  CCSD total energy                  -115.412316664997
  CCSD[T] energy                     -115.420341036002
  CCSD-T energy                      -115.419902278259
 !CCSD(T) total energy               -115.420051783335

 Timing summary (sec):

 STEP                 CPU(USER)    SYS     CPU(TOT)    WALL
 Transformation          0.03      0.00      0.03      0.03
 CCSD iterations         0.95      0.05      1.00      1.03
 Triples                 0.25      0.01      0.26      0.25

 Program statistics:

 Available memory in ccsd:               999999704
 Min. memory needed in ccsd:                136801
 Max. memory used in ccsd:                  163198
 Max. memory used in cckext:                182024 (19 integral passes)



 **********************************************************************************************************************************
 DATASETS  * FILE   NREC   LENGTH (MB)   RECORD NAMES
              1      20       10.56       500      610      700      900      950      970     1000      129      960     1100   
                                          VAR    BASINP    GEOM    SYMINP    ZMAT    AOBASIS   BASIS     P2S    ABASIS      S 
                                         1400     1410     1200     1210     1080     1600     1650     1300     1700     1380   
                                           T        V       H0       H01     AOSYM     SMH    MOLCAS    ERIS     OPER     JKOP   

              2       3        0.39       700     1000     2100   
                                         GEOM     BASIS     RHF  

 PROGRAMS   *        TOTAL   CCSD(T)       RHF       INT
 CPU TIMES  *         1.68      1.24      0.10      0.29
 REAL TIME  *         1.98 SEC
 DISK USED  *        24.77 MB      
 GA USED    *         0.00 MB       (max)       0.00 MB       (current)
 **********************************************************************************************************************************

        CCSD(T)         RHF-SCF 
   -115.42005178   -115.04894934
 **********************************************************************************************************************************
 Variable memory released
