
 Primary working directories    : /tmp/601555.59.gen4.q
 Secondary working directories  : /tmp/601555.59.gen4.q
 Wavefunction directory         : /home/vulcan/mel64643/wfu/
 Main file repository           : /tmp/601555.59.gen4.q/

 ARCHNAME  : Linux/x86_64
 FC        : /opt/intel/compilers_and_libraries_2016.1.150/linux/bin/intel64/ifort
 FCVERSION : 16.0.1
 BLASLIB   : -mkl
 id        : ccgc

 Nodes     nprocs
 n061         1
 ga_uses_ma=false, calling ma_init with nominal heap.
 GA-space will be limited to   8.0 MW (determined by -G option)

 Using customized tuning parameters: mindgm=10; mindgv=16; mindgc=4; mindgr=1; noblas=0; mincuda=1000; minvec=7
 default implementation of scratch files=df  

 ***,Optimization of min3
 memory,1000,m
 gthresh,energy=1.0d-12,orbital=1.0d-10,oneint=1.0d-16,twoint=1.0d-16,optgrad=1.0d-6,compress=1.0d-13
 geomtyp=xyz
 
  bohr
  geometry = {
  6
  arbitrary comment
  C   -1.3753055585   -0.0227696403    0.0027208021
  O    1.3070458989    0.1210734859   -0.0009083046
  H   -2.0774172318    1.9035732568   -0.0010027347
  H   -2.1096589871   -0.9775581587    1.6853167875
  H   -2.1094565968   -0.9769839547   -1.6863327514
  H    1.9410683153   -1.5774671089    0.0001977910
 }
 
 basis=cc-pvdz
 {rhf;maxit,200}
 {ccsd(t);maxit,200}

 Variables initialized (661), CPU time= 0.00 sec
 Commands  initialized (458), CPU time= 0.01 sec, 486 directives.
 Default parameters read. Elapsed time= 0.05 sec

 Checking input...
 Passed
1


                                         ***  PROGRAM SYSTEM MOLPRO  ***
                         Copyright, University College Cardiff Consultants Limited, 2008

                                    Version 2010.1 linked May 16 2016 07:17:05


 **********************************************************************************************************************************
 LABEL *   Optimization of min3                                                          
 Linux-4.4.3/n061(x86_64) 64 bit mpp version                                             DATE: 06-Nov-21          TIME: 15:39:16  
 **********************************************************************************************************************************

 SHA1:             9e8077add272b0f3cad6f7df79ec5211205f459d
 **********************************************************************************************************************************

 THRESHOLDS:

 ZERO    =  1.00D-12  ONEINT  =  1.00D-16  TWOINT  =  1.00D-16  PREFAC  =  1.00D-14  LOCALI  =  1.00D-09  EORDER  =  1.00D-04
 ENERGY  =  1.00D-12  ETEST   =  0.00D+00  EDENS   =  0.00D+00  THRDEDEF=  1.00D-06  GRADIENT=  1.00D-02  STEP    =  1.00D-03
 ORBITAL =  1.00D-10  CIVEC   =  1.00D-05  COEFF   =  1.00D-04  PRINTCI =  5.00D-02  PUNCHCI =  9.90D+01  OPTGRAD =  1.00D-06
 OPTENERG=  1.00D-06  OPTSTEP =  3.00D-04  THRGRAD =  1.00D-10  COMPRESS=  1.00D-13  VARMIN  =  1.00D-07  VARMAX  =  1.00D-03
 THRDOUB =  0.00D+00  THRDIV  =  1.00D-05  THRRED  =  1.00D-07  THRPSP  =  1.00D+00  THRDC   =  1.00D-10  THRCS   =  1.00D-10
 THRNRM  =  1.00D-08  THREQ   =  0.00D+00  THRDE   =  1.00D+00  THRREF  =  1.00D-05  SPARFAC =  1.00D+00  THRDLP  =  1.00D-07
 THRDIA  =  1.00D-10  THRDLS  =  1.00D-07  THRGPS  =  0.00D+00  THRKEX  =  0.00D+00  THRDIS  =  2.00D-01  THRVAR  =  1.00D-10
 THRLOC  =  1.00D-06  THRGAP  =  1.00D-06  THRLOCT = -1.00D+00  THRGAPT = -1.00D+00  THRORB  =  1.00D-06  THRMLTP =  0.00D+00
 THRCPQCI=  1.00D-10  KEXTA   =  0.00D+00  THRCOARS=  0.00D+00  SYMTOL  =  1.00D-06  GRADTOL =  1.00D-06  THROVL  =  1.00D-08
 THRORTH =  1.00D-08  GRID    =  1.00D-06  GRIDMAX =  1.00D-03  DTMAX   =  0.00D+00

 SETTING GEOMTYP        =    XYZ
 ZUNIT=BOHR
 

 Variable memory set to 1000000000 words,  buffer space   230000 words

 SETTING BASIS          =    CC-PVDZ


 Recomputing integrals since basis changed


 Using spherical harmonics

 Library entry C      S cc-pVDZ              selected for orbital group  1
 Library entry C      P cc-pVDZ              selected for orbital group  1
 Library entry C      D cc-pVDZ              selected for orbital group  1
 Library entry O      S cc-pVDZ              selected for orbital group  2
 Library entry O      P cc-pVDZ              selected for orbital group  2
 Library entry O      D cc-pVDZ              selected for orbital group  2
 Library entry H      S cc-pVDZ              selected for orbital group  3
 Library entry H      P cc-pVDZ              selected for orbital group  3

1PROGRAM * SEWARD (Integral evaluation for generally contracted gaussian basis sets)     Author: Roland Lindh, 1990

 Geometry written to block  1 of record 700


 Point group  C1  



 ATOMIC COORDINATES

 NR  ATOM    CHARGE       X              Y              Z

   1  C       6.00   -1.375305559   -0.022769640    0.002720802
   2  O       8.00    1.307045899    0.121073486   -0.000908305
   3  H       1.00   -2.077417232    1.903573257   -0.001002735
   4  H       1.00   -2.109658987   -0.977558159    1.685316787
   5  H       1.00   -2.109456597   -0.976983955   -1.686332751
   6  H       1.00    1.941068315   -1.577467109    0.000197791

 Bond lengths in Bohr (Angstrom)

 1-2  2.686207988  1-3  2.050310129  1-4  2.069305517  1-5  2.074223858  2-6  1.813015665
     ( 1.421480046)     ( 1.084977391)     ( 1.095029318)     ( 1.097631992)     ( 0.959406569)

 Bond angles

  1-2-6  107.39967790   2-1-3  106.95595863   2-1-4  112.34457891   2-1-5  112.14588263

  3-1-4  108.26779604   3-1-5  108.03131701   4-1-5  108.92083049

 NUCLEAR CHARGE:                   18
 NUMBER OF PRIMITIVE AOS:          82
 NUMBER OF SYMMETRY AOS:           80
 NUMBER OF CONTRACTIONS:           48   (  48A   )
 NUMBER OF CORE ORBITALS:           2   (   2A   )
 NUMBER OF VALENCE ORBITALS:       12   (  12A   )


 NUCLEAR REPULSION ENERGY   40.30044682


 Eigenvalues of metric

         1 0.966E-02 0.176E-01 0.366E-01 0.376E-01 0.381E-01 0.475E-01 0.479E-01 0.514E-01


 Contracted 2-electron integrals neglected if value below      1.0D-16
 AO integral compression algorithm  1   Integral accuracy      1.0D-16

     6.816 MB (compressed) written to integral file (100.0%)

     Node minimum: 6.816 MB, node maximum: 6.816 MB


 NUMBER OF SORTED TWO-ELECTRON INTEGRALS:     692076.     BUFFER LENGTH:  32768
 NUMBER OF SEGMENTS:   1  SEGMENT LENGTH:     692076      RECORD LENGTH: 524288

 Memory used in sort:       1.25 MW

 SORT1 READ      832256. AND WROTE      682150. INTEGRALS IN      2 RECORDS. CPU TIME:     0.01 SEC, REAL TIME:     0.01 SEC
 SORT2 READ      682150. AND WROTE      692076. INTEGRALS IN     26 RECORDS. CPU TIME:     0.02 SEC, REAL TIME:     0.02 SEC

 FILE SIZES:   FILE 1:     8.4 MBYTE,  FILE 4:     8.4 MBYTE,   TOTAL:     16.8 MBYTE

 OPERATOR DM      FOR CENTER  0  COORDINATES:    0.000000    0.000000    0.000000


 **********************************************************************************************************************************
 DATASETS  * FILE   NREC   LENGTH (MB)   RECORD NAMES
              1      19        8.40       500      610      700      900      950      970     1000      129      960     1100   
                                          VAR    BASINP    GEOM    SYMINP    ZMAT    AOBASIS   BASIS     P2S    ABASIS      S 
                                         1400     1410     1200     1210     1080     1600     1650     1300     1700   
                                           T        V       H0       H01     AOSYM     SMH    MOLCAS    ERIS     OPER   

 PROGRAMS   *        TOTAL       INT
 CPU TIMES  *         0.22      0.18
 REAL TIME  *         0.42 SEC
 DISK USED  *        24.23 MB      
 GA USED    *         0.00 MB       (max)       0.00 MB       (current)
 **********************************************************************************************************************************

1PROGRAM * RHF-SCF (CLOSED SHELL)       Authors: W. Meyer, H.-J. Werner


 NUMBER OF ELECTRONS:       9+    9-    SPACE SYMMETRY=1    SPIN SYMMETRY: Singlet 
 CONVERGENCE THRESHOLDS:    1.00E-10 (Density)    1.00E-13 (Energy)
 MAX. NUMBER OF ITERATIONS:      200
 INTERPOLATION TYPE:            DIIS
 INTERPOLATION STEPS:              2 (START)      1 (STEP)
 LEVEL SHIFTS:                  0.00 (CLOSED)  0.00 (OPEN) 



 Orbital guess generated from atomic densities. Full valence occupancy:   14

 Molecular orbital dump at record        2100.2

 ITERATION    DDIFF          GRAD             ENERGY        2-EL.EN.            DIPOLE MOMENTS         DIIS
    1      0.000D+00      0.000D+00      -115.01418778    164.373776   -0.49681   -0.90111    0.00089    0
    2      0.000D+00      0.110D-01      -115.04255396    162.155423   -0.31766   -0.53435    0.00131    1
    3      0.205D-01      0.530D-02      -115.04858991    163.180226   -0.40151   -0.60913    0.00173    2
    4      0.639D-02      0.112D-02      -115.04905347    163.024152   -0.39131   -0.59777    0.00188    3
    5      0.204D-02      0.202D-03      -115.04907447    163.030557   -0.39412   -0.59338    0.00195    4
    6      0.433D-03      0.354D-04      -115.04907526    163.030722   -0.39442   -0.59315    0.00196    5
    7      0.930D-04      0.735D-05      -115.04907529    163.029529   -0.39455   -0.59298    0.00197    6
    8      0.150D-04      0.237D-05      -115.04907530    163.029910   -0.39459   -0.59295    0.00197    7
    9      0.502D-05      0.487D-06      -115.04907530    163.029870   -0.39460   -0.59295    0.00197    6
   10      0.140D-05      0.863D-07      -115.04907530    163.029869   -0.39460   -0.59295    0.00197    6
   11      0.232D-06      0.321D-07      -115.04907530    163.029874   -0.39461   -0.59295    0.00197    6
   12      0.582D-07      0.134D-07      -115.04907530    163.029872   -0.39461   -0.59295    0.00197    7
   13      0.249D-07      0.299D-08      -115.04907530    163.029872   -0.39461   -0.59295    0.00197    7
   14      0.745D-08      0.645D-09      -115.04907530    163.029872   -0.39461   -0.59295    0.00197    7
   15      0.165D-08      0.149D-09      -115.04907530    163.029872   -0.39461   -0.59295    0.00197    7
   16      0.331D-09      0.449D-10      -115.04907530    163.029872   -0.39461   -0.59295    0.00197    7
   17      0.869D-10      0.148D-10      -115.04907530    163.029872   -0.39461   -0.59295    0.00197    0

 Final occupancy:   9

 !RHF STATE 1.1 Energy               -115.049075297328
 Nuclear energy                        40.30044682
 One-electron energy                 -236.86445836
 Two-electron energy                   81.51493624
 Virial quotient                       -1.00092777
 !RHF STATE 1.1 Dipole moment          -0.39460563    -0.59295472     0.00196681
 Dipole moment /Debye                  -1.00292178    -1.50704186     0.00499880

 Orbital energies:

         1.1          2.1          3.1          4.1          5.1          6.1          7.1          8.1          9.1         10.1
    -20.549944   -11.274704    -1.349669    -0.921476    -0.682421    -0.613408    -0.585370    -0.497237    -0.443064     0.184584

        11.1
      0.224416


 **********************************************************************************************************************************
 DATASETS  * FILE   NREC   LENGTH (MB)   RECORD NAMES
              1      19        8.40       500      610      700      900      950      970     1000      129      960     1100   
                                          VAR    BASINP    GEOM    SYMINP    ZMAT    AOBASIS   BASIS     P2S    ABASIS      S 
                                         1400     1410     1200     1210     1080     1600     1650     1300     1700   
                                           T        V       H0       H01     AOSYM     SMH    MOLCAS    ERIS     OPER   

              2       3        0.39       700     1000     2100   
                                         GEOM     BASIS     RHF  

 PROGRAMS   *        TOTAL       RHF       INT
 CPU TIMES  *         0.30      0.08      0.18
 REAL TIME  *         0.53 SEC
 DISK USED  *        24.23 MB      
 GA USED    *         0.00 MB       (max)       0.00 MB       (current)
 **********************************************************************************************************************************


1PROGRAM * CCSD (Closed-shell coupled cluster)     Authors: C. Hampel, H.-J. Werner, 1991, M. Deegan, P.J. Knowles, 1992


 Convergence thresholds:  THRVAR = 1.00D-08  THRDEN = 1.00D-12

 CCSD(T)     terms to be evaluated (factor= 1.000)


 Number of core orbitals:           2 (   2 )
 Number of closed-shell orbitals:   7 (   7 )
 Number of external orbitals:      39 (  39 )

 Molecular orbitals read from record     2100.2  Type=RHF/CANONICAL (state 1.1)

 Number of N-1 electron functions:               7
 Number of N-2 electron functions:              28
 Number of singly external CSFs:               273
 Number of doubly external CSFs:             37401
 Total number of CSFs:                       37675

 Length of J-op  integral file:               0.00 MB
 Length of K-op  integral file:               0.19 MB
 Length of 3-ext integral record:             0.00 MB

 Memory could be reduced to 0.96 Mwords without degradation in triples

 Integral transformation finished. Total CPU:   0.02 sec, npass=  1  Memory used:   0.66 MW

 Reference energy:                   -115.04907530

 MP2 singlet pair energy:              -0.21865388
 MP2 triplet pair energy:              -0.11983813
 MP2 correlation energy:               -0.33849200
 MP2 total energy:                   -115.38756730

 SCS-MP2 correlation energy:           -0.33695059   (PS=  1.200000  PT=  0.333333)
 SCS-MP2 total energy:               -115.38602589

 ITER.      SQ.NORM     CORR.ENERGY   TOTAL ENERGY   ENERGY CHANGE        DEN1      VAR(S)    VAR(P)  DIIS     TIME
   1      1.10734236    -0.36128899  -115.41036429    -0.02279699    -0.01411346  0.91D-03  0.17D-02  1  1     0.06
   2      1.11587117    -0.36323426  -115.41230956    -0.00194527    -0.00925230  0.20D-04  0.16D-03  2  2     0.10
   3      1.11775499    -0.36336172  -115.41243702    -0.00012746    -0.00120534  0.95D-05  0.86D-05  3  3     0.14
   4      1.11827115    -0.36336033  -115.41243562     0.00000139    -0.00025535  0.34D-06  0.68D-06  4  4     0.18
   5      1.11836966    -0.36336072  -115.41243602    -0.00000040    -0.00003618  0.10D-06  0.49D-07  5  5     0.22
   6      1.11838884    -0.36335936  -115.41243466     0.00000136    -0.00000439  0.16D-07  0.41D-08  6  6     0.26
   7      1.11839363    -0.36335894  -115.41243424     0.00000042    -0.00000035  0.20D-08  0.73D-09  6  1     0.30
   8      1.11839491    -0.36335904  -115.41243434    -0.00000010     0.00000075  0.26D-09  0.73D-10  6  3     0.33
   9      1.11839598    -0.36335892  -115.41243421     0.00000012    -0.00000038  0.13D-10  0.10D-10  6  2     0.37
  10      1.11839590    -0.36335892  -115.41243422    -0.00000000     0.00000007  0.11D-11  0.88D-12  6  5     0.41
  11      1.11839593    -0.36335892  -115.41243421     0.00000000    -0.00000000  0.19D-12  0.51D-13  6  4     0.45
  12      1.11839592    -0.36335892  -115.41243422    -0.00000000     0.00000001  0.19D-13  0.10D-13  6  1     0.48
  13      1.11839592    -0.36335892  -115.41243422    -0.00000000    -0.00000000  0.24D-14  0.94D-15  6  6     0.52
  14      1.11839592    -0.36335892  -115.41243422     0.00000000    -0.00000000  0.22D-15  0.12D-15  6  3     0.56
  15      1.11839592    -0.36335892  -115.41243422    -0.00000000    -0.00000000  0.25D-16  0.17D-16  6  2     0.60
  16      1.11839592    -0.36335892  -115.41243422    -0.00000000    -0.00000000  0.57D-17  0.16D-17  6  5     0.64
  17      1.11839592    -0.36335892  -115.41243422    -0.00000000    -0.00000000  0.55D-18  0.25D-18  6  4     0.67
  18      1.11839592    -0.36335892  -115.41243422     0.00000000    -0.00000000  0.86D-19  0.43D-19  6  1     0.71
  19      1.11839592    -0.36335892  -115.41243422    -0.00000000    -0.00000000  0.10D-19  0.44D-20  6  6     0.75
  20      1.11839592    -0.36335892  -115.41243422     0.00000000     0.00000000  0.16D-20  0.59D-21  6  3     0.79

 Norm of t1 vector:      0.04170063      S-energy:    -0.00000000      T1 diagnostic:  0.00788068
                                                                       D1 diagnostic:  0.01753943


 Total CPU time for triples:      0.21 sec


 RESULTS
 =======

  Reference energy                   -115.049075297328
  CCSD singlet pair energy             -0.254609828802
  CCSD triplet pair energy             -0.108749090222
  CCSD correlation energy              -0.363358919025

  Triples (T) contribution             -0.007740682657
  Total correlation energy             -0.371099601682

  CCSD total energy                  -115.412434216353
  CCSD[T] energy                     -115.420465264081
  CCSD-T energy                      -115.420024746105
 !CCSD(T) total energy               -115.420174899010

 Timing summary (sec):

 STEP                 CPU(USER)    SYS     CPU(TOT)    WALL
 Transformation          0.02      0.00      0.02      0.02
 CCSD iterations         0.77      0.06      0.83      0.85
 Triples                 0.21      0.00      0.21      0.21

 Program statistics:

 Available memory in ccsd:               999999704
 Min. memory needed in ccsd:                136801
 Max. memory used in ccsd:                  163198
 Max. memory used in cckext:                182024 (20 integral passes)



 **********************************************************************************************************************************
 DATASETS  * FILE   NREC   LENGTH (MB)   RECORD NAMES
              1      20       10.93       500      610      700      900      950      970     1000      129      960     1100   
                                          VAR    BASINP    GEOM    SYMINP    ZMAT    AOBASIS   BASIS     P2S    ABASIS      S 
                                         1400     1410     1200     1210     1080     1600     1650     1300     1700     1380   
                                           T        V       H0       H01     AOSYM     SMH    MOLCAS    ERIS     OPER     JKOP   

              2       3        0.39       700     1000     2100   
                                         GEOM     BASIS     RHF  

 PROGRAMS   *        TOTAL   CCSD(T)       RHF       INT
 CPU TIMES  *         1.31      1.00      0.08      0.18
 REAL TIME  *         1.64 SEC
 DISK USED  *        25.66 MB      
 GA USED    *         0.00 MB       (max)       0.00 MB       (current)
 **********************************************************************************************************************************

        CCSD(T)         RHF-SCF 
   -115.42017490   -115.04907530
 **********************************************************************************************************************************
 Variable memory released
