
    -----------------------------------------------------------------------
          Psi4: An Open-Source Ab Initio Electronic Structure Package
                               Psi4 1.4a2.dev629 

                         Git: Rev {master} 2938fc2 dirty


    D. G. A. Smith, L. A. Burns, A. C. Simmonett, R. M. Parrish,
    M. C. Schieber, R. Galvelis, P. Kraus, H. Kruse, R. Di Remigio,
    A. Alenaizan, A. M. James, S. Lehtola, J. P. Misiewicz, M. Scheurer,
    R. A. Shaw, J. B. Schriber, Y. Xie, Z. L. Glick, D. A. Sirianni,
    J. S. O'Brien, J. M. Waldrop, A. Kumar, E. G. Hohenstein,
    B. P. Pritchard, B. R. Brooks, H. F. Schaefer III, A. Yu. Sokolov,
    K. Patkowski, A. E. DePrince III, U. Bozkaya, R. A. King,
    F. A. Evangelista, J. M. Turney, T. D. Crawford, C. D. Sherrill,
    J. Chem. Phys. 152(18) 184108 (2020). https://doi.org/10.1063/5.0006002

                            Additional Code Authors
    E. T. Seidl, C. L. Janssen, E. F. Valeev, M. L. Leininger,
    J. F. Gonthier, R. M. Richard, H. R. McAlexander, M. Saitow, X. Wang,
    P. Verma, and M. H. Lechner

             Previous Authors, Complete List of Code Contributors,
                       and Citations for Specific Modules
    https://github.com/psi4/psi4/blob/master/codemeta.json
    https://github.com/psi4/psi4/graphs/contributors
    http://psicode.org/psi4manual/master/introduction.html#citing-psifour

    -----------------------------------------------------------------------


    Psi4 started on: Saturday, 19 September 2020 05:49PM

    Process ID: 19480
    Host:       n009
    PSIDATADIR: /opt/psi/4/master/share/psi4
    Memory:     500.0 MiB
    Threads:    1
    
  ==> Input File <==

--------------------------------------------------------------------------
# o-Benzyne preliminary computations

memory 14 gb

molecule {
  0 1
  C   -1.3773624315   -0.0241293683    0.0000021239
  O    1.2971305462    0.1216015635    0.0000020270
  H   -2.0659026951    1.9075752872   -0.0009167191
  H   -2.0987969539   -0.9785440165    1.6790318426
  H   -2.0987100749   -0.9800649829   -1.6781989830
  H    1.9367773692   -1.5715769429   -0.0000132813
  units bohr
}

set {
  basis=cc-pVTZ
  reference rhf
  e_convergence 10 
  d_convergence 10
  r_convergence 8
  maxiter 300
}

energy('ccsd(t)')
--------------------------------------------------------------------------

  Memory set to  13.039 GiB by Python driver.

Scratch directory: /tmp/

*** tstart() called on n009
*** at Sat Sep 19 17:50:00 2020

   => Loading Basis Set <=

    Name: CC-PVTZ
    Role: ORBITAL
    Keyword: BASIS
    atoms 1   entry C          line   186 file /opt/psi/4/master/share/psi4/basis/cc-pvtz.gbs 
    atoms 2   entry O          line   262 file /opt/psi/4/master/share/psi4/basis/cc-pvtz.gbs 
    atoms 3-6 entry H          line    23 file /opt/psi/4/master/share/psi4/basis/cc-pvtz.gbs 


         ---------------------------------------------------------
                                   SCF
               by Justin Turney, Rob Parrish, Andy Simmonett
                          and Daniel G. A. Smith
                              RHF Reference
                        1 Threads,  13351 MiB Core
         ---------------------------------------------------------

  ==> Geometry <==

    Molecular point group: c1
    Full point group: C1

    Geometry (in Bohr), charge = 0, multiplicity = 1:

       Center              X                  Y                   Z               Mass       
    ------------   -----------------  -----------------  -----------------  -----------------
         C           -1.372949008480    -0.024758433289     0.000003372641    12.000000000000
         O            1.301543969220     0.120972498511     0.000003275741    15.994914619570
         H           -2.061489272080     1.906946222211    -0.000915470359     1.007825032230
         H           -2.094383530880    -0.979173081489     1.679033091341     1.007825032230
         H           -2.094296651880    -0.980694047889    -1.678197734259     1.007825032230
         H            1.941190792220    -1.572206007889    -0.000012032559     1.007825032230

  Running in c1 symmetry.

  Rotational constants: A =      4.29609  B =      0.83244  C =      0.80298 [cm^-1]
  Rotational constants: A = 128793.61473  B =  24955.97566  C =  24072.69752 [MHz]
  Nuclear repulsion =   40.422974558095646

  Charge       = 0
  Multiplicity = 1
  Electrons    = 18
  Nalpha       = 9
  Nbeta        = 9

  ==> Algorithm <==

  SCF Algorithm Type is PK.
  DIIS enabled.
  MOM disabled.
  Fractional occupation disabled.
  Guess Type is SAD.
  Energy threshold   = 1.00e-10
  Density threshold  = 1.00e-10
  Integral threshold = 0.00e+00

  ==> Primary Basis <==

  Basis Set: CC-PVTZ
    Blend: CC-PVTZ
    Number of shells: 44
    Number of basis function: 116
    Number of Cartesian functions: 130
    Spherical Harmonics?: true
    Max angular momentum: 3

  ==> Integral Setup <==

  Using in-core PK algorithm.
   Calculation information:
      Number of atoms:                   6
      Number of AO shells:              44
      Number of primitives:             84
      Number of atomic orbitals:       130
      Number of basis functions:       116

      Integral cutoff                 1.00e-12
      Number of threads:                 1

  Performing in-core PK
  Using 46056582 doubles for integral storage.
  We computed 490499 shell quartets total.
  Whereas there are 490545 unique shell quartets.

  ==> DiskJK: Disk-Based J/K Matrices <==

    J tasked:                  Yes
    K tasked:                  Yes
    wK tasked:                  No
    Memory [MiB]:            10013
    Schwarz Cutoff:          1E-12

    OpenMP threads:              1

  Minimum eigenvalue in the overlap matrix is 1.8318068159E-03.
  Reciprocal condition number of the overlap matrix is 2.7617463496E-04.
    Using symmetric orthogonalization.

  ==> Pre-Iterations <==

  SCF Guess: Superposition of Atomic Densities via on-the-fly atomic UHF (no occupation information).

   -------------------------
    Irrep   Nso     Nmo    
   -------------------------
     A        116     116 
   -------------------------
    Total     116     116
   -------------------------

  ==> Iterations <==

                        Total Energy        Delta E     RMS |[F,P]|

   @RHF iter SAD:  -114.42719001315798   -1.14427e+02   0.00000e+00 
   @RHF iter   1:  -115.01451663473000   -5.87327e-01   3.42161e-03 DIIS
   @RHF iter   2:  -115.07164540010780   -5.71288e-02   1.95323e-03 DIIS
   @RHF iter   3:  -115.08844862374512   -1.68032e-02   3.01189e-04 DIIS
   @RHF iter   4:  -115.08933121869774   -8.82595e-04   8.78057e-05 DIIS
   @RHF iter   5:  -115.08940451852351   -7.32998e-05   2.13196e-05 DIIS
   @RHF iter   6:  -115.08940933963032   -4.82111e-06   4.72151e-06 DIIS
   @RHF iter   7:  -115.08940970526834   -3.65638e-07   1.09540e-06 DIIS
   @RHF iter   8:  -115.08940972672087   -2.14525e-08   2.26209e-07 DIIS
   @RHF iter   9:  -115.08940972762558   -9.04706e-10   4.19709e-08 DIIS
   @RHF iter  10:  -115.08940972765511   -2.95302e-11   1.07889e-08 DIIS
   @RHF iter  11:  -115.08940972765754   -2.43006e-12   2.19996e-09 DIIS
   @RHF iter  12:  -115.08940972765735    1.84741e-13   3.91557e-10 DIIS
   @RHF iter  13:  -115.08940972765775   -3.97904e-13   7.20486e-11 DIIS
  Energy and wave function converged.


  ==> Post-Iterations <==

    Orbital Energies [Eh]
    ---------------------

    Doubly Occupied:                                                      

       1A    -20.551633     2A    -11.267965     3A     -1.355274  
       4A     -0.924024     5A     -0.689054     6A     -0.619244  
       7A     -0.590749     8A     -0.502280     9A     -0.448848  

    Virtual:                                                              

      10A      0.138569    11A      0.179262    12A      0.220274  
      13A      0.223962    14A      0.290589    15A      0.385971  
      16A      0.403947    17A      0.546602    18A      0.584538  
      19A      0.624832    20A      0.625914    21A      0.640004  
      22A      0.691021    23A      0.704086    24A      0.722836  
      25A      0.833704    26A      0.865786    27A      0.872851  
      28A      0.928451    29A      1.068340    30A      1.103063  
      31A      1.176443    32A      1.188550    33A      1.264379  
      34A      1.272284    35A      1.284913    36A      1.362871  
      37A      1.448354    38A      1.496713    39A      1.523607  
      40A      1.546334    41A      1.585110    42A      1.622079  
      43A      1.778392    44A      2.091531    45A      2.178953  
      46A      2.196194    47A      2.299538    48A      2.323325  
      49A      2.491643    50A      2.512544    51A      2.576600  
      52A      2.806806    53A      2.952299    54A      3.053418  
      55A      3.111601    56A      3.115535    57A      3.145582  
      58A      3.226111    59A      3.245084    60A      3.314585  
      61A      3.316944    62A      3.346257    63A      3.385556  
      64A      3.501874    65A      3.611555    66A      3.636582  
      67A      3.702628    68A      3.709253    69A      3.746465  
      70A      3.761951    71A      3.815605    72A      3.843526  
      73A      3.908899    74A      4.019452    75A      4.035625  
      76A      4.118800    77A      4.162797    78A      4.173199  
      79A      4.249882    80A      4.258634    81A      4.291703  
      82A      4.397091    83A      4.441720    84A      4.467811  
      85A      4.561188    86A      4.582493    87A      4.715158  
      88A      4.790178    89A      5.002331    90A      5.037981  
      91A      5.061466    92A      5.202654    93A      5.276579  
      94A      5.315367    95A      5.376718    96A      5.463086  
      97A      5.546659    98A      5.554118    99A      5.570649  
     100A      5.793809   101A      5.947288   102A      6.187196  
     103A      6.211205   104A      6.247485   105A      6.429377  
     106A      6.644307   107A      7.001114   108A      7.127653  
     109A      7.186393   110A      7.236733   111A      7.356176  
     112A      7.436488   113A      7.595712   114A      7.916056  
     115A     12.153732   116A     13.775276  

    Final Occupation by Irrep:
              A 
    DOCC [     9 ]

  @RHF Final Energy:  -115.08940972765775

   => Energetics <=

    Nuclear Repulsion Energy =             40.4229745580956461
    One-Electron Energy =                -237.1266266846578787
    Two-Electron Energy =                  81.6142423989044943
    Total Energy =                       -115.0894097276577526

Computation Completed


Properties will be evaluated at   0.000000,   0.000000,   0.000000 [a0]

Properties computed using the SCF density matrix

  Nuclear Dipole Moment: [e a0]
     X:    -2.1343      Y:    -0.8059      Z:    -0.0000

  Electronic Dipole Moment: [e a0]
     X:     1.7509      Y:     0.2181      Z:     0.0000

  Dipole Moment: [e a0]
     X:    -0.3835      Y:    -0.5878      Z:    -0.0000     Total:     0.7018

  Dipole Moment: [D]
     X:    -0.9747      Y:    -1.4940      Z:    -0.0001     Total:     1.7838


*** tstop() called on n009 at Sat Sep 19 17:50:07 2020
Module time:
	user time   =       6.22 seconds =       0.10 minutes
	system time =       0.06 seconds =       0.00 minutes
	total time  =          7 seconds =       0.12 minutes
Total time:
	user time   =       6.22 seconds =       0.10 minutes
	system time =       0.06 seconds =       0.00 minutes
	total time  =          7 seconds =       0.12 minutes
 MINTS: Wrapper to libmints.
   by Justin Turney

   Calculation information:
      Number of threads:                 1
      Number of atoms:                   6
      Number of AO shells:              44
      Number of SO shells:              44
      Number of primitives:             84
      Number of atomic orbitals:       130
      Number of basis functions:       116

      Number of irreps:                  1
      Integral cutoff                 0.00e+00
      Number of functions per irrep: [ 116 ]

 OEINTS: Overlap, kinetic, potential, dipole, and quadrupole integrals
         stored in file 35.

      Computing two-electron integrals...done
      Computed 22877299 non-zero two-electron integrals.
        Stored in file 33.


*** tstart() called on n009
*** at Sat Sep 19 17:50:10 2020


	Wfn Parameters:
	--------------------
	Wavefunction         = CCSD_T
	Number of irreps     = 1
	Number of MOs        = 116
	Number of active MOs = 116
	AO-Basis             = NONE
	Semicanonical        = false
	Reference            = RHF
	Print Level          = 1

	IRREP	# MOs	# FZDC	# DOCC	# SOCC	# VIRT	# FZVR
	-----	-----	------	------	------	------	------
	 A	   116	    0	    9	    0	    107	    0
	Transforming integrals...
	IWL integrals will be deleted.
	(OO|OO)...
	Presorting SO-basis two-electron integrals.
	Sorting File: SO Ints (nn|nn) nbuckets = 1
	Transforming the one-electron integrals and constructing Fock matrices
	Starting first half-transformation.
	Sorting half-transformed integrals.
	First half integral transformation complete.
	Starting second half-transformation.
	Two-electron integral transformation complete.
	(OO|OV)...
	Starting second half-transformation.
	Two-electron integral transformation complete.
	(OO|VV)...
	Starting second half-transformation.
	Two-electron integral transformation complete.
	(OV|OO)...
	Starting first half-transformation.
	Sorting half-transformed integrals.
	First half integral transformation complete.
	Starting second half-transformation.
	Two-electron integral transformation complete.
	(OV|OV)...
	Starting second half-transformation.
	Two-electron integral transformation complete.
	(OV|VV)...
	Starting second half-transformation.
	Two-electron integral transformation complete.
	(VV|OO)...
	Starting first half-transformation.
	Sorting half-transformed integrals.
	First half integral transformation complete.
	Starting second half-transformation.
	Two-electron integral transformation complete.
	(VV|OV)...
	Starting second half-transformation.
	Two-electron integral transformation complete.
	(VV|VV)...
	Starting second half-transformation.
	Two-electron integral transformation complete.
	Frozen core energy     =      0.00000000000000

	Size of irrep 0 of <ab|cd> integrals:    131.080 (MW) /   1048.637 (MB)
	Total:                                   131.080 (MW) /   1048.637 (MB)

	Size of irrep 0 of <ia|bc> integrals:     11.025 (MW) /     88.203 (MB)
	Total:                                    11.025 (MW) /     88.203 (MB)

	Size of irrep 0 of tijab amplitudes:       0.927 (MW) /      7.419 (MB)
	Total:                                     0.927 (MW) /      7.419 (MB)

	Nuclear Rep. energy          =     40.42297455809565
	SCF energy                   =   -115.08940972765775
	One-electron energy          =   -237.12662671664589
	Two-electron energy          =     81.61424243089250
	Reference energy             =   -115.08940972765775

*** tstop() called on n009 at Sat Sep 19 17:50:41 2020
Module time:
	user time   =      24.20 seconds =       0.40 minutes
	system time =       5.75 seconds =       0.10 minutes
	total time  =         31 seconds =       0.52 minutes
Total time:
	user time   =      33.61 seconds =       0.56 minutes
	system time =       6.16 seconds =       0.10 minutes
	total time  =         41 seconds =       0.68 minutes
            **************************
            *                        *
            *        CCENERGY        *
            *                        *
            **************************

    Nuclear Rep. energy (wfn)     =   40.422974558095646
    SCF energy          (wfn)     = -115.089409727657753
    Reference energy    (file100) = -115.089409727657753

    Input parameters:
    -----------------
    Wave function   =     CCSD_T
    Reference wfn   =     RHF
    Brueckner       =     No
    Memory (Mbytes) =     14000.0
    Maxiter         =    300
    R_Convergence   =     1.0e-08
    E_Convergence   =     1.0e-10
    Restart         =     Yes
    DIIS            =     Yes
    AO Basis        =     NONE
    ABCD            =     NEW
    Cache Level     =     2
    Cache Type      =     LOW
    Print Level     =     1
    Num. of threads =     1
    # Amps to Print =     10
    Print MP2 Amps? =     No
    Analyze T2 Amps =     No
    Print Pair Ener =     No
    Local CC        =     No
    SCS-MP2         =     False
    SCSN-MP2        =     False
    SCS-CCSD        =     False

MP2 correlation energy -0.4574142901724157
                Solving CC Amplitude Equations
                ------------------------------
  Iter             Energy              RMS        T1Diag      D1Diag    New D1Diag    D2Diag
  ----     ---------------------    ---------   ----------  ----------  ----------   --------
     0        -0.457414290172416    0.000e+00    0.000000    0.000000    0.000000    0.128165
     1        -0.464939056744425    4.762e-02    0.006481    0.014833    0.014833    0.129283
     2        -0.474895732250603    1.562e-02    0.006590    0.014803    0.014803    0.135012
     3        -0.476366830386159    5.471e-03    0.007385    0.016884    0.016884    0.136439
     4        -0.476263927481125    1.202e-03    0.007437    0.017030    0.017030    0.136667
     5        -0.476303924898737    4.345e-04    0.007469    0.017165    0.017165    0.136765
     6        -0.476312471746071    1.229e-04    0.007479    0.017217    0.017217    0.136773
     7        -0.476310284011105    4.555e-05    0.007481    0.017232    0.017232    0.136770
     8        -0.476310150273095    1.693e-05    0.007482    0.017240    0.017240    0.136770
     9        -0.476310253085221    4.889e-06    0.007482    0.017242    0.017242    0.136770
    10        -0.476310008740744    1.559e-06    0.007482    0.017242    0.017242    0.136770
    11        -0.476310076149335    4.793e-07    0.007482    0.017242    0.017242    0.136770
    12        -0.476310061876189    1.174e-07    0.007482    0.017242    0.017242    0.136770
    13        -0.476310064983397    4.188e-08    0.007482    0.017242    0.017242    0.136770
    14        -0.476310066134970    1.190e-08    0.007482    0.017242    0.017242    0.136770
    15        -0.476310066177053    4.897e-09    0.007482    0.017242    0.017242    0.136770
    16        -0.476310066206603    1.530e-09    0.007482    0.017242    0.017242    0.136770

    Iterations converged.


    Largest TIA Amplitudes:
              5   6        -0.0079337683
              5  14         0.0076446289
              5   9         0.0070515061
              8  14        -0.0064129874
              6   7         0.0060664889
              6   3        -0.0058789060
              7   8         0.0058329655
              5   2         0.0056326666
              8   6         0.0052625934
              6   5        -0.0050328949

    Largest TIjAb Amplitudes:
      5   5   9   9        -0.0231151664
      8   8  14  14        -0.0213570308
      6   6   7   7        -0.0213166212
      7   7  12  12        -0.0204307494
      4   4   7   7        -0.0189227945
      6   6   8   8        -0.0160345034
      7   7   7   7        -0.0151464090
      5   5  14  14        -0.0151385833
      5   5   2   9        -0.0150250542
      5   5   9   2        -0.0150250542

    SCF energy       (wfn)                    = -115.089409727657753
    Reference energy (file100)                = -115.089409727657753

    Opposite-spin MP2 correlation energy      =   -0.353851297976083
    Same-spin MP2 correlation energy          =   -0.103562992196333
    Singles MP2 correlation energy            =   -0.000000000000000
    MP2 correlation energy                    =   -0.457414290172416
      * MP2 total energy                      = -115.546824017830161

    Opposite-spin CCSD correlation energy     =   -0.381813980033062
    Same-spin CCSD correlation energy         =   -0.094496086173540
    Singles CCSD correlation energy           =    0.000000000000000
    CCSD correlation energy                   =   -0.476310066206603
      * CCSD total energy                     = -115.565719793864361

            **************************
            *                        *
            *        CCTRIPLES       *
            *                        *
            **************************


    Wave function   =    CCSD_T
    Reference wfn   =      RHF

    Nuclear Rep. energy (wfn)                =   40.422974558095646
    SCF energy          (wfn)                = -115.089409727657753
    Reference energy    (file100)            = -115.089409727657753
    CCSD energy         (file100)            =   -0.476310066206603
    Total CCSD energy   (file100)            = -115.565719793864361

    Number of ijk index combinations:              165
    Memory available in words        :      1750000000
    ~Words needed per explicit thread:         4900172
    Number of threads for explicit ijk threading:    1

    MKL num_threads set to 1 for explicit threading.

    (T) energy                                =   -0.015045483125192
      * CCSD(T) total energy                  = -115.580765276989553


    Psi4 stopped on: Saturday, 19 September 2020 05:52PM
    Psi4 wall time for execution: 0:02:54.72

*** Psi4 exiting successfully. Buy a developer a beer!
