
 Working directory              : /scratch/mel64643/tmp/40073363/
 Global scratch directory       : /scratch/mel64643/tmp/40073363/
 Wavefunction directory         : /home/mel64643/wfu/
 Main file repository           : /scratch/mel64643/tmp/40073363/

 id        : ccgc

 Nodes     nprocs
 a1-8         3
 Distribution of processes:   nprocs(total)=    4   nprocs(compute)=    3   nprocs(helper)=    1
 GA implementation: MPI file
 GA implementation (serial work in mppx): MPI file

 Using customized tuning parameters: mindgm=1; mindgv=20; mindgc=4; mindgr=1; noblas=0; minvec=7
 default implementation of scratch files=sf  


 Variables initialized (1015), CPU time= 0.00 sec
 ***,Optimization of min3
 memory,1000,m
 gthresh,energy=1.0d-12,orbital=1.0d-10,oneint=1.0d-16,twoint=1.0d-16,optgrad=1.0d-6,compress=1.0d-13
 geomtyp=xyz
 
  bohr
  geometry = {
  6
  arbitrary comment
  C   -1.3820249074   -0.0270384313    0.0000003844
  O    1.3133193421    0.1061524031    0.0000003278
  H   -2.0792676795    1.9139576830   -0.0000799893
  H   -2.1212778691   -0.9769399104    1.6817992852
  H   -2.1212714788   -0.9770711414   -1.6817271446
  H    1.9667984327   -1.5691927230   -0.0000012736
 }
 
 basis=cc-pvdz
 {rhf;maxit,200}
 {ccsd(t);maxit,200}
 Commands initialized (818), CPU time= 0.01 sec, 672 directives.
 Default parameters read. Elapsed time= 0.11 sec

 Checking input...
 Passed
1


                                         ***  PROGRAM SYSTEM MOLPRO  ***
                                       Copyright, TTI GmbH Stuttgart, 2015
                                    Version 2022.1 linked Mar  4 2022 00:40:14


 **********************************************************************************************************************************
 LABEL *   Optimization of min3                                                          
  64 bit mpp version                                                                     DATE: 07-Aug-25          TIME: 21:26:36  
 **********************************************************************************************************************************

 SHA1:             31073afc4d8441e10870424e0d77336a33bc4286
 **********************************************************************************************************************************

 Memory per process:      1000 MW
 Total memory per node:   3000 MW

 GA preallocation disabled
 GA check disabled

 Variable memory set to 1000.0 MW


 THRESHOLDS:

 ZERO    =  1.00D-12  ONEINT  =  1.00D-16  TWOINT  =  1.00D-16  PREFAC  =  1.00D-14  XXXXXX  =  1.00D-09  EORDER  =  1.00D-04
 ENERGY  =  1.00D-12  ETEST   =  0.00D+00  EDENS   =  0.00D+00  THRDEDEF=  1.00D-06  GRADIENT=  1.00D-05  STEP    =  1.00D-03
 ORBITAL =  1.00D-10  CIVEC   =  1.00D-05  COEFF   =  1.00D-04  PRINTCI =  5.00D-02  PUNCHCI =  9.90D+01  OPTGRAD =  1.00D-06
 OPTENERG=  1.00D-06  OPTSTEP =  3.00D-04  THRGRAD =  1.00D-10  COMPRESS=  1.00D-13  VARMIN  =  1.00D-07  VARMAX  =  1.00D-03
 THRDOUB =  0.00D+00  THRDIV  =  1.00D-05  THRRED  =  1.00D-07  THRPSP  =  1.00D+00  THRDC   =  1.00D-10  THRCS   =  1.00D-10
 THRNRM  =  1.00D-08  THREQ   =  0.00D+00  THRDE   =  1.00D+00  THRREF  =  1.00D-05  SPARFAC =  1.00D+00  THRDLP  =  1.00D-07
 THRDIA  =  1.00D-10  THRDLS  =  1.00D-07  THRGPS  =  0.00D+00  THRKEX  =  0.00D+00  THRDIS  =  2.00D-01  THRVAR  =  1.00D-10
 THRLOC  =  1.00D-06  THRGAP  =  1.00D-06  THRLOCT = -1.00D+00  THRGAPT = -1.00D+00  THRORB  =  1.00D-06  THRMLTP =  0.00D+00
 THRCPQCI=  1.00D-10  KEXTA   =  0.00D+00  THRCOARS=  0.00D+00  SYMTOL  =  1.00D-06  GRADTOL =  1.00D-06  THROVL  =  1.00D-08
 THRORTH =  1.00D-08  THRDLOVL= -1.00D+00  GRID    =  1.00D-06  GRIDMAX =  1.00D-03  DTMAX   =  0.00D+00  THROCCDE=  1.00D-01
 THROCCDE=  1.00D-01  THRPRINT=  2.50D-01

 SETTING GEOMTYP        =    XYZ
 ZUNIT=BOHR

 SETTING BASIS          =    CC-PVDZ


 Recomputing integrals since basis changed


 Using spherical harmonics

 Library entry C      S cc-pVDZ              selected for orbital group  1
 Library entry C      P cc-pVDZ              selected for orbital group  1
 Library entry C      D cc-pVDZ              selected for orbital group  1
 Library entry O      S cc-pVDZ              selected for orbital group  2
 Library entry O      P cc-pVDZ              selected for orbital group  2
 Library entry O      D cc-pVDZ              selected for orbital group  2
 Library entry H      S cc-pVDZ              selected for orbital group  3
 Library entry H      P cc-pVDZ              selected for orbital group  3


 PROGRAM * SEWARD (Integral evaluation for generally contracted gaussian basis sets)     Author: Roland Lindh, 1990

 Geometry written to block  1 of record 700


 Point group  C1  



 ATOMIC COORDINATES

 NR  ATOM    CHARGE       X              Y              Z

   1  C       6.00   -1.382024907   -0.027038431    0.000000384
   2  O       8.00    1.313319342    0.106152403    0.000000328
   3  H       1.00   -2.079267680    1.913957683   -0.000079989
   4  H       1.00   -2.121277869   -0.976939910    1.681799285
   5  H       1.00   -2.121271479   -0.977071141   -1.681727145
   6  H       1.00    1.966798433   -1.569192723   -0.000001274

 Bond lengths in Bohr (Angstrom)

 1-2  2.698633065  1-3  2.062429006  1-4  2.068152631  1-5  2.068152588  2-6  1.798281461
     ( 1.428055119)     ( 1.091390429)     ( 1.094419241)     ( 1.094419218)     ( 0.951609568)

 Bond angles

  1-2-6  108.47961023   2-1-3  106.93027653   2-1-4  112.31380856   2-1-5  112.31380977

  3-1-4  108.14645276   3-1-5  108.14629534   4-1-5  108.81396971

 NUCLEAR CHARGE:                   18
 NUMBER OF PRIMITIVE AOS:          82
 NUMBER OF SYMMETRY AOS:           80
 NUMBER OF CONTRACTIONS:           48   (   48A   )
 NUMBER OF INNER CORE ORBITALS:     0   (    0A   )
 NUMBER OF OUTER CORE ORBITALS:     2   (    2A   )
 NUMBER OF VALENCE ORBITALS:       12   (   12A   )


 NUCLEAR REPULSION ENERGY   40.21189409

 Eigenvalues of metric

         1 0.970E-02 0.177E-01 0.368E-01 0.374E-01 0.377E-01 0.474E-01 0.479E-01 0.518E-01


 Contracted 2-electron integrals neglected if value below      1.0D-16
 AO integral compression algorithm  1   Integral accuracy      1.0D-16

     6.554 MB (compressed) written to integral file (100.0%)

     Node minimum: 1.835 MB, node maximum: 2.359 MB


 NUMBER OF SORTED TWO-ELECTRON INTEGRALS:     231084.     BUFFER LENGTH:  32768
 NUMBER OF SEGMENTS:   1  SEGMENT LENGTH:     231084      RECORD LENGTH: 524288

 Memory used in sort:       0.79 MW

 SORT1 READ      832256. AND WROTE      227682. INTEGRALS IN      1 RECORDS. CPU TIME:     0.01 SEC, REAL TIME:     0.02 SEC
 SORT2 READ      682148. AND WROTE      692076. INTEGRALS IN     27 RECORDS. CPU TIME:     0.01 SEC, REAL TIME:     0.02 SEC

 Node minimum:      230300.  Node maximum:      231084. integrals

 OPERATOR DM      FOR CENTER  0  COORDINATES:    0.000000    0.000000    0.000000


 **********************************************************************************************************************************
 DATASETS  * FILE   NREC   LENGTH (MB)   RECORD NAMES
              1      18       28.73       500      610      700      900      950      970     1000      129      960     1100   
                                          VAR    BASINP    GEOM    SYMINP    ZMAT    AOBASIS   BASIS     P2S    ABASIS      S 
                                         1400     1410     1200     1210     1080     1600     1650     1700   
                                           T        V       H0       H01     AOSYM     SMH    MOLCAS    OPER   

 PROGRAMS   *        TOTAL       INT
 CPU TIMES  *         0.51      0.36
 REAL TIME  *         1.84 SEC
 DISK USED  *        29.07 MB (local),      104.31 MB (total)
 GA USED    *         0.00 MB       (max)       0.00 MB       (current)
 **********************************************************************************************************************************


 Program * Restricted Hartree-Fock

 Orbital guess generated from atomic densities. Full valence occupancy:   14

 Initial occupancy:   9

 NELEC=   18   SYM=1   MS2= 0   THRE=1.0D-12   THRD=1.0D-10   THRG=1.0D-10  HFMA2=F  DIIS_START=2   DIIS_MAX=10   DIIS_INCORE=F

 Level shifts:    0.00 (CLOSED)    0.00 (OPEN)    0.30 (GAP_MIN)

 ITER           ETOT              DE          GRAD        DDIFF     DIIS  NEXP   TIME(IT)  TIME(TOT)  DIAG
   1     -115.01437712    -115.01437712     0.00D+00     0.16D+00     0     0       0.00      0.00    start
   2     -115.04255099      -0.02817387     0.10D-01     0.21D-01     1     0       0.01      0.01    diag
   3     -115.04857793      -0.00602694     0.48D-02     0.64D-02     2     0       0.00      0.01    diag
   4     -115.04903470      -0.00045677     0.10D-02     0.20D-02     3     0       0.00      0.01    diag
   5     -115.04905478      -0.00002008     0.18D-03     0.43D-03     4     0       0.00      0.01    diag
   6     -115.04905552      -0.00000073     0.31D-04     0.91D-04     5     0       0.01      0.02    diag
   7     -115.04905554      -0.00000003     0.64D-05     0.14D-04     6     0       0.01      0.03    diag
   8     -115.04905555      -0.00000000     0.21D-05     0.48D-05     7     0       0.00      0.03    fixocc
   9     -115.04905555      -0.00000000     0.42D-06     0.13D-05     8     0       0.00      0.03    diag
  10     -115.04905555      -0.00000000     0.64D-07     0.22D-06     9     0       0.00      0.03    diag/orth
  11     -115.04905555       0.00000000     0.14D-07     0.39D-07     9     0       0.01      0.04    diag
  12     -115.04905555      -0.00000000     0.37D-08     0.11D-07     9     0       0.00      0.04    diag
  13     -115.04905555       0.00000000     0.63D-09     0.17D-08     9     0       0.00      0.04    diag
  14     -115.04905555      -0.00000000     0.14D-09     0.37D-09     9     0       0.00      0.04    diag
  15     -115.04905555       0.00000000     0.55D-10     0.99D-10     9     0       0.01      0.05    diag
  16     -115.04905555       0.00000000     0.13D-10     0.27D-10     0     0       0.00      0.05    diag

 Final occupancy:   9

 !RHF STATE 1.1 Energy               -115.049055547209
  RHF One-electron energy            -236.692273831395
  RHF Two-electron energy              81.431324195028
  RHF Kinetic energy                  114.936828402080
  RHF Nuclear energy                   40.211894089158
  RHF Virial quotient                  -1.000976424586

 !RHF STATE 1.1 Dipole moment          -0.39869205    -0.59040702    -0.00000272
 Dipole moment /Debye                  -1.01337411    -1.50066497    -0.00000691

 Orbital energies:

           1.1          2.1          3.1          4.1          5.1          6.1          7.1          8.1          9.1         10.1
    -20.548731   -11.275790    -1.348259    -0.922583    -0.682532    -0.612549    -0.583796    -0.496771    -0.443802     0.185416

          11.1
      0.224305


 HOMO      9.1    -0.443802 =     -12.0765eV
 LUMO     10.1     0.185416 =       5.0454eV
 LUMO-HOMO         0.629218 =      17.1219eV

 Orbitals saved in record  2100.2


 **********************************************************************************************************************************
 DATASETS  * FILE   NREC   LENGTH (MB)   RECORD NAMES
              1      18       28.73       500      610      700      900      950      970     1000      129      960     1100   
                                          VAR    BASINP    GEOM    SYMINP    ZMAT    AOBASIS   BASIS     P2S    ABASIS      S 
                                         1400     1410     1200     1210     1080     1600     1650     1700   
                                           T        V       H0       H01     AOSYM     SMH    MOLCAS    OPER   

              2       4        0.47       700     1000      520     2100   
                                         GEOM     BASIS   MCVARS     RHF  

 PROGRAMS   *        TOTAL   RHF-SCF       INT
 CPU TIMES  *         0.56      0.05      0.36
 REAL TIME  *         2.04 SEC
 DISK USED  *        29.40 MB (local),      105.30 MB (total)
 GA USED    *         0.00 MB       (max)       0.00 MB       (current)
 **********************************************************************************************************************************


 PROGRAM * CCSD (Closed-shell coupled cluster)     Authors: C. Hampel, H.-J. Werner, 1991, M. Deegan, P.J. Knowles, 1992


 Convergence thresholds:  THRVAR = 1.00D-08  THRDEN = 1.00D-12

 CCSD(T)     terms to be evaluated (factor= 1.000)


 Number of core orbitals:           2 (   2 )
 Number of closed-shell orbitals:   7 (   7 )
 Number of external orbitals:      39 (  39 )

 Molecular orbitals read from record     2100.2  Type=RHF/CANONICAL  

 Number of N-1 electron functions:               7
 Number of N-2 electron functions:              28
 Number of singly external CSFs:               273
 Number of doubly external CSFs:             37401
 Total number of CSFs:                       37675

 Length of J-op  integral file:               0.00 MB
 Length of K-op  integral file:               0.16 MB
 Length of 3-ext integral record:             0.00 MB

 Memory could be reduced to 0.73 Mwords without degradation in triples

 Integral transformation finished. Total CPU:   0.03 sec, npass=  1  Memory used:   0.66 MW

 Reference energy:                   -115.04905555

 MP2 singlet pair energy:              -0.21854703
 MP2 triplet pair energy:              -0.11970113
 MP2 correlation energy:               -0.33824815
 MP2 total energy:                   -115.38730370

 SCS-MP2 correlation energy:           -0.33673713   (PS=  1.200000  PT=  0.333333)
 SCS-MP2 total energy:               -115.38579268

 ITER.      SQ.NORM     CORR.ENERGY   TOTAL ENERGY   ENERGY CHANGE        DEN1      VAR(S)    VAR(P)  DIIS     TIME  TIME/IT
   1      1.10730602    -0.36108932  -115.41014487    -0.02284117    -0.01416264  0.91D-03  0.17D-02  1  1     0.05     0.04
   2      1.11583809    -0.36303439  -115.41208993    -0.00194507    -0.00924868  0.20D-04  0.16D-03  2  2     0.07     0.03
   3      1.11772236    -0.36316290  -115.41221845    -0.00012851    -0.00120412  0.96D-05  0.86D-05  3  3     0.09     0.03
   4      1.11823974    -0.36316134  -115.41221689     0.00000156    -0.00025547  0.34D-06  0.68D-06  4  4     0.11     0.03
   5      1.11833930    -0.36316168  -115.41221723    -0.00000034    -0.00003646  0.10D-06  0.50D-07  5  5     0.13     0.03
   6      1.11835877    -0.36316031  -115.41221586     0.00000137    -0.00000442  0.16D-07  0.42D-08  6  6     0.15     0.03
   7      1.11836361    -0.36315988  -115.41221542     0.00000043    -0.00000035  0.20D-08  0.73D-09  6  1     0.18     0.03
   8      1.11836489    -0.36315998  -115.41221553    -0.00000010     0.00000076  0.26D-09  0.74D-10  6  3     0.20     0.03
   9      1.11836597    -0.36315986  -115.41221540     0.00000013    -0.00000039  0.13D-10  0.11D-10  6  2     0.22     0.03
  10      1.11836590    -0.36315986  -115.41221540    -0.00000000     0.00000007  0.11D-11  0.91D-12  6  5     0.24     0.03
  11      1.11836593    -0.36315986  -115.41221540     0.00000000    -0.00000000  0.20D-12  0.52D-13  6  4     0.26     0.03
  12      1.11836591    -0.36315986  -115.41221540    -0.00000000     0.00000001  0.19D-13  0.11D-13  6  1     0.28     0.03
  13      1.11836592    -0.36315986  -115.41221540    -0.00000000    -0.00000000  0.24D-14  0.97D-15  6  6     0.31     0.03
  14      1.11836592    -0.36315986  -115.41221540     0.00000000    -0.00000000  0.23D-15  0.13D-15  6  3     0.33     0.03
  15      1.11836592    -0.36315986  -115.41221540    -0.00000000    -0.00000000  0.25D-16  0.17D-16  6  2     0.35     0.03
  16      1.11836592    -0.36315986  -115.41221540    -0.00000000    -0.00000000  0.58D-17  0.17D-17  6  5     0.37     0.03
  17      1.11836592    -0.36315986  -115.41221540    -0.00000000    -0.00000000  0.56D-18  0.26D-18  6  4     0.39     0.03
  18      1.11836592    -0.36315986  -115.41221540     0.00000000    -0.00000000  0.86D-19  0.44D-19  6  1     0.42     0.03
  19      1.11836592    -0.36315986  -115.41221540    -0.00000000    -0.00000000  0.99D-20  0.45D-20  6  6     0.44     0.03
  20      1.11836592    -0.36315986  -115.41221540     0.00000000     0.00000000  0.14D-20  0.58D-21  6  3     0.46     0.03

 Norm of t1 vector:      0.04171631      S-energy:    -0.00000000      T1 diagnostic:  0.00788364
                                                                       D1 diagnostic:  0.01779928
                                                                       D2 diagnostic:  0.13459982 (internal)


 Total CPU time for triples:      0.09 sec


 RESULTS
 =======

  Reference energy                   -115.049055547209
  CCSD singlet pair energy             -0.254515990144
  CCSD triplet pair energy             -0.108643867394
  CCSD correlation energy              -0.363159857539

  Triples (T) contribution             -0.007732639964
  Total correlation energy             -0.370892497503

  CCSD total energy                  -115.412215404748
  CCSD[T] energy                     -115.420239194626
  CCSD-T energy                      -115.419797396675
 !CCSD(T) total energy               -115.419948044712

 Timing summary (sec):

 STEP                 CPU(USER)    SYS     CPU(TOT)    WALL
 Transformation          0.03      0.01      0.04      0.04
 CCSD iterations         0.43      0.05      0.48      0.69
 Triples                 0.09      0.00      0.09      0.08

 Program statistics:

 Available memory in ccsd:               999999795
 Min. memory needed in ccsd:                136177
 Max. memory used in ccsd:                  162910
 Max. memory used in cckext:                178997 (20 integral passes)



 **********************************************************************************************************************************
 DATASETS  * FILE   NREC   LENGTH (MB)   RECORD NAMES
              1      19       31.13       500      610      700      900      950      970     1000      129      960     1100   
                                          VAR    BASINP    GEOM    SYMINP    ZMAT    AOBASIS   BASIS     P2S    ABASIS      S 
                                         1400     1410     1200     1210     1080     1600     1650     1700     1380   
                                           T        V       H0       H01     AOSYM     SMH    MOLCAS    OPER     JKOP   

              2       4        0.47       700     1000      520     2100   
                                         GEOM     BASIS   MCVARS     RHF  

 PROGRAMS   *        TOTAL   CCSD(T)   RHF-SCF       INT
 CPU TIMES  *         1.14      0.58      0.05      0.36
 REAL TIME  *         2.91 SEC
 DISK USED  *        35.56 MB (local),      115.95 MB (total)
 SF USED    *         5.97 MB
 GA USED    *         0.00 MB       (max)       0.00 MB       (current)
 **********************************************************************************************************************************

 CCSD(T)/cc-pVDZ energy=   -115.419948044712

         CCSD(T)         RHF-SCF
   -115.41994804   -115.04905555
 **********************************************************************************************************************************
 Molpro calculation terminated
