
 Primary working directories    : /tmp/786251.7.gen4.q
 Secondary working directories  : /tmp/786251.7.gen4.q
 Wavefunction directory         : /home/vulcan/nlk36701/wfu/
 Main file repository           : /tmp/786251.7.gen4.q/

 ARCHNAME  : Linux/x86_64
 FC        : /opt/intel/compilers_and_libraries_2016.1.150/linux/bin/intel64/ifort
 FCVERSION : 16.0.1
 BLASLIB   : -mkl
 id        : ccgc

 Nodes     nprocs
 n029         1
 ga_uses_ma=false, calling ma_init with nominal heap.
 GA-space will be limited to   8.0 MW (determined by -G option)

 Using customized tuning parameters: mindgm=10; mindgv=16; mindgc=4; mindgr=1; noblas=0; mincuda=1000; minvec=7
 default implementation of scratch files=df  

 ***,Optimization of min3
 memory,1000,m
 gthresh,energy=1.0d-12,orbital=1.0d-10,oneint=1.0d-16,twoint=1.0d-16,optgrad=1.0d-6,compress=1.0d-13
 geomtyp=xyz
 
  bohr
  geometry = {
  3
  arbitrary comment
  H   -0.0000000000   -1.4334539661    0.9975283638
  O    0.0000000000   -0.0000000000   -0.1287131076
  H    0.0000000000    1.4334539661    0.9975283638
 }
 
 basis=cc-pvdz
 {rhf;maxit,200}
 scfDZ=energy
 {ccsd(t);maxit,200}
 mp2DZ = emp2
 ccsdDZ=energc
 ccsdt_DZ=energy
 
 show[1,f20.15],scfDZ
 show[1,f20.15],mp2DZ
 show[1,f20.15],ccsdDZ
 show[1,f20.15],ccsdt_DZ

 Variables initialized (661), CPU time= 0.00 sec
 Commands  initialized (458), CPU time= 0.01 sec, 486 directives.
 Default parameters read. Elapsed time= 0.05 sec

 Checking input...
 Passed
1


                                         ***  PROGRAM SYSTEM MOLPRO  ***
                         Copyright, University College Cardiff Consultants Limited, 2008

                                    Version 2010.1 linked May 16 2016 07:17:05


 **********************************************************************************************************************************
 LABEL *   Optimization of min3                                                          
 Linux-4.4.3/n029(x86_64) 64 bit mpp version                                             DATE: 03-Aug-22          TIME: 12:15:21  
 **********************************************************************************************************************************

 SHA1:             9e8077add272b0f3cad6f7df79ec5211205f459d
 **********************************************************************************************************************************

 THRESHOLDS:

 ZERO    =  1.00D-12  ONEINT  =  1.00D-16  TWOINT  =  1.00D-16  PREFAC  =  1.00D-14  LOCALI  =  1.00D-09  EORDER  =  1.00D-04
 ENERGY  =  1.00D-12  ETEST   =  0.00D+00  EDENS   =  0.00D+00  THRDEDEF=  1.00D-06  GRADIENT=  1.00D-02  STEP    =  1.00D-03
 ORBITAL =  1.00D-10  CIVEC   =  1.00D-05  COEFF   =  1.00D-04  PRINTCI =  5.00D-02  PUNCHCI =  9.90D+01  OPTGRAD =  1.00D-06
 OPTENERG=  1.00D-06  OPTSTEP =  3.00D-04  THRGRAD =  1.00D-10  COMPRESS=  1.00D-13  VARMIN  =  1.00D-07  VARMAX  =  1.00D-03
 THRDOUB =  0.00D+00  THRDIV  =  1.00D-05  THRRED  =  1.00D-07  THRPSP  =  1.00D+00  THRDC   =  1.00D-10  THRCS   =  1.00D-10
 THRNRM  =  1.00D-08  THREQ   =  0.00D+00  THRDE   =  1.00D+00  THRREF  =  1.00D-05  SPARFAC =  1.00D+00  THRDLP  =  1.00D-07
 THRDIA  =  1.00D-10  THRDLS  =  1.00D-07  THRGPS  =  0.00D+00  THRKEX  =  0.00D+00  THRDIS  =  2.00D-01  THRVAR  =  1.00D-10
 THRLOC  =  1.00D-06  THRGAP  =  1.00D-06  THRLOCT = -1.00D+00  THRGAPT = -1.00D+00  THRORB  =  1.00D-06  THRMLTP =  0.00D+00
 THRCPQCI=  1.00D-10  KEXTA   =  0.00D+00  THRCOARS=  0.00D+00  SYMTOL  =  1.00D-06  GRADTOL =  1.00D-06  THROVL  =  1.00D-08
 THRORTH =  1.00D-08  GRID    =  1.00D-06  GRIDMAX =  1.00D-03  DTMAX   =  0.00D+00

 SETTING GEOMTYP        =    XYZ
 ZUNIT=BOHR
 

 Variable memory set to 1000000000 words,  buffer space   230000 words

 SETTING BASIS          =    CC-PVDZ


 Recomputing integrals since basis changed


 Using spherical harmonics

 Library entry H      S cc-pVDZ              selected for orbital group  1
 Library entry H      P cc-pVDZ              selected for orbital group  1
 Library entry O      S cc-pVDZ              selected for orbital group  2
 Library entry O      P cc-pVDZ              selected for orbital group  2
 Library entry O      D cc-pVDZ              selected for orbital group  2

1PROGRAM * SEWARD (Integral evaluation for generally contracted gaussian basis sets)     Author: Roland Lindh, 1990

 Geometry written to block  1 of record 700


 Point group  C2v 



 ATOMIC COORDINATES

 NR  ATOM    CHARGE       X              Y              Z

   1  H       1.00    0.000000000   -1.433453966    0.997528364
   2  H       1.00    0.000000000    1.433453966    0.997528364
   3  O       8.00    0.000000000    0.000000000   -0.128713108

 Bond lengths in Bohr (Angstrom)

 1-3  1.822967395  2-3  1.822967395
     ( 0.964672798)     ( 0.964672798)

 Bond angles

  1-3-2  103.68771116

 NUCLEAR CHARGE:                   10
 NUMBER OF PRIMITIVE AOS:          41
 NUMBER OF SYMMETRY AOS:           40
 NUMBER OF CONTRACTIONS:           24   (  11A1  +   4B1  +   7B2  +   2A2  )
 NUMBER OF CORE ORBITALS:           1   (   1A1  +   0B1  +   0B2  +   0A2  )
 NUMBER OF VALENCE ORBITALS:        6   (   3A1  +   1B1  +   2B2  +   0A2  )


 NUCLEAR REPULSION ENERGY    9.12570646


 Eigenvalues of metric

         1 0.177E-01 0.516E-01 0.160E+00 0.223E+00 0.520E+00 0.986E+00 0.101E+01 0.128E+01
         2 0.183E+00 0.528E+00 0.110E+01 0.224E+01
         3 0.455E-01 0.990E-01 0.172E+00 0.671E+00 0.102E+01 0.117E+01 0.254E+01
         4 0.625E+00 0.132E+01


 Contracted 2-electron integrals neglected if value below      1.0D-16
 AO integral compression algorithm  1   Integral accuracy      1.0D-16

     0.262 MB (compressed) written to integral file (100.0%)

     Node minimum: 0.262 MB, node maximum: 0.262 MB


 NUMBER OF SORTED TWO-ELECTRON INTEGRALS:      13826.     BUFFER LENGTH:  32768
 NUMBER OF SEGMENTS:   1  SEGMENT LENGTH:      13826      RECORD LENGTH: 524288

 Memory used in sort:       0.57 MW

 SORT1 READ       19080. AND WROTE       12665. INTEGRALS IN      1 RECORDS. CPU TIME:     0.00 SEC, REAL TIME:     0.00 SEC
 SORT2 READ       12665. AND WROTE       13826. INTEGRALS IN      1 RECORDS. CPU TIME:     0.00 SEC, REAL TIME:     0.01 SEC

 FILE SIZES:   FILE 1:     2.7 MBYTE,  FILE 4:     4.2 MBYTE,   TOTAL:      6.9 MBYTE

 OPERATOR DM      FOR CENTER  0  COORDINATES:    0.000000    0.000000    0.000000


 **********************************************************************************************************************************
 DATASETS  * FILE   NREC   LENGTH (MB)   RECORD NAMES
              1      19        2.69       500      610      700      900      950      970     1000      129      960     1100   
                                          VAR    BASINP    GEOM    SYMINP    ZMAT    AOBASIS   BASIS     P2S    ABASIS      S 
                                         1400     1410     1200     1210     1080     1600     1650     1300     1700   
                                           T        V       H0       H01     AOSYM     SMH    MOLCAS    ERIS     OPER   

 PROGRAMS   *        TOTAL       INT
 CPU TIMES  *         0.23      0.17
 REAL TIME  *         0.96 SEC
 DISK USED  *         7.70 MB      
 GA USED    *         0.00 MB       (max)       0.00 MB       (current)
 **********************************************************************************************************************************

1PROGRAM * RHF-SCF (CLOSED SHELL)       Authors: W. Meyer, H.-J. Werner


 NUMBER OF ELECTRONS:       5+    5-
 CONVERGENCE THRESHOLDS:    1.00E-10 (Density)    1.00E-13 (Energy)
 MAX. NUMBER OF ITERATIONS:      200
 INTERPOLATION TYPE:            DIIS
 INTERPOLATION STEPS:              2 (START)      1 (STEP)
 LEVEL SHIFTS:                  0.00 (CLOSED)  0.00 (OPEN) 



 Orbital guess generated from atomic densities. Full valence occupancy:    4   1   2   0

 Molecular orbital dump at record        2100.2

 Initial alpha occupancy:   3   1   1   0
 Initial beta  occupancy:   3   1   1   0
 Wave function symmetry:    1

 ITERATION    DDIFF          GRAD             ENERGY        2-EL.EN.            DIPOLE MOMENTS         DIIS
    1      0.000D+00      0.000D+00       -75.98777318     77.771962    0.00000    0.00000    1.16038    0
    2      0.000D+00      0.414D-01       -76.01752697     74.502233    0.00000    0.00000    0.75789    1
    3      0.776D-01      0.218D-01       -76.02610690     75.832337    0.00000    0.00000    0.83409    2
    4      0.255D-01      0.247D-02       -76.02632828     75.734487    0.00000    0.00000    0.82133    3
    5      0.479D-02      0.668D-03       -76.02634659     75.746678    0.00000    0.00000    0.81752    4
    6      0.152D-02      0.105D-03       -76.02634717     75.746622    0.00000    0.00000    0.81686    5
    7      0.240D-03      0.151D-04       -76.02634718     75.746562    0.00000    0.00000    0.81675    6
    8      0.422D-04      0.122D-05       -76.02634718     75.746549    0.00000    0.00000    0.81674    5
    9      0.274D-05      0.161D-06       -76.02634718     75.746555    0.00000    0.00000    0.81674    5
   10      0.366D-06      0.496D-07       -76.02634718     75.746552    0.00000    0.00000    0.81674    5
   11      0.817D-07      0.125D-07       -76.02634718     75.746553    0.00000    0.00000    0.81674    5
   12      0.246D-07      0.228D-08       -76.02634718     75.746553    0.00000    0.00000    0.81674    5
   13      0.557D-08      0.531D-09       -76.02634718     75.746553    0.00000    0.00000    0.81674    6
   14      0.144D-08      0.841D-10       -76.02634718     75.746553    0.00000    0.00000    0.81674    6
   15      0.239D-09      0.116D-10       -76.02634718     75.746553    0.00000    0.00000    0.81674    6
   16      0.274D-10      0.160D-11       -76.02634718     75.746553    0.00000    0.00000    0.81674    0

 Final occupancy:   3   1   1   0

 !RHF STATE 1.1 Energy                -76.026347184301
 Nuclear energy                         9.12570646
 One-electron energy                 -123.02533011
 Two-electron energy                   37.87327646
 Virial quotient                       -1.00085163
 !RHF STATE 1.1 Dipole moment           0.00000000     0.00000000     0.81674245
 Dipole moment /Debye                   0.00000000     0.00000000     2.07581627

 Orbital energies:

         1.1          2.1          3.1          4.1          5.1
    -20.552190    -1.333604    -0.566889     0.184148     0.851076

         1.2          2.2          3.2
     -0.492924     1.200054     1.668721

         1.3          2.3          3.3
     -0.693782     0.255240     0.781243

         1.4          2.4
      1.477055     3.328520


 **********************************************************************************************************************************
 DATASETS  * FILE   NREC   LENGTH (MB)   RECORD NAMES
              1      19        2.69       500      610      700      900      950      970     1000      129      960     1100   
                                          VAR    BASINP    GEOM    SYMINP    ZMAT    AOBASIS   BASIS     P2S    ABASIS      S 
                                         1400     1410     1200     1210     1080     1600     1650     1300     1700   
                                           T        V       H0       H01     AOSYM     SMH    MOLCAS    ERIS     OPER   

              2       3        0.29       700     1000     2100   
                                         GEOM     BASIS     RHF  

 PROGRAMS   *        TOTAL       RHF       INT
 CPU TIMES  *         0.24      0.01      0.17
 REAL TIME  *         1.00 SEC
 DISK USED  *         7.70 MB      
 GA USED    *         0.00 MB       (max)       0.00 MB       (current)
 **********************************************************************************************************************************
 SETTING SCFDZ          =       -76.02634718  AU                              


1PROGRAM * CCSD (Closed-shell coupled cluster)     Authors: C. Hampel, H.-J. Werner, 1991, M. Deegan, P.J. Knowles, 1992


 Convergence thresholds:  THRVAR = 1.00D-08  THRDEN = 1.00D-12

 CCSD(T)     terms to be evaluated (factor= 1.000)


 Number of core orbitals:           1 (   1   0   0   0 )
 Number of closed-shell orbitals:   4 (   2   1   1   0 )
 Number of external orbitals:      19 (   8   3   6   2 )

 Molecular orbitals read from record     2100.2  Type=RHF/CANONICAL (state 1.1)

 Number of N-1 electron functions:               4
 Number of N-2 electron functions:              10
 Number of singly external CSFs:                25
 Number of doubly external CSFs:               805
 Total number of CSFs:                         831

 Length of J-op  integral file:               0.00 MB
 Length of K-op  integral file:               0.04 MB
 Length of 3-ext integral record:             0.00 MB

 Memory could be reduced to 0.30 Mwords without degradation in triples

 Integral transformation finished. Total CPU:   0.01 sec, npass=  1  Memory used:   0.07 MW

 Reference energy:                    -76.02634718

 MP2 singlet pair energy:              -0.12600766
 MP2 triplet pair energy:              -0.07623057
 MP2 correlation energy:               -0.20223823
 MP2 total energy:                    -76.22858542

 SCS-MP2 correlation energy:           -0.19864155   (PS=  1.200000  PT=  0.333333)
 SCS-MP2 total energy:                -76.22498873

 ITER.      SQ.NORM     CORR.ENERGY   TOTAL ENERGY   ENERGY CHANGE        DEN1      VAR(S)    VAR(P)  DIIS     TIME
   1      1.05321968    -0.21077834   -76.23712552    -0.00854010    -0.00492307  0.28D-03  0.69D-03  1  1     0.01
   2      1.05643266    -0.21172266   -76.23806984    -0.00094432    -0.00391939  0.54D-05  0.59D-04  2  2     0.01
   3      1.05723677    -0.21179872   -76.23814590    -0.00007606    -0.00060467  0.20D-05  0.24D-05  3  3     0.01
   4      1.05741934    -0.21180169   -76.23814887    -0.00000297    -0.00009894  0.13D-06  0.14D-06  4  4     0.01
   5      1.05745382    -0.21180021   -76.23814740     0.00000148    -0.00001582  0.35D-07  0.78D-08  5  5     0.01
   6      1.05745871    -0.21180015   -76.23814733     0.00000006     0.00000037  0.44D-08  0.85D-09  6  6     0.01
   7      1.05746149    -0.21180009   -76.23814728     0.00000006    -0.00000027  0.16D-09  0.71D-10  6  1     0.01
   8      1.05746187    -0.21180004   -76.23814723     0.00000005     0.00000007  0.41D-11  0.49D-11  6  2     0.02
   9      1.05746198    -0.21180003   -76.23814722     0.00000001    -0.00000006  0.94D-13  0.30D-12  6  3     0.02
  10      1.05746201    -0.21180003   -76.23814722     0.00000000    -0.00000002  0.20D-14  0.87D-14  6  4     0.02
  11      1.05746201    -0.21180003   -76.23814722     0.00000000    -0.00000000  0.17D-15  0.34D-15  6  6     0.02
  12      1.05746201    -0.21180003   -76.23814722     0.00000000    -0.00000000  0.34D-17  0.13D-16  6  5     0.02
  13      1.05746201    -0.21180003   -76.23814722    -0.00000000    -0.00000000  0.86D-18  0.94D-18  6  1     0.02
  14      1.05746201    -0.21180003   -76.23814722     0.00000000    -0.00000000  0.25D-18  0.79D-19  6  2     0.02
  15      1.05746201    -0.21180003   -76.23814722     0.00000000    -0.00000000  0.59D-19  0.79D-20  6  3     0.02
  16      1.05746201    -0.21180003   -76.23814722     0.00000000    -0.00000000  0.51D-20  0.15D-20  6  4     0.03

 Norm of t1 vector:      0.02404019      S-energy:    -0.00000000      T1 diagnostic:  0.00601005
                                                                       D1 diagnostic:  0.01139702

 Doubles amplitudes (print threshold =  0.500E-01):

         I         J         SYM. A    SYM. B    A         B      T(IJ, AB)

         3         3         2         2         1         1     -0.05143364


 Total CPU time for triples:      0.00 sec


 RESULTS
 =======

  Reference energy                    -76.026347184301
  CCSD singlet pair energy             -0.143816887112
  CCSD triplet pair energy             -0.067983143772
  CCSD correlation energy              -0.211800030884

  Triples (T) contribution             -0.003076899028
  Total correlation energy             -0.214876929912

  CCSD total energy                   -76.238147215186
  CCSD[T] energy                      -76.241311447267
  CCSD-T energy                       -76.241168094997
 !CCSD(T) total energy                -76.241224114214

 Timing summary (sec):

 STEP                 CPU(USER)    SYS     CPU(TOT)    WALL
 Transformation          0.01      0.00      0.01      0.00
 CCSD iterations         0.02      0.01      0.03      0.05

 Program statistics:

 Available memory in ccsd:               999999836
 Min. memory needed in ccsd:                  5661
 Max. memory used in ccsd:                    6126
 Max. memory used in cckext:                 38485 (16 integral passes)



 **********************************************************************************************************************************
 DATASETS  * FILE   NREC   LENGTH (MB)   RECORD NAMES
              1      20        2.76       500      610      700      900      950      970     1000      129      960     1100   
                                          VAR    BASINP    GEOM    SYMINP    ZMAT    AOBASIS   BASIS     P2S    ABASIS      S 
                                         1400     1410     1200     1210     1080     1600     1650     1300     1700     1380   
                                           T        V       H0       H01     AOSYM     SMH    MOLCAS    ERIS     OPER     JKOP   

              2       3        0.29       700     1000     2100   
                                         GEOM     BASIS     RHF  

 PROGRAMS   *        TOTAL   CCSD(T)       RHF       INT
 CPU TIMES  *         0.28      0.03      0.01      0.17
 REAL TIME  *         2.32 SEC
 DISK USED  *         7.70 MB      
 GA USED    *         0.00 MB       (max)       0.00 MB       (current)
 **********************************************************************************************************************************
 SETTING MP2DZ          =       -76.22858542  AU                              
 SETTING CCSDDZ         =       -76.23814722  AU                              
 SETTING CCSDT_DZ       =       -76.24122411  AU                              
 SCFDZ            =     -76.026347184301471 AU
 MP2DZ            =     -76.228585417773772 AU
 CCSDDZ           =     -76.238147215185904 AU
 CCSDT_DZ         =     -76.241224114213779 AU

        CCSD(T)         RHF-SCF 
    -76.24122411    -76.02634718
 **********************************************************************************************************************************
 Variable memory released
