
    -----------------------------------------------------------------------
          Psi4: An Open-Source Ab Initio Electronic Structure Package
                               Psi4 1.4a2.dev629 

                         Git: Rev {master} 2938fc2 dirty


    D. G. A. Smith, L. A. Burns, A. C. Simmonett, R. M. Parrish,
    M. C. Schieber, R. Galvelis, P. Kraus, H. Kruse, R. Di Remigio,
    A. Alenaizan, A. M. James, S. Lehtola, J. P. Misiewicz, M. Scheurer,
    R. A. Shaw, J. B. Schriber, Y. Xie, Z. L. Glick, D. A. Sirianni,
    J. S. O'Brien, J. M. Waldrop, A. Kumar, E. G. Hohenstein,
    B. P. Pritchard, B. R. Brooks, H. F. Schaefer III, A. Yu. Sokolov,
    K. Patkowski, A. E. DePrince III, U. Bozkaya, R. A. King,
    F. A. Evangelista, J. M. Turney, T. D. Crawford, C. D. Sherrill,
    J. Chem. Phys. 152(18) 184108 (2020). https://doi.org/10.1063/5.0006002

                            Additional Code Authors
    E. T. Seidl, C. L. Janssen, E. F. Valeev, M. L. Leininger,
    J. F. Gonthier, R. M. Richard, H. R. McAlexander, M. Saitow, X. Wang,
    P. Verma, and M. H. Lechner

             Previous Authors, Complete List of Code Contributors,
                       and Citations for Specific Modules
    https://github.com/psi4/psi4/blob/master/codemeta.json
    https://github.com/psi4/psi4/graphs/contributors
    http://psicode.org/psi4manual/master/introduction.html#citing-psifour

    -----------------------------------------------------------------------


    Psi4 started on: Tuesday, 15 September 2020 12:55PM

    Process ID: 3161
    Host:       n044
    PSIDATADIR: /opt/psi/4/master/share/psi4
    Memory:     500.0 MiB
    Threads:    1
    
  ==> Input File <==

--------------------------------------------------------------------------
# o-Benzyne preliminary computations

memory 14 gb

molecule {
  0 1
  C         -1.3709375600         -0.0245336400          0.0000040300  
  O          1.3018494000          0.1205538100          0.0000033000  
  H         -2.0719929600          1.9029399000         -0.0009189600  
  H         -2.1034834600         -0.9749087500          1.6768523100  
  H         -2.1034022900         -0.9764209900         -1.6760217300  
  H          1.9411026300         -1.5727687900         -0.0000119400  
  units bohr
}

set {
  basis=cc-pVTZ
  reference rhf
  e_convergence 10 
  d_convergence 10
  r_convergence 8
  maxiter 300
}

energy('ccsd(t)')
--------------------------------------------------------------------------

  Memory set to  13.039 GiB by Python driver.

Scratch directory: /tmp/

*** tstart() called on n044
*** at Tue Sep 15 12:55:59 2020

   => Loading Basis Set <=

    Name: CC-PVTZ
    Role: ORBITAL
    Keyword: BASIS
    atoms 1   entry C          line   186 file /opt/psi/4/master/share/psi4/basis/cc-pvtz.gbs 
    atoms 2   entry O          line   262 file /opt/psi/4/master/share/psi4/basis/cc-pvtz.gbs 
    atoms 3-6 entry H          line    23 file /opt/psi/4/master/share/psi4/basis/cc-pvtz.gbs 


         ---------------------------------------------------------
                                   SCF
               by Justin Turney, Rob Parrish, Andy Simmonett
                          and Daniel G. A. Smith
                              RHF Reference
                        1 Threads,  13351 MiB Core
         ---------------------------------------------------------

  ==> Geometry <==

    Molecular point group: c1
    Full point group: C1

    Geometry (in Bohr), charge = 0, multiplicity = 1:

       Center              X                  Y                   Z               Mass       
    ------------   -----------------  -----------------  -----------------  -----------------
         C           -1.370937558842    -0.024533639047     0.000004028807    12.000000000000
         O            1.301849401158     0.120553810953     0.000003298807    15.994914619570
         H           -2.071992958842     1.902939900953    -0.000918961193     1.007825032230
         H           -2.103483458842    -0.974908749047     1.676852308807     1.007825032230
         H           -2.103402288842    -0.976420989047    -1.676021731193     1.007825032230
         H            1.941102631158    -1.572768789047    -0.000011941193     1.007825032230

  Running in c1 symmetry.

  Rotational constants: A =      4.31052  B =      0.83184  C =      0.80261 [cm^-1]
  Rotational constants: A = 129226.10071  B =  24937.98239  C =  24061.54630 [MHz]
  Nuclear repulsion =   40.424656254204272

  Charge       = 0
  Multiplicity = 1
  Electrons    = 18
  Nalpha       = 9
  Nbeta        = 9

  ==> Algorithm <==

  SCF Algorithm Type is PK.
  DIIS enabled.
  MOM disabled.
  Fractional occupation disabled.
  Guess Type is SAD.
  Energy threshold   = 1.00e-10
  Density threshold  = 1.00e-10
  Integral threshold = 0.00e+00

  ==> Primary Basis <==

  Basis Set: CC-PVTZ
    Blend: CC-PVTZ
    Number of shells: 44
    Number of basis function: 116
    Number of Cartesian functions: 130
    Spherical Harmonics?: true
    Max angular momentum: 3

  ==> Integral Setup <==

  Using in-core PK algorithm.
   Calculation information:
      Number of atoms:                   6
      Number of AO shells:              44
      Number of primitives:             84
      Number of atomic orbitals:       130
      Number of basis functions:       116

      Integral cutoff                 1.00e-12
      Number of threads:                 1

  Performing in-core PK
  Using 46056582 doubles for integral storage.
  We computed 490499 shell quartets total.
  Whereas there are 490545 unique shell quartets.

  ==> DiskJK: Disk-Based J/K Matrices <==

    J tasked:                  Yes
    K tasked:                  Yes
    wK tasked:                  No
    Memory [MiB]:            10013
    Schwarz Cutoff:          1E-12

    OpenMP threads:              1

  Minimum eigenvalue in the overlap matrix is 1.8301920416E-03.
  Reciprocal condition number of the overlap matrix is 2.7593095411E-04.
    Using symmetric orthogonalization.

  ==> Pre-Iterations <==

  SCF Guess: Superposition of Atomic Densities via on-the-fly atomic UHF (no occupation information).

   -------------------------
    Irrep   Nso     Nmo    
   -------------------------
     A        116     116 
   -------------------------
    Total     116     116
   -------------------------

  ==> Iterations <==

                        Total Energy        Delta E     RMS |[F,P]|

   @RHF iter SAD:  -114.42810197790915   -1.14428e+02   0.00000e+00 
   @RHF iter   1:  -115.01461655782137   -5.86515e-01   3.41859e-03 DIIS
   @RHF iter   2:  -115.07169835103061   -5.70818e-02   1.94991e-03 DIIS
   @RHF iter   3:  -115.08845236208928   -1.67540e-02   3.01105e-04 DIIS
   @RHF iter   4:  -115.08933454779029   -8.82186e-04   8.77556e-05 DIIS
   @RHF iter   5:  -115.08940774011171   -7.31923e-05   2.13406e-05 DIIS
   @RHF iter   6:  -115.08941255858711   -4.81848e-06   4.71528e-06 DIIS
   @RHF iter   7:  -115.08941292293989   -3.64353e-07   1.09358e-06 DIIS
   @RHF iter   8:  -115.08941294430861   -2.13687e-08   2.26170e-07 DIIS
   @RHF iter   9:  -115.08941294521318   -9.04578e-10   4.19911e-08 DIIS
   @RHF iter  10:  -115.08941294524233   -2.91465e-11   1.07543e-08 DIIS
   @RHF iter  11:  -115.08941294524479   -2.45848e-12   2.18844e-09 DIIS
   @RHF iter  12:  -115.08941294524453    2.55795e-13   3.90966e-10 DIIS
   @RHF iter  13:  -115.08941294524463   -9.94760e-14   7.20123e-11 DIIS
  Energy and wave function converged.


  ==> Post-Iterations <==

    Orbital Energies [Eh]
    ---------------------

    Doubly Occupied:                                                      

       1A    -20.552184     2A    -11.267948     3A     -1.355806  
       4A     -0.924263     5A     -0.689361     6A     -0.618996  
       7A     -0.591444     8A     -0.502002     9A     -0.449008  

    Virtual:                                                              

      10A      0.138591    11A      0.178903    12A      0.220549  
      13A      0.224202    14A      0.291043    15A      0.386455  
      16A      0.404426    17A      0.546360    18A      0.584667  
      19A      0.624347    20A      0.625611    21A      0.639795  
      22A      0.690805    23A      0.704911    24A      0.722036  
      25A      0.833185    26A      0.865441    27A      0.872361  
      28A      0.927835    29A      1.069894    30A      1.101788  
      31A      1.178089    32A      1.190221    33A      1.263389  
      34A      1.271846    35A      1.284071    36A      1.365717  
      37A      1.447619    38A      1.492591    39A      1.523978  
      40A      1.546423    41A      1.584095    42A      1.622007  
      43A      1.778236    44A      2.093229    45A      2.180699  
      46A      2.200055    47A      2.301670    48A      2.323695  
      49A      2.488931    50A      2.510121    51A      2.576081  
      52A      2.805535    53A      2.952057    54A      3.056980  
      55A      3.110950    56A      3.118487    57A      3.144105  
      58A      3.225088    59A      3.244691    60A      3.314899  
      61A      3.316307    62A      3.344178    63A      3.385605  
      64A      3.502086    65A      3.615601    66A      3.635322  
      67A      3.702573    68A      3.710439    69A      3.747318  
      70A      3.762468    71A      3.817016    72A      3.844057  
      73A      3.906861    74A      4.011872    75A      4.028955  
      76A      4.119546    77A      4.162480    78A      4.173619  
      79A      4.249985    80A      4.257948    81A      4.291057  
      82A      4.403942    83A      4.441278    84A      4.469906  
      85A      4.563074    86A      4.584475    87A      4.715746  
      88A      4.788977    89A      4.999718    90A      5.038555  
      91A      5.059730    92A      5.204827    93A      5.276004  
      94A      5.318116    95A      5.375645    96A      5.442888  
      97A      5.550904    98A      5.553126    99A      5.569782  
     100A      5.793374   101A      5.946415   102A      6.193924  
     103A      6.213479   104A      6.251428   105A      6.436439  
     106A      6.644577   107A      7.000556   108A      7.127294  
     109A      7.185749   110A      7.236585   111A      7.356715  
     112A      7.436711   113A      7.594978   114A      7.916006  
     115A     12.158152   116A     13.765102  

    Final Occupation by Irrep:
              A 
    DOCC [     9 ]

  @RHF Final Energy:  -115.08941294524463

   => Energetics <=

    Nuclear Repulsion Energy =             40.4246562542042724
    One-Electron Energy =                -237.1261101817410406
    Two-Electron Energy =                  81.6120409822921289
    Total Energy =                       -115.0894129452446322

Computation Completed


Properties will be evaluated at   0.000000,   0.000000,   0.000000 [a0]

Properties computed using the SCF density matrix

  Nuclear Dipole Moment: [e a0]
     X:    -2.1486      Y:    -0.8039      Z:    -0.0000

  Electronic Dipole Moment: [e a0]
     X:     1.7666      Y:     0.2163      Z:     0.0000

  Dipole Moment: [e a0]
     X:    -0.3820      Y:    -0.5876      Z:    -0.0000     Total:     0.7009

  Dipole Moment: [D]
     X:    -0.9709      Y:    -1.4936      Z:    -0.0001     Total:     1.7814


*** tstop() called on n044 at Tue Sep 15 12:56:03 2020
Module time:
	user time   =       3.55 seconds =       0.06 minutes
	system time =       0.01 seconds =       0.00 minutes
	total time  =          4 seconds =       0.07 minutes
Total time:
	user time   =       3.55 seconds =       0.06 minutes
	system time =       0.01 seconds =       0.00 minutes
	total time  =          4 seconds =       0.07 minutes
 MINTS: Wrapper to libmints.
   by Justin Turney

   Calculation information:
      Number of threads:                 1
      Number of atoms:                   6
      Number of AO shells:              44
      Number of SO shells:              44
      Number of primitives:             84
      Number of atomic orbitals:       130
      Number of basis functions:       116

      Number of irreps:                  1
      Integral cutoff                 0.00e+00
      Number of functions per irrep: [ 116 ]

 OEINTS: Overlap, kinetic, potential, dipole, and quadrupole integrals
         stored in file 35.

      Computing two-electron integrals...done
      Computed 22872726 non-zero two-electron integrals.
        Stored in file 33.


*** tstart() called on n044
*** at Tue Sep 15 12:56:05 2020


	Wfn Parameters:
	--------------------
	Wavefunction         = CCSD_T
	Number of irreps     = 1
	Number of MOs        = 116
	Number of active MOs = 116
	AO-Basis             = NONE
	Semicanonical        = false
	Reference            = RHF
	Print Level          = 1

	IRREP	# MOs	# FZDC	# DOCC	# SOCC	# VIRT	# FZVR
	-----	-----	------	------	------	------	------
	 A	   116	    0	    9	    0	    107	    0
	Transforming integrals...
	IWL integrals will be deleted.
	(OO|OO)...
	Presorting SO-basis two-electron integrals.
	Sorting File: SO Ints (nn|nn) nbuckets = 1
	Transforming the one-electron integrals and constructing Fock matrices
	Starting first half-transformation.
	Sorting half-transformed integrals.
	First half integral transformation complete.
	Starting second half-transformation.
	Two-electron integral transformation complete.
	(OO|OV)...
	Starting second half-transformation.
	Two-electron integral transformation complete.
	(OO|VV)...
	Starting second half-transformation.
	Two-electron integral transformation complete.
	(OV|OO)...
	Starting first half-transformation.
	Sorting half-transformed integrals.
	First half integral transformation complete.
	Starting second half-transformation.
	Two-electron integral transformation complete.
	(OV|OV)...
	Starting second half-transformation.
	Two-electron integral transformation complete.
	(OV|VV)...
	Starting second half-transformation.
	Two-electron integral transformation complete.
	(VV|OO)...
	Starting first half-transformation.
	Sorting half-transformed integrals.
	First half integral transformation complete.
	Starting second half-transformation.
	Two-electron integral transformation complete.
	(VV|OV)...
	Starting second half-transformation.
	Two-electron integral transformation complete.
	(VV|VV)...
	Starting second half-transformation.
	Two-electron integral transformation complete.
	Frozen core energy     =      0.00000000000000

	Size of irrep 0 of <ab|cd> integrals:    131.080 (MW) /   1048.637 (MB)
	Total:                                   131.080 (MW) /   1048.637 (MB)

	Size of irrep 0 of <ia|bc> integrals:     11.025 (MW) /     88.203 (MB)
	Total:                                    11.025 (MW) /     88.203 (MB)

	Size of irrep 0 of tijab amplitudes:       0.927 (MW) /      7.419 (MB)
	Total:                                     0.927 (MW) /      7.419 (MB)

	Nuclear Rep. energy          =     40.42465625420427
	SCF energy                   =   -115.08941294524463
	One-electron energy          =   -237.12611021361701
	Two-electron energy          =     81.61204101416835
	Reference energy             =   -115.08941294524439

*** tstop() called on n044 at Tue Sep 15 12:56:18 2020
Module time:
	user time   =      10.59 seconds =       0.18 minutes
	system time =       2.80 seconds =       0.05 minutes
	total time  =         13 seconds =       0.22 minutes
Total time:
	user time   =      15.88 seconds =       0.26 minutes
	system time =       3.00 seconds =       0.05 minutes
	total time  =         19 seconds =       0.32 minutes
            **************************
            *                        *
            *        CCENERGY        *
            *                        *
            **************************

    Nuclear Rep. energy (wfn)     =   40.424656254204272
    SCF energy          (wfn)     = -115.089412945244632
    Reference energy    (file100) = -115.089412945244391

    Input parameters:
    -----------------
    Wave function   =     CCSD_T
    Reference wfn   =     RHF
    Brueckner       =     No
    Memory (Mbytes) =     14000.0
    Maxiter         =    300
    R_Convergence   =     1.0e-08
    E_Convergence   =     1.0e-10
    Restart         =     Yes
    DIIS            =     Yes
    AO Basis        =     NONE
    ABCD            =     NEW
    Cache Level     =     2
    Cache Type      =     LOW
    Print Level     =     1
    Num. of threads =     1
    # Amps to Print =     10
    Print MP2 Amps? =     No
    Analyze T2 Amps =     No
    Print Pair Ener =     No
    Local CC        =     No
    SCS-MP2         =     False
    SCSN-MP2        =     False
    SCS-CCSD        =     False

MP2 correlation energy -0.4574281342078104
                Solving CC Amplitude Equations
                ------------------------------
  Iter             Energy              RMS        T1Diag      D1Diag    New D1Diag    D2Diag
  ----     ---------------------    ---------   ----------  ----------  ----------   --------
     0        -0.457428134207810    0.000e+00    0.000000    0.000000    0.000000    0.128069
     1        -0.464956014164970    4.762e-02    0.006483    0.014787    0.014787    0.129187
     2        -0.474908210620291    1.562e-02    0.006591    0.014746    0.014746    0.134893
     3        -0.476379487608121    5.473e-03    0.007386    0.016813    0.016813    0.136317
     4        -0.476276340867889    1.202e-03    0.007438    0.016954    0.016954    0.136542
     5        -0.476316117752526    4.339e-04    0.007470    0.017086    0.017086    0.136638
     6        -0.476324685817458    1.223e-04    0.007479    0.017136    0.017136    0.136645
     7        -0.476322516069123    4.530e-05    0.007481    0.017151    0.017151    0.136643
     8        -0.476322381253699    1.683e-05    0.007483    0.017159    0.017159    0.136643
     9        -0.476322487902781    4.882e-06    0.007483    0.017161    0.017161    0.136642
    10        -0.476322243013549    1.557e-06    0.007483    0.017162    0.017162    0.136642
    11        -0.476322310130298    4.782e-07    0.007483    0.017162    0.017162    0.136642
    12        -0.476322295808137    1.169e-07    0.007483    0.017162    0.017162    0.136642
    13        -0.476322298862832    4.173e-08    0.007483    0.017162    0.017162    0.136642
    14        -0.476322300011924    1.188e-08    0.007483    0.017162    0.017162    0.136642
    15        -0.476322300056175    4.913e-09    0.007483    0.017162    0.017162    0.136642
    16        -0.476322300085327    1.534e-09    0.007483    0.017162    0.017162    0.136642

    Iterations converged.


    Largest TIA Amplitudes:
              5   6        -0.0079972983
              5  14         0.0076339205
              5   9         0.0070425944
              8  14        -0.0063659295
              6   7         0.0059734336
              6   3        -0.0059195814
              7   8         0.0058103976
              5   2         0.0057003368
              8   6         0.0053155685
              6   5        -0.0050950206

    Largest TIjAb Amplitudes:
      5   5   9   9        -0.0230183564
      8   8  14  14        -0.0211953766
      6   6   7   7        -0.0210290901
      7   7  12  12        -0.0205145761
      4   4   7   7        -0.0191028997
      6   6   8   8        -0.0162751124
      5   5  14  14        -0.0151816792
      7   7   7   7        -0.0151105527
      5   5   2   9        -0.0149539690
      5   5   9   2        -0.0149539690

    SCF energy       (wfn)                    = -115.089412945244632
    Reference energy (file100)                = -115.089412945244391

    Opposite-spin MP2 correlation energy      =   -0.353849821466528
    Same-spin MP2 correlation energy          =   -0.103578312741282
    Singles MP2 correlation energy            =   -0.000000000000000
    MP2 correlation energy                    =   -0.457428134207810
      * MP2 total energy                      = -115.546841079452207

    Opposite-spin CCSD correlation energy     =   -0.381807710425238
    Same-spin CCSD correlation energy         =   -0.094514589660089
    Singles CCSD correlation energy           =    0.000000000000000
    CCSD correlation energy                   =   -0.476322300085327
      * CCSD total energy                     = -115.565735245329719

            **************************
            *                        *
            *        CCTRIPLES       *
            *                        *
            **************************


    Wave function   =    CCSD_T
    Reference wfn   =      RHF

    Nuclear Rep. energy (wfn)                =   40.424656254204272
    SCF energy          (wfn)                = -115.089412945244632
    Reference energy    (file100)            = -115.089412945244391
    CCSD energy         (file100)            =   -0.476322300085327
    Total CCSD energy   (file100)            = -115.565735245329719

    Number of ijk index combinations:              165
    Memory available in words        :      1750000000
    ~Words needed per explicit thread:         4900172
    Number of threads for explicit ijk threading:    1

    MKL num_threads set to 1 for explicit threading.

    (T) energy                                =   -0.015046509842752
      * CCSD(T) total energy                  = -115.580781755172467


    Psi4 stopped on: Tuesday, 15 September 2020 12:57PM
    Psi4 wall time for execution: 0:01:20.51

*** Psi4 exiting successfully. Buy a developer a beer!
