
 Primary working directories    : /tmp/333988.38.gen6.q
 Secondary working directories  : /tmp/333988.38.gen6.q
 Wavefunction directory         : /home/vulcan/mel64643/wfu/
 Main file repository           : /tmp/333988.38.gen6.q/

 ARCHNAME  : Linux/x86_64
 FC        : /opt/intel/compilers_and_libraries_2016.1.150/linux/bin/intel64/ifort
 FCVERSION : 16.0.1
 BLASLIB   : -mkl
 id        : ccgc

 Nodes     nprocs
 n082         3
 Number of processes for MPI-2 version of Molpro:   nprocs(total)=    4   nprocs(compute)=    3   nprocs(helper)=    1
 ga_uses_ma=false, calling ma_init with nominal heap.
 GA-space will be limited to   8.0 MW (determined by -G option)

 Using customized tuning parameters: mindgm=10; mindgv=16; mindgc=4; mindgr=1; noblas=0; mincuda=1000; minvec=7
 default implementation of scratch files=sf  

 ***,Optimization of min3
 memory,1000,m
 gthresh,energy=1.0d-10,orbital=1.0d-10,oneint=1.0d-16,twoint=1.0d-16,optgrad=1.0d-6,compress=1.0d-13
 geomtyp=xyz
 
  bohr
  geometry = {
  12
  arbitrary comment
  C         -3.0970537657          1.5829559009          0.0195460128
  C         -0.8661671751         -0.0683788938         -0.6558215912
  C         -1.1171137615         -2.7799724492          0.2455265570
  O          1.3112471588          1.1046880465          0.5887409445
  O          3.4496026880          0.1200539348         -0.2517908132
  H         -4.8126802342          0.8630993466         -0.8700323853
  H         -2.8225283282          3.5241916963         -0.6155280226
  H         -3.4066751893          1.6062733448          2.0594820525
  H         -0.4541454490         -0.0112725181         -2.6754731364
  H         -2.7003335494         -3.6937091295         -0.7115887693
  H         -1.4763920916         -2.8266016453          2.2775999004
  H          0.6052878685         -3.8326783609         -0.1595210927
 }
 
 basis=cc-pvtz
 {rhf;maxit,200}
 {uccsd(t);maxit,200}

 Variables initialized (661), CPU time= 0.00 sec
 Commands  initialized (458), CPU time= 0.01 sec, 486 directives.
 Default parameters read. Elapsed time= 0.06 sec

 Checking input...
 Passed
1


                                         ***  PROGRAM SYSTEM MOLPRO  ***
                         Copyright, University College Cardiff Consultants Limited, 2008

                                    Version 2010.1 linked May 16 2016 07:17:05


 **********************************************************************************************************************************
 LABEL *   Optimization of min3                                                          
 Linux-4.4.3/n082(x86_64) 64 bit mpp version                                             DATE: 15-Jul-20          TIME: 14:30:22  
 **********************************************************************************************************************************

 SHA1:             9e8077add272b0f3cad6f7df79ec5211205f459d
 **********************************************************************************************************************************

 THRESHOLDS:

 ZERO    =  1.00D-12  ONEINT  =  1.00D-16  TWOINT  =  1.00D-16  PREFAC  =  1.00D-14  LOCALI  =  1.00D-09  EORDER  =  1.00D-04
 ENERGY  =  1.00D-10  ETEST   =  0.00D+00  EDENS   =  0.00D+00  THRDEDEF=  1.00D-06  GRADIENT=  1.00D-02  STEP    =  1.00D-03
 ORBITAL =  1.00D-10  CIVEC   =  1.00D-05  COEFF   =  1.00D-04  PRINTCI =  5.00D-02  PUNCHCI =  9.90D+01  OPTGRAD =  1.00D-06
 OPTENERG=  1.00D-06  OPTSTEP =  3.00D-04  THRGRAD =  1.00D-10  COMPRESS=  1.00D-13  VARMIN  =  1.00D-07  VARMAX  =  1.00D-03
 THRDOUB =  0.00D+00  THRDIV  =  1.00D-05  THRRED  =  1.00D-07  THRPSP  =  1.00D+00  THRDC   =  1.00D-10  THRCS   =  1.00D-10
 THRNRM  =  1.00D-08  THREQ   =  0.00D+00  THRDE   =  1.00D+00  THRREF  =  1.00D-05  SPARFAC =  1.00D+00  THRDLP  =  1.00D-07
 THRDIA  =  1.00D-10  THRDLS  =  1.00D-07  THRGPS  =  0.00D+00  THRKEX  =  0.00D+00  THRDIS  =  2.00D-01  THRVAR  =  1.00D-10
 THRLOC  =  1.00D-06  THRGAP  =  1.00D-06  THRLOCT = -1.00D+00  THRGAPT = -1.00D+00  THRORB  =  1.00D-06  THRMLTP =  0.00D+00
 THRCPQCI=  1.00D-10  KEXTA   =  0.00D+00  THRCOARS=  0.00D+00  SYMTOL  =  1.00D-06  GRADTOL =  1.00D-06  THROVL  =  1.00D-08
 THRORTH =  1.00D-08  GRID    =  1.00D-06  GRIDMAX =  1.00D-03  DTMAX   =  0.00D+00

 SETTING GEOMTYP        =    XYZ
 ZUNIT=BOHR
 

 Variable memory set to 1000000000 words,  buffer space   230000 words

 SETTING BASIS          =    CC-PVTZ


 Recomputing integrals since basis changed


 Using spherical harmonics

 Library entry C      S cc-pVTZ              selected for orbital group  1
 Library entry C      P cc-pVTZ              selected for orbital group  1
 Library entry C      D cc-pVTZ              selected for orbital group  1
 Library entry C      F cc-pVTZ              selected for orbital group  1
 Library entry O      S cc-pVTZ              selected for orbital group  2
 Library entry O      P cc-pVTZ              selected for orbital group  2
 Library entry O      D cc-pVTZ              selected for orbital group  2
 Library entry O      F cc-pVTZ              selected for orbital group  2
 Library entry H      S cc-pVTZ              selected for orbital group  3
 Library entry H      P cc-pVTZ              selected for orbital group  3
 Library entry H      D cc-pVTZ              selected for orbital group  3

1PROGRAM * SEWARD (Integral evaluation for generally contracted gaussian basis sets)     Author: Roland Lindh, 1990

 Geometry written to block  1 of record 700


 Point group  C1  



 ATOMIC COORDINATES

 NR  ATOM    CHARGE       X              Y              Z

   1  C       6.00   -3.097053766    1.582955901    0.019546013
   2  C       6.00   -0.866167175   -0.068378894   -0.655821591
   3  C       6.00   -1.117113761   -2.779972449    0.245526557
   4  O       8.00    1.311247159    1.104688046    0.588740945
   5  O       8.00    3.449602688    0.120053935   -0.251790813
   6  H       1.00   -4.812680234    0.863099347   -0.870032385
   7  H       1.00   -2.822528328    3.524191696   -0.615528023
   8  H       1.00   -3.406675189    1.606273345    2.059482052
   9  H       1.00   -0.454145449   -0.011272518   -2.675473136
  10  H       1.00   -2.700333549   -3.693709130   -0.711588769
  11  H       1.00   -1.476392092   -2.826601645    2.277599900
  12  H       1.00    0.605287869   -3.832678361   -0.159521093

 Bond lengths in Bohr (Angstrom)

 1-2  2.856550890  1-6  2.062260256  1-7  2.060844405  1-8  2.063431166  2-3  2.868473860
     ( 1.511621627)     ( 1.091301127)     ( 1.090551890)     ( 1.091920745)     ( 1.517930991)

  2- 4  2.768782247   2- 9  2.062041562   3-10  2.063387837   3-11  2.064116584   3-12  2.058863937
       ( 1.465176462)       ( 1.091185399)       ( 1.091897817)       ( 1.092283453)       ( 1.089503872)

 4-5  2.499712451
     ( 1.322790858)

 Bond angles

  1-2-3  113.81947039   1-2-4  105.24656906   1-2-9  111.81468184   2-1-6  110.23852150

  2- 1- 7  111.57039675   2- 1- 8  110.94394217   2- 3-10  109.87593513   2- 3-11  110.23857675

  2- 3-12  110.38545701   2- 4- 5  110.77518900   3- 2- 4  109.15106690   3- 2- 9  110.57455974

  4-2-9  105.74691482   6-1-7  107.86007320   6-1-8  107.79205977   7-1-8  108.30028203

 10- 3-11  108.24600041  10- 3-12  108.91838745  11- 3-12  109.13184647

 NUCLEAR CHARGE:                   41
 NUMBER OF PRIMITIVE AOS:         354
 NUMBER OF SYMMETRY AOS:          322
 NUMBER OF CONTRACTIONS:          248   ( 248A   )
 NUMBER OF CORE ORBITALS:           5   (   5A   )
 NUMBER OF VALENCE ORBITALS:       27   (  27A   )


 NUCLEAR REPULSION ENERGY  186.64240248


 Eigenvalues of metric

         1 0.809E-03 0.952E-03 0.110E-02 0.124E-02 0.136E-02 0.149E-02 0.159E-02 0.164E-02


 Contracted 2-electron integrals neglected if value below      1.0D-16
 AO integral compression algorithm  1   Integral accuracy      1.0D-16

     3370.123 MB (compressed) written to integral file ( 82.0%)

     Node minimum: 886.833 MB, node maximum: 1528.824 MB


 NUMBER OF SORTED TWO-ELECTRON INTEGRALS:  158903334.     BUFFER LENGTH:  32768
 NUMBER OF SEGMENTS:  10  SEGMENT LENGTH:   15997437      RECORD LENGTH: 524288

 Memory used in sort:      16.55 MW

 SORT1 READ   513509002. AND WROTE   152579592. INTEGRALS IN    442 RECORDS. CPU TIME:     9.09 SEC, REAL TIME:    10.44 SEC
 SORT2 READ   459247033. AND WROTE   476679126. INTEGRALS IN  10149 RECORDS. CPU TIME:     1.29 SEC, REAL TIME:     2.20 SEC

 Node minimum:   158882750.  Node maximum:   158903334. integrals

 OPERATOR DM      FOR CENTER  0  COORDINATES:    0.000000    0.000000    0.000000


 **********************************************************************************************************************************
 DATASETS  * FILE   NREC   LENGTH (MB)   RECORD NAMES
              1      18        5.04       500      610      700      900      950      970     1000      129      960     1100   
                                          VAR    BASINP    GEOM    SYMINP    ZMAT    AOBASIS   BASIS     P2S    ABASIS      S 
                                         1400     1410     1200     1210     1080     1600     1650     1700   
                                           T        V       H0       H01     AOSYM     SMH    MOLCAS    OPER   

 PROGRAMS   *        TOTAL       INT
 CPU TIMES  *        18.19     18.11
 REAL TIME  *        21.15 SEC
 DISK USED  *         9.17 GB      
 GA USED    *         0.01 MB       (max)       0.00 MB       (current)
 **********************************************************************************************************************************

1PROGRAM * RHF-SCF (OPEN SHELL)       Authors: W. Meyer, H.-J. Werner


 NUMBER OF ELECTRONS:      21+   20-    SPACE SYMMETRY=1    SPIN SYMMETRY: Doublet 
 CONVERGENCE THRESHOLDS:    1.00E-10 (Density)    1.00E-11 (Energy)
 MAX. NUMBER OF ITERATIONS:      200
 INTERPOLATION TYPE:            DIIS
 INTERPOLATION STEPS:              2 (START)      1 (STEP)
 LEVEL SHIFTS:                 -0.30 (CLOSED)  0.00 (OPEN) 



 Orbital guess generated from atomic densities. Full valence occupancy:   32

 Molecular orbital dump at record        2100.2

 ITERATION    DDIFF          GRAD             ENERGY        2-EL.EN.            DIPOLE MOMENTS         DIIS
    1      0.000D+00      0.000D+00      -267.26095498    559.841533   -1.78663   -0.06239   -0.09503    0
    2      0.000D+00      0.326D-02      -267.33454933    562.673225   -1.02164   -0.42719   -0.35747    1
    3      0.471D-02      0.230D-02      -267.36108042    561.626677   -1.19487   -0.23929   -0.21542    2
    4      0.211D-02      0.547D-03      -267.36932466    561.814512   -0.98253   -0.31291   -0.29662    3
    5      0.927D-03      0.485D-03      -267.37355681    561.856030   -0.92632   -0.31553   -0.30104    4
    6      0.584D-03      0.272D-03      -267.37548996    561.823154   -0.88457   -0.30912   -0.29905    5
    7      0.486D-03      0.134D-03      -267.37582977    561.808849   -0.89435   -0.29760   -0.29098    6
    8      0.259D-03      0.357D-04      -267.37585181    561.806040   -0.89403   -0.29427   -0.28944    7
    9      0.851D-04      0.190D-04      -267.37586285    561.806285   -0.89652   -0.29482   -0.28951    8
   10      0.451D-04      0.827D-05      -267.37586469    561.806190   -0.89768   -0.29420   -0.28922    9
   11      0.201D-04      0.326D-05      -267.37586495    561.806121   -0.89832   -0.29403   -0.28905    9
   12      0.793D-05      0.150D-05      -267.37586501    561.806345   -0.89847   -0.29413   -0.28909    9
   13      0.375D-05      0.532D-06      -267.37586502    561.806400   -0.89848   -0.29419   -0.28912    9
   14      0.150D-05      0.302D-06      -267.37586502    561.806398   -0.89847   -0.29420   -0.28912    9
   15      0.824D-06      0.148D-06      -267.37586502    561.806404   -0.89846   -0.29421   -0.28913    9
   16      0.421D-06      0.740D-07      -267.37586502    561.806407   -0.89846   -0.29421   -0.28913    9
   17      0.171D-06      0.328D-07      -267.37586502    561.806401   -0.89845   -0.29421   -0.28913    9
   18      0.101D-06      0.180D-07      -267.37586502    561.806398   -0.89846   -0.29421   -0.28913    9
   19      0.571D-07      0.925D-08      -267.37586502    561.806400   -0.89846   -0.29421   -0.28913    9
   20      0.323D-07      0.538D-08      -267.37586502    561.806399   -0.89846   -0.29421   -0.28913    9
   21      0.262D-07      0.455D-08      -267.37586502    561.806399   -0.89846   -0.29421   -0.28913    9
   22      0.284D-07      0.388D-08      -267.37586502    561.806399   -0.89846   -0.29421   -0.28913    9
   23      0.391D-07      0.299D-08      -267.37586502    561.806398   -0.89846   -0.29421   -0.28913    9
   24      0.501D-07      0.206D-08      -267.37586502    561.806398   -0.89846   -0.29421   -0.28913    9
   25      0.449D-07      0.922D-09      -267.37586502    561.806398   -0.89846   -0.29421   -0.28913    9
   26      0.147D-07      0.452D-09      -267.37586502    561.806398   -0.89846   -0.29421   -0.28913    9
   27      0.643D-08      0.199D-09      -267.37586502    561.806398   -0.89846   -0.29421   -0.28913    9
   28      0.122D-08      0.880D-10      -267.37586502    561.806398   -0.89846   -0.29421   -0.28913    9
   29      0.264D-09      0.437D-10      -267.37586502    561.806398   -0.89846   -0.29421   -0.28913    9
   30      0.201D-09      0.217D-10      -267.37586502    561.806398   -0.89846   -0.29421   -0.28913    9
   31      0.523D-10      0.163D-10      -267.37586502    561.806398   -0.89846   -0.29421   -0.28913    0

 Final alpha occupancy:  21
 Final beta  occupancy:  20

 !RHF STATE 1.1 Energy               -267.375865021542
 Nuclear energy                       186.64240248
 One-electron energy                 -734.92146647
 Two-electron energy                  280.90319898
 Virial quotient                       -1.00115269
 !RHF STATE 1.1 Dipole moment          -0.89845707    -0.29420818    -0.28912679
 Dipole moment /Debye                  -2.28350051    -0.74775363    -0.73483888

 Orbital energies:

         1.1          2.1          3.1          4.1          5.1          6.1          7.1          8.1          9.1         10.1
    -20.648800   -20.640327   -11.297665   -11.228867   -11.225434    -1.523443    -1.171164    -1.034699    -0.953140    -0.819948

        11.1         12.1         13.1         14.1         15.1         16.1         17.1         18.1         19.1         20.1
     -0.695108    -0.668761    -0.652409    -0.595508    -0.562173    -0.557152    -0.543756    -0.503480    -0.489052    -0.465164

        21.1         22.1         23.1
     -0.562966     0.137627     0.174871


 **********************************************************************************************************************************
 DATASETS  * FILE   NREC   LENGTH (MB)   RECORD NAMES
              1      18        5.04       500      610      700      900      950      970     1000      129      960     1100   
                                          VAR    BASINP    GEOM    SYMINP    ZMAT    AOBASIS   BASIS     P2S    ABASIS      S 
                                         1400     1410     1200     1210     1080     1600     1650     1700   
                                           T        V       H0       H01     AOSYM     SMH    MOLCAS    OPER   

              2       3        2.21       700     1000     2100   
                                         GEOM     BASIS     RHF  

 PROGRAMS   *        TOTAL       RHF       INT
 CPU TIMES  *        67.08     48.89     18.11
 REAL TIME  *        73.61 SEC
 DISK USED  *         9.21 GB      
 SF USED    *         0.25 MB      
 GA USED    *         0.01 MB       (max)       0.00 MB       (current)
 **********************************************************************************************************************************


1PROGRAM * CCSD (Unrestricted open-shell coupled cluster)     Authors: C. Hampel, H.-J. Werner, 1991, M. Deegan, P.J. Knowles, 1992


 Convergence thresholds:  THRVAR = 1.00D-08  THRDEN = 1.00D-10

 CCSD(T)     terms to be evaluated (factor= 1.000)


 Number of core orbitals:           5 (   5 )
 Number of closed-shell orbitals:  15 (  15 )
 Number of active  orbitals:        1 (   1 )
 Number of external orbitals:     227 ( 227 )

 Memory could be reduced to 332.02 Mwords without degradation in triples

 Number of N-1 electron functions:              31
 Number of N-2 electron functions:             465
 Number of singly external CSFs:              7068
 Number of doubly external CSFs:          18353430
 Total number of CSFs:                    18360498

 Molecular orbitals read from record     2100.2  Type=RHF/CANONICAL (state 1.1)

 Integral transformation finished. Total CPU:  24.42 sec, npass=  1  Memory used: 145.25 MW

 Starting RMP2 calculation

 ITER.      SQ.NORM     CORR.ENERGY   TOTAL ENERGY   ENERGY CHANGE        DEN1      VAR(S)    VAR(P)  DIIS     TIME
   1      1.26533153    -0.96760681  -268.34347183    -0.96760681    -0.00323641  0.26D-04  0.11D-02  1  1    28.97
   2      1.26811640    -0.97109643  -268.34696145    -0.00348962    -0.00000667  0.10D-05  0.23D-05  2  2    32.01
   3      1.26819643    -0.97114938  -268.34701440    -0.00005295    -0.00000008  0.54D-07  0.11D-07  3  3    35.16
   4      1.26819814    -0.97114919  -268.34701421     0.00000019    -0.00000000  0.16D-08  0.12D-09  4  4    38.48
   5      1.26819840    -0.97114928  -268.34701430    -0.00000009    -0.00000000  0.19D-10  0.46D-11  5  5    41.95
   6      1.26819846    -0.97114931  -268.34701433    -0.00000003    -0.00000000  0.50D-13  0.56D-13  6  6    45.44
   7      1.26819846    -0.97114931  -268.34701433     0.00000000    -0.00000000  0.15D-14  0.86D-15  6  1    48.99
   8      1.26819846    -0.97114931  -268.34701433     0.00000000    -0.00000000  0.16D-16  0.80D-17  6  2    52.37
   9      1.26819846    -0.97114931  -268.34701433    -0.00000000    -0.00000000  0.32D-18  0.10D-18  6  3    55.89

 Norm of t1 vector:      0.04589816      S-energy:    -0.00446799      T1 diagnostic:  0.00074453
 Norm of t2 vector:      0.51584088      P-energy:    -0.96668132
                                         Alpha-Beta:  -0.73706862
                                         Alpha-Alpha: -0.11899536
                                         Beta-Beta:   -0.11061733

 Spin contamination <S**2-Sz**2-Sz>     0.00145519
  Reference energy                   -267.375865021545
  RHF-RMP2 correlation energy          -0.971149308011
 !RHF-RMP2 energy                    -268.347014329556

 Starting UCCSD calculation

 ITER.      SQ.NORM     CORR.ENERGY   TOTAL ENERGY   ENERGY CHANGE        DEN1      VAR(S)    VAR(P)  DIIS     TIME
   1      1.27980190    -0.97926450  -268.35512953    -0.97926450    -0.02933212  0.65D-02  0.54D-02  1  1   132.49
   2      1.30620665    -1.00588610  -268.38175112    -0.02662159    -0.00363683  0.62D-03  0.97D-03  2  2   209.03
   3      1.32287025    -1.01271136  -268.38857638    -0.00682527    -0.00091351  0.75D-03  0.76D-04  3  3   285.86
   4      1.33412750    -1.01537255  -268.39123757    -0.00266119    -0.00038617  0.31D-03  0.33D-04  4  4   362.86
   5      1.34924866    -1.01737446  -268.39323948    -0.00200191    -0.00011833  0.10D-03  0.90D-05  5  5   439.89
   6      1.36082306    -1.01840026  -268.39426528    -0.00102580    -0.00001821  0.93D-05  0.32D-05  6  6   517.01
   7      1.36453223    -1.01864187  -268.39450689    -0.00024161    -0.00000318  0.16D-05  0.61D-06  6  1   594.26
   8      1.36514060    -1.01868427  -268.39454929    -0.00004240    -0.00000068  0.27D-06  0.15D-06  6  2   671.47
   9      1.36546375    -1.01870288  -268.39456790    -0.00001861    -0.00000015  0.67D-07  0.32D-07  6  4   748.70
  10      1.36545014    -1.01870159  -268.39456662     0.00000129    -0.00000002  0.11D-07  0.43D-08  6  3   825.93
  11      1.36551326    -1.01870673  -268.39457176    -0.00000514    -0.00000000  0.23D-08  0.94D-09  6  5   903.15
  12      1.36550564    -1.01870423  -268.39456925     0.00000251    -0.00000000  0.93D-09  0.21D-09  6  6   980.44
  13      1.36550123    -1.01870307  -268.39456810     0.00000115    -0.00000000  0.52D-09  0.52D-10  6  1  1057.62
  14      1.36548854    -1.01870160  -268.39456662     0.00000147    -0.00000000  0.33D-09  0.18D-10  6  2  1134.83
  15      1.36548295    -1.01870093  -268.39456595     0.00000067    -0.00000000  0.27D-09  0.13D-10  6  3  1212.11
  16      1.36548024    -1.01870078  -268.39456580     0.00000015    -0.00000000  0.20D-09  0.10D-10  6  4  1289.32
  17      1.36547947    -1.01870077  -268.39456579     0.00000001    -0.00000000  0.11D-09  0.10D-10  6  5  1366.54
  18      1.36548152    -1.01870090  -268.39456592    -0.00000013    -0.00000000  0.27D-10  0.48D-11  6  6  1443.78
  19      1.36548445    -1.01870120  -268.39456622    -0.00000030    -0.00000000  0.27D-11  0.16D-11  6  2  1520.92
  20      1.36548387    -1.01870107  -268.39456609     0.00000013    -0.00000000  0.66D-12  0.18D-12  6  1  1598.10
  21      1.36548419    -1.01870111  -268.39456613    -0.00000005    -0.00000000  0.23D-12  0.60D-13  6  4  1675.19
  22      1.36548405    -1.01870109  -268.39456611     0.00000002    -0.00000000  0.77D-13  0.21D-13  6  2  1752.41
  23      1.36548410    -1.01870110  -268.39456612    -0.00000001    -0.00000000  0.23D-13  0.52D-14  6  5  1829.55
  24      1.36548401    -1.01870109  -268.39456611     0.00000001    -0.00000000  0.25D-14  0.99D-15  6  3  1906.66
  25      1.36548400    -1.01870109  -268.39456611     0.00000000    -0.00000000  0.90D-15  0.18D-15  6  6  1983.96
  26      1.36548401    -1.01870109  -268.39456611    -0.00000000    -0.00000000  0.54D-15  0.71D-16  6  1  2061.18
  27      1.36548402    -1.01870109  -268.39456611    -0.00000000    -0.00000000  0.32D-15  0.21D-16  6  5  2138.16
  28      1.36548402    -1.01870109  -268.39456611    -0.00000000    -0.00000000  0.18D-15  0.11D-16  6  4  2215.26
  29      1.36548402    -1.01870109  -268.39456611    -0.00000000    -0.00000000  0.68D-16  0.97D-17  6  2  2292.40
  30      1.36548402    -1.01870109  -268.39456611     0.00000000    -0.00000000  0.27D-16  0.50D-17  6  3  2369.66
  31      1.36548402    -1.01870109  -268.39456611     0.00000000    -0.00000000  0.87D-17  0.14D-17  6  6  2446.85
  32      1.36548402    -1.01870109  -268.39456611     0.00000000    -0.00000000  0.40D-17  0.66D-18  6  1  2524.08

 Norm of t1 vector:      0.23149051      S-energy:    -0.00501610      T1 diagnostic:  0.02852680
                                                                       D1 diagnostic:  0.14620555
 Norm of t2 vector:      0.55847665      P-energy:    -1.01368500
                                         Alpha-Beta:  -0.80135978
                                         Alpha-Alpha: -0.10869048
                                         Beta-Beta:   -0.10363473

 Singles amplitudes (print threshold =  0.500E-01):

         I         SYM. A    A   T(IA) [Beta-Beta]

         8         1         1     -0.09663948
         9         1         1      0.09818884
        11         1         1     -0.05765690
        12         1         1     -0.07389046
        14         1         1     -0.11151761

 Spin contamination <S**2-Sz**2-Sz>     0.00176459

 Memory could be reduced to 360.52 Mwords without degradation in triples
 

 RESULTS
 =======

  Reference energy                   -267.375865021545
  UCCSD singles energy                 -0.005016096164
  UCCSD pair energy                    -1.013684995579
  UCCSD correlation energy             -1.018701091743
  Triples (T) contribution             -0.040829461287
  Total correlation energy             -1.059530553030
 
  RHF-UCCSD energy                   -268.394566113288
  RHF-UCCSD[T] energy                -268.438723392768
  RHF-UCCSD-T energy                 -268.434898760991
 !RHF-UCCSD(T) energy                -268.435395574576

 Program statistics:

 Available memory in ccsd:               999997692
 Min. memory needed in ccsd:              51505734
 Max. memory used in ccsd:                74803578
 Max. memory used in cckext:              59475747 (32 integral passes)
 Max. memory used in cckint:             145249478 ( 1 integral passes)



 **********************************************************************************************************************************
 DATASETS  * FILE   NREC   LENGTH (MB)   RECORD NAMES
              1      18        5.04       500      610      700      900      950      970     1000      129      960     1100   
                                          VAR    BASINP    GEOM    SYMINP    ZMAT    AOBASIS   BASIS     P2S    ABASIS      S 
                                         1400     1410     1200     1210     1080     1600     1650     1700   
                                           T        V       H0       H01     AOSYM     SMH    MOLCAS    OPER   

              2       3        2.21       700     1000     2100   
                                         GEOM     BASIS     RHF  

 PROGRAMS   *        TOTAL  UCCSD(T)       RHF       INT
 CPU TIMES  *      3999.87   3932.79     48.89     18.11
 REAL TIME  *      4089.33 SEC
 DISK USED  *        16.19 GB      
 SF USED    *         6.57 GB      
 GA USED    *         0.01 MB       (max)       0.00 MB       (current)
 **********************************************************************************************************************************

        UCCSD(T)        RHF-SCF 
   -268.43539557   -267.37586502
 **********************************************************************************************************************************
 Variable memory released
