
    -----------------------------------------------------------------------
          Psi4: An Open-Source Ab Initio Electronic Structure Package
                               Psi4 1.4a2.dev629 

                         Git: Rev {master} 2938fc2 dirty


    D. G. A. Smith, L. A. Burns, A. C. Simmonett, R. M. Parrish,
    M. C. Schieber, R. Galvelis, P. Kraus, H. Kruse, R. Di Remigio,
    A. Alenaizan, A. M. James, S. Lehtola, J. P. Misiewicz, M. Scheurer,
    R. A. Shaw, J. B. Schriber, Y. Xie, Z. L. Glick, D. A. Sirianni,
    J. S. O'Brien, J. M. Waldrop, A. Kumar, E. G. Hohenstein,
    B. P. Pritchard, B. R. Brooks, H. F. Schaefer III, A. Yu. Sokolov,
    K. Patkowski, A. E. DePrince III, U. Bozkaya, R. A. King,
    F. A. Evangelista, J. M. Turney, T. D. Crawford, C. D. Sherrill,
    J. Chem. Phys. 152(18) 184108 (2020). https://doi.org/10.1063/5.0006002

                            Additional Code Authors
    E. T. Seidl, C. L. Janssen, E. F. Valeev, M. L. Leininger,
    J. F. Gonthier, R. M. Richard, H. R. McAlexander, M. Saitow, X. Wang,
    P. Verma, and M. H. Lechner

             Previous Authors, Complete List of Code Contributors,
                       and Citations for Specific Modules
    https://github.com/psi4/psi4/blob/master/codemeta.json
    https://github.com/psi4/psi4/graphs/contributors
    http://psicode.org/psi4manual/master/introduction.html#citing-psifour

    -----------------------------------------------------------------------


    Psi4 started on: Monday, 24 October 2022 02:59PM

    Process ID: 161523
    Host:       n070
    PSIDATADIR: /opt/psi/4/master/share/psi4
    Memory:     500.0 MiB
    Threads:    4
    
  ==> Input File <==

--------------------------------------------------------------------------
# o-Benzyne preliminary computations

memory 14 gb

molecule {
  0 1
  units bohr
 H   -0.0000000000   -1.4246254000    0.9959240800
 O    0.0000000000    0.0000000000   -0.1255045400
 H   -0.0000000000    1.4246254000    0.9959240800
}

set {
  basis cc-pvtz
  reference rhf
  e_convergence 10 
  d_convergence 10
  r_convergence 8
  maxiter 300
  freeze_core True
}

e, wfn = energy('ccsd(t)', return_wfn = True)
psi4.print_out('Giraffe The Energy is %.12f \n'%(e))
--------------------------------------------------------------------------

  Memory set to  13.039 GiB by Python driver.

Scratch directory: /tmp/795504.1.gen5.q/

*** tstart() called on n070
*** at Mon Oct 24 14:59:12 2022

   => Loading Basis Set <=

    Name: CC-PVTZ
    Role: ORBITAL
    Keyword: BASIS
    atoms 1, 3 entry H          line    23 file /opt/psi/4/master/share/psi4/basis/cc-pvtz.gbs 
    atoms 2    entry O          line   262 file /opt/psi/4/master/share/psi4/basis/cc-pvtz.gbs 


         ---------------------------------------------------------
                                   SCF
               by Justin Turney, Rob Parrish, Andy Simmonett
                          and Daniel G. A. Smith
                              RHF Reference
                        4 Threads,  13351 MiB Core
         ---------------------------------------------------------

  ==> Geometry <==

    Molecular point group: c2v
    Full point group: C2v

    Geometry (in Bohr), charge = 0, multiplicity = 1:

       Center              X                  Y                   Z               Mass       
    ------------   -----------------  -----------------  -----------------  -----------------
         H            0.000000000000    -1.424625400000     0.995924078091     1.007825032230
         O            0.000000000000     0.000000000000    -0.125504541909    15.994914619570
         H           -0.000000000000     1.424625400000     0.995924078091     1.007825032230

  Running in c2v symmetry.

  Rotational constants: A =     26.74122  B =     14.71559  C =      9.49212 [cm^-1]
  Rotational constants: A = 801681.62459  B = 441162.33894  C = 284566.48700 [MHz]
  Nuclear repulsion =    9.175865170715298

  Charge       = 0
  Multiplicity = 1
  Electrons    = 10
  Nalpha       = 5
  Nbeta        = 5

  ==> Algorithm <==

  SCF Algorithm Type is PK.
  DIIS enabled.
  MOM disabled.
  Fractional occupation disabled.
  Guess Type is SAD.
  Energy threshold   = 1.00e-10
  Density threshold  = 1.00e-10
  Integral threshold = 0.00e+00

  ==> Primary Basis <==

  Basis Set: CC-PVTZ
    Blend: CC-PVTZ
    Number of shells: 22
    Number of basis function: 58
    Number of Cartesian functions: 65
    Spherical Harmonics?: true
    Max angular momentum: 3

  ==> Integral Setup <==

  Using in-core PK algorithm.
   Calculation information:
      Number of atoms:                   3
      Number of AO shells:              22
      Number of primitives:             42
      Number of atomic orbitals:        65
      Number of basis functions:        58

      Integral cutoff                 1.00e-12
      Number of threads:                 4

  Performing in-core PK
  Using 2929232 doubles for integral storage.
  We computed 43467 shell quartets total.
  Whereas there are 32131 unique shell quartets.
    35.28 percent of shell quartets recomputed by reordering.

  ==> DiskJK: Disk-Based J/K Matrices <==

    J tasked:                  Yes
    K tasked:                  Yes
    wK tasked:                  No
    Memory [MiB]:            10013
    Schwarz Cutoff:          1E-12

    OpenMP threads:              4

  Minimum eigenvalue in the overlap matrix is 2.2512814586E-03.
  Reciprocal condition number of the overlap matrix is 5.1641568133E-04.
    Using symmetric orthogonalization.

  ==> Pre-Iterations <==

  SCF Guess: Superposition of Atomic Densities via on-the-fly atomic UHF (no occupation information).

   -------------------------
    Irrep   Nso     Nmo    
   -------------------------
     A1        23      23 
     A2         7       7 
     B1        11      11 
     B2        17      17 
   -------------------------
    Total      58      58
   -------------------------

  ==> Iterations <==

                        Total Energy        Delta E     RMS |[F,P]|

   @RHF iter SAD:   -75.49984560216008   -7.54998e+01   0.00000e+00 
   @RHF iter   1:   -75.97838441582422   -4.78539e-01   1.43650e-02 DIIS
   @RHF iter   2:   -76.03096649682797   -5.25821e-02   9.29043e-03 DIIS
   @RHF iter   3:   -76.05653006434191   -2.55636e-02   6.93793e-04 DIIS
   @RHF iter   4:   -76.05691983418866   -3.89770e-04   1.69847e-04 DIIS
   @RHF iter   5:   -76.05694457289381   -2.47387e-05   3.51917e-05 DIIS
   @RHF iter   6:   -76.05694613288351   -1.55999e-06   6.79625e-06 DIIS
   @RHF iter   7:   -76.05694619215595   -5.92724e-08   1.07780e-06 DIIS
   @RHF iter   8:   -76.05694619337250   -1.21655e-09   1.64313e-07 DIIS
   @RHF iter   9:   -76.05694619340150   -2.90044e-11   4.59078e-08 DIIS
   @RHF iter  10:   -76.05694619340386   -2.35900e-12   6.00155e-09 DIIS
   @RHF iter  11:   -76.05694619340397   -1.13687e-13   8.43089e-10 DIIS
   @RHF iter  12:   -76.05694619340396    1.42109e-14   1.36270e-10 DIIS
   @RHF iter  13:   -76.05694619340400   -4.26326e-14   1.63432e-11 DIIS
  Energy and wave function converged.


  ==> Post-Iterations <==

    Orbital Energies [Eh]
    ---------------------

    Doubly Occupied:                                                      

       1A1   -20.555585     2A1    -1.345240     1B2    -0.706805  
       3A1    -0.579155     1B1    -0.504608  

    Virtual:                                                              

       4A1     0.141864     2B2     0.204046     3B2     0.541748  
       5A1     0.604355     6A1     0.667973     2B1     0.787211  
       7A1     0.795792     4B2     0.805753     1A2     0.862648  
       3B1     0.951096     8A1     1.134430     5B2     1.198540  
       6B2     1.522759     9A1     1.564981     4B1     2.040301  
       7B2     2.054866     2A2     2.063150    10A1     2.172450  
      11A1     2.233608    12A1     2.584358     8B2     2.964767  
       5B1     3.346986    13A1     3.485413     3A2     3.588113  
       9B2     3.659077     6B1     3.797563    10B2     3.876436  
      14A1     3.886771     4A2     3.963406     7B1     4.016813  
      11B2     4.072642    15A1     4.191150     5A2     4.305823  
      16A1     4.374839    12B2     4.594262     8B1     4.682100  
      13B2     4.861668    17A1     5.157033    18A1     5.250132  
      14B2     5.523814     9B1     6.051625    19A1     6.574639  
      10B1     6.913903     6A2     6.937808    11B1     7.004305  
      20A1     7.017380    15B2     7.036960    21A1     7.176102  
       7A2     7.235069    22A1     7.449053    16B2     7.793111  
      17B2     8.286764    23A1    12.836801  

    Final Occupation by Irrep:
             A1    A2    B1    B2 
    DOCC [     3,    0,    1,    1 ]

  @RHF Final Energy:   -76.05694619340400

   => Energetics <=

    Nuclear Repulsion Energy =              9.1758651707152978
    One-Electron Energy =                -123.0828375213169750
    Two-Electron Energy =                  37.8500261571976750
    Total Energy =                        -76.0569461934040021

Computation Completed


Properties will be evaluated at   0.000000,   0.000000,   0.000000 [a0]

Properties computed using the SCF density matrix

  Nuclear Dipole Moment: [e a0]
     X:     0.0000      Y:     0.0000      Z:     0.9878

  Electronic Dipole Moment: [e a0]
     X:     0.0000      Y:     0.0000      Z:    -0.1846

  Dipole Moment: [e a0]
     X:     0.0000      Y:     0.0000      Z:     0.8032     Total:     0.8032

  Dipole Moment: [D]
     X:     0.0000      Y:     0.0000      Z:     2.0416     Total:     2.0416


*** tstop() called on n070 at Mon Oct 24 14:59:13 2022
Module time:
	user time   =       3.55 seconds =       0.06 minutes
	system time =       0.05 seconds =       0.00 minutes
	total time  =          1 seconds =       0.02 minutes
Total time:
	user time   =       3.55 seconds =       0.06 minutes
	system time =       0.05 seconds =       0.00 minutes
	total time  =          1 seconds =       0.02 minutes
 MINTS: Wrapper to libmints.
   by Justin Turney

   Calculation information:
      Number of threads:                 4
      Number of atoms:                   3
      Number of AO shells:              22
      Number of SO shells:              16
      Number of primitives:             42
      Number of atomic orbitals:        65
      Number of basis functions:        58

      Number of irreps:                  4
      Integral cutoff                 0.00e+00
      Number of functions per irrep: [  23    7   11   17 ]

 OEINTS: Overlap, kinetic, potential, dipole, and quadrupole integrals
         stored in file 35.

      Computing two-electron integrals...done
      Computed 360572 non-zero two-electron integrals.
        Stored in file 33.


*** tstart() called on n070
*** at Mon Oct 24 14:59:13 2022


	Wfn Parameters:
	--------------------
	Wavefunction         = CCSD_T
	Number of irreps     = 4
	Number of MOs        = 58
	Number of active MOs = 57
	AO-Basis             = NONE
	Semicanonical        = false
	Reference            = RHF
	Print Level          = 1

	IRREP	# MOs	# FZDC	# DOCC	# SOCC	# VIRT	# FZVR
	-----	-----	------	------	------	------	------
	 A1	   23	    1	    2	    0	    20	    0
	 A2	   7	    0	    0	    0	    7	    0
	 B1	   11	    0	    1	    0	    10	    0
	 B2	   17	    0	    1	    0	    16	    0
	Transforming integrals...
	IWL integrals will be deleted.
	(OO|OO)...
	Presorting SO-basis two-electron integrals.
	Sorting File: SO Ints (nn|nn) nbuckets = 1
	Transforming the one-electron integrals and constructing Fock matrices
	Starting first half-transformation.
	Sorting half-transformed integrals.
	First half integral transformation complete.
	Starting second half-transformation.
	Two-electron integral transformation complete.
	(OO|OV)...
	Starting second half-transformation.
	Two-electron integral transformation complete.
	(OO|VV)...
	Starting second half-transformation.
	Two-electron integral transformation complete.
	(OV|OO)...
	Starting first half-transformation.
	Sorting half-transformed integrals.
	First half integral transformation complete.
	Starting second half-transformation.
	Two-electron integral transformation complete.
	(OV|OV)...
	Starting second half-transformation.
	Two-electron integral transformation complete.
	(OV|VV)...
	Starting second half-transformation.
	Two-electron integral transformation complete.
	(VV|OO)...
	Starting first half-transformation.
	Sorting half-transformed integrals.
	First half integral transformation complete.
	Starting second half-transformation.
	Two-electron integral transformation complete.
	(VV|OV)...
	Starting second half-transformation.
	Two-electron integral transformation complete.
	(VV|VV)...
	Starting second half-transformation.
	Two-electron integral transformation complete.
	Frozen core energy     =    -61.31166475271053

	Size of irrep 0 of <ab|cd> integrals:      0.648 (MW) /      5.184 (MB)
	Size of irrep 1 of <ab|cd> integrals:      0.360 (MW) /      2.880 (MB)
	Size of irrep 2 of <ab|cd> integrals:      0.389 (MW) /      3.115 (MB)
	Size of irrep 3 of <ab|cd> integrals:      0.608 (MW) /      4.867 (MB)
	Total:                                     2.006 (MW) /     16.046 (MB)

	Size of irrep 0 of <ia|bc> integrals:      0.053 (MW) /      0.425 (MB)
	Size of irrep 1 of <ia|bc> integrals:      0.024 (MW) /      0.192 (MB)
	Size of irrep 2 of <ia|bc> integrals:      0.029 (MW) /      0.235 (MB)
	Size of irrep 3 of <ia|bc> integrals:      0.046 (MW) /      0.368 (MB)
	Total:                                     0.152 (MW) /      1.220 (MB)

	Size of irrep 0 of tijab amplitudes:       0.005 (MW) /      0.039 (MB)
	Size of irrep 1 of tijab amplitudes:       0.001 (MW) /      0.010 (MB)
	Size of irrep 2 of tijab amplitudes:       0.002 (MW) /      0.020 (MB)
	Size of irrep 3 of tijab amplitudes:       0.003 (MW) /      0.025 (MB)
	Total:                                     0.012 (MW) /      0.093 (MB)

	Nuclear Rep. energy          =      9.17586517071530
	SCF energy                   =    -76.05694619340400
	One-electron energy          =    -41.57067770841164
	Two-electron energy          =     17.64953109700307
	Reference energy             =    -76.05694619340380

*** tstop() called on n070 at Mon Oct 24 14:59:14 2022
Module time:
	user time   =       0.42 seconds =       0.01 minutes
	system time =       0.10 seconds =       0.00 minutes
	total time  =          1 seconds =       0.02 minutes
Total time:
	user time   =       4.36 seconds =       0.07 minutes
	system time =       0.16 seconds =       0.00 minutes
	total time  =          2 seconds =       0.03 minutes
            **************************
            *                        *
            *        CCENERGY        *
            *                        *
            **************************

    Nuclear Rep. energy (wfn)     =    9.175865170715298
    SCF energy          (wfn)     =  -76.056946193404002
    Reference energy    (file100) =  -76.056946193403803

    Input parameters:
    -----------------
    Wave function   =     CCSD_T
    Reference wfn   =     RHF
    Brueckner       =     No
    Memory (Mbytes) =     14000.0
    Maxiter         =    300
    R_Convergence   =     1.0e-08
    E_Convergence   =     1.0e-10
    Restart         =     Yes
    DIIS            =     Yes
    AO Basis        =     NONE
    ABCD            =     NEW
    Cache Level     =     2
    Cache Type      =     LOW
    Print Level     =     1
    Num. of threads =     4
    # Amps to Print =     10
    Print MP2 Amps? =     No
    Analyze T2 Amps =     No
    Print Pair Ener =     No
    Local CC        =     No
    SCS-MP2         =     False
    SCSN-MP2        =     False
    SCS-CCSD        =     False

MP2 correlation energy -0.2617111539921139
                Solving CC Amplitude Equations
                ------------------------------
  Iter             Energy              RMS        T1Diag      D1Diag    New D1Diag    D2Diag
  ----     ---------------------    ---------   ----------  ----------  ----------   --------
     0        -0.261711153992114    0.000e+00    0.000000    0.000000    0.000000    0.116210
     1        -0.262027959170023    2.912e-02    0.005707    0.009297    0.009297    0.119871
     2        -0.266874495062261    1.004e-02    0.005905    0.009456    0.009456    0.124553
     3        -0.267584649606283    3.225e-03    0.006493    0.010594    0.010594    0.126205
     4        -0.267576929915734    6.557e-04    0.006531    0.010686    0.010686    0.126413
     5        -0.267598849025209    2.070e-04    0.006551    0.010776    0.010776    0.126461
     6        -0.267599392081675    6.175e-05    0.006557    0.010812    0.010812    0.126457
     7        -0.267599477275411    1.982e-05    0.006560    0.010828    0.010828    0.126456
     8        -0.267599166329532    5.098e-06    0.006561    0.010833    0.010833    0.126455
     9        -0.267599077305756    1.048e-06    0.006561    0.010833    0.010833    0.126455
    10        -0.267599090227977    2.347e-07    0.006561    0.010833    0.010833    0.126455
    11        -0.267599088923969    4.559e-08    0.006561    0.010834    0.010834    0.126455
    12        -0.267599090549703    1.010e-08    0.006561    0.010834    0.010834    0.126455
    13        -0.267599090587878    2.426e-09    0.006561    0.010834    0.010834    0.126455
    14        -0.267599090597044    6.036e-10    0.006561    0.010834    0.010834    0.126455

    Iterations converged.


    Largest TIA Amplitudes:
              2  27        -0.0075232754
              1   0         0.0058497681
              3  41        -0.0058208327
              2  28        -0.0049346779
              1   3        -0.0045601107
              1   5        -0.0041865631
              0   2        -0.0040247505
              1   2         0.0038579510
              3  46        -0.0038475697
              1  11        -0.0037850582

    Largest TIjAb Amplitudes:
      2   2  27  27        -0.0476609522
      1   1   2   2        -0.0295849536
      3   3  38  38        -0.0270795588
      1   2   2  27         0.0259253229
      2   1  27   2         0.0259253229
      3   3   1   1        -0.0253314480
      3   3  39  39        -0.0226715320
      2   3  27  39         0.0222651857
      3   2  39  27         0.0222651857
      1   1  38  38        -0.0221567795

    SCF energy       (wfn)                    =  -76.056946193404002
    Reference energy (file100)                =  -76.056946193403803

    Opposite-spin MP2 correlation energy      =   -0.198148415814943
    Same-spin MP2 correlation energy          =   -0.063562738177171
    Singles MP2 correlation energy            =   -0.000000000000000
    MP2 correlation energy                    =   -0.261711153992114
      * MP2 total energy                      =  -76.318657347395913

    Opposite-spin CCSD correlation energy     =   -0.210925239256676
    Same-spin CCSD correlation energy         =   -0.056673851340368
    Singles CCSD correlation energy           =    0.000000000000000
    CCSD correlation energy                   =   -0.267599090597044
      * CCSD total energy                     =  -76.324545284000848

            **************************
            *                        *
            *        CCTRIPLES       *
            *                        *
            **************************


    Wave function   =    CCSD_T
    Reference wfn   =      RHF

    Nuclear Rep. energy (wfn)                =    9.175865170715298
    SCF energy          (wfn)                =  -76.056946193404002
    Reference energy    (file100)            =  -76.056946193403803
    CCSD energy         (file100)            =   -0.267599090597044
    Total CCSD energy   (file100)            =  -76.324545284000848

    Number of ijk index combinations:               20
    Memory available in words        :      1750000000
    ~Words needed per explicit thread:           32000
    Number of threads for explicit ijk threading:    4

    MKL num_threads set to 1 for explicit threading.

    (T) energy                                =   -0.007671234894980
      * CCSD(T) total energy                  =  -76.332216518895819

Giraffe The Energy is -76.332216518896 

    Psi4 stopped on: Monday, 24 October 2022 02:59PM
    Psi4 wall time for execution: 0:00:06.11

*** Psi4 exiting successfully. Buy a developer a beer!
