
 Primary working directories    : /tmp/786251.2.gen4.q
 Secondary working directories  : /tmp/786251.2.gen4.q
 Wavefunction directory         : /home/vulcan/nlk36701/wfu/
 Main file repository           : /tmp/786251.2.gen4.q/

 ARCHNAME  : Linux/x86_64
 FC        : /opt/intel/compilers_and_libraries_2016.1.150/linux/bin/intel64/ifort
 FCVERSION : 16.0.1
 BLASLIB   : -mkl
 id        : ccgc

 Nodes     nprocs
 n067         1
 ga_uses_ma=false, calling ma_init with nominal heap.
 GA-space will be limited to   8.0 MW (determined by -G option)

 Using customized tuning parameters: mindgm=10; mindgv=16; mindgc=4; mindgr=1; noblas=0; mincuda=1000; minvec=7
 default implementation of scratch files=df  

 ***,Optimization of min3
 memory,1000,m
 gthresh,energy=1.0d-12,orbital=1.0d-10,oneint=1.0d-16,twoint=1.0d-16,optgrad=1.0d-6,compress=1.0d-13
 geomtyp=xyz
 
  bohr
  geometry = {
  3
  arbitrary comment
  H    0.0000000000   -1.4236158228    0.9933245015
  O    0.0000000000    0.0000000000   -0.1203053830
  H    0.0000000000    1.4236158228    0.9933245015
 }
 
 basis=cc-pvdz
 {rhf;maxit,200}
 scfDZ=energy
 {ccsd(t);maxit,200}
 mp2DZ = emp2
 ccsdDZ=energc
 ccsdt_DZ=energy
 
 show[1,f20.15],scfDZ
 show[1,f20.15],mp2DZ
 show[1,f20.15],ccsdDZ
 show[1,f20.15],ccsdt_DZ

 Variables initialized (661), CPU time= 0.00 sec
 Commands  initialized (458), CPU time= 0.00 sec, 486 directives.
 Default parameters read. Elapsed time= 0.04 sec

 Checking input...
 Passed
1


                                         ***  PROGRAM SYSTEM MOLPRO  ***
                         Copyright, University College Cardiff Consultants Limited, 2008

                                    Version 2010.1 linked May 16 2016 07:17:05


 **********************************************************************************************************************************
 LABEL *   Optimization of min3                                                          
 Linux-4.4.3/n067(x86_64) 64 bit mpp version                                             DATE: 03-Aug-22          TIME: 12:15:21  
 **********************************************************************************************************************************

 SHA1:             9e8077add272b0f3cad6f7df79ec5211205f459d
 **********************************************************************************************************************************

 THRESHOLDS:

 ZERO    =  1.00D-12  ONEINT  =  1.00D-16  TWOINT  =  1.00D-16  PREFAC  =  1.00D-14  LOCALI  =  1.00D-09  EORDER  =  1.00D-04
 ENERGY  =  1.00D-12  ETEST   =  0.00D+00  EDENS   =  0.00D+00  THRDEDEF=  1.00D-06  GRADIENT=  1.00D-02  STEP    =  1.00D-03
 ORBITAL =  1.00D-10  CIVEC   =  1.00D-05  COEFF   =  1.00D-04  PRINTCI =  5.00D-02  PUNCHCI =  9.90D+01  OPTGRAD =  1.00D-06
 OPTENERG=  1.00D-06  OPTSTEP =  3.00D-04  THRGRAD =  1.00D-10  COMPRESS=  1.00D-13  VARMIN  =  1.00D-07  VARMAX  =  1.00D-03
 THRDOUB =  0.00D+00  THRDIV  =  1.00D-05  THRRED  =  1.00D-07  THRPSP  =  1.00D+00  THRDC   =  1.00D-10  THRCS   =  1.00D-10
 THRNRM  =  1.00D-08  THREQ   =  0.00D+00  THRDE   =  1.00D+00  THRREF  =  1.00D-05  SPARFAC =  1.00D+00  THRDLP  =  1.00D-07
 THRDIA  =  1.00D-10  THRDLS  =  1.00D-07  THRGPS  =  0.00D+00  THRKEX  =  0.00D+00  THRDIS  =  2.00D-01  THRVAR  =  1.00D-10
 THRLOC  =  1.00D-06  THRGAP  =  1.00D-06  THRLOCT = -1.00D+00  THRGAPT = -1.00D+00  THRORB  =  1.00D-06  THRMLTP =  0.00D+00
 THRCPQCI=  1.00D-10  KEXTA   =  0.00D+00  THRCOARS=  0.00D+00  SYMTOL  =  1.00D-06  GRADTOL =  1.00D-06  THROVL  =  1.00D-08
 THRORTH =  1.00D-08  GRID    =  1.00D-06  GRIDMAX =  1.00D-03  DTMAX   =  0.00D+00

 SETTING GEOMTYP        =    XYZ
 ZUNIT=BOHR
 

 Variable memory set to 1000000000 words,  buffer space   230000 words

 SETTING BASIS          =    CC-PVDZ


 Recomputing integrals since basis changed


 Using spherical harmonics

 Library entry H      S cc-pVDZ              selected for orbital group  1
 Library entry H      P cc-pVDZ              selected for orbital group  1
 Library entry O      S cc-pVDZ              selected for orbital group  2
 Library entry O      P cc-pVDZ              selected for orbital group  2
 Library entry O      D cc-pVDZ              selected for orbital group  2

1PROGRAM * SEWARD (Integral evaluation for generally contracted gaussian basis sets)     Author: Roland Lindh, 1990

 Geometry written to block  1 of record 700


 Point group  C2v 



 ATOMIC COORDINATES

 NR  ATOM    CHARGE       X              Y              Z

   1  H       1.00    0.000000000   -1.423615823    0.993324501
   2  H       1.00    0.000000000    1.423615823    0.993324501
   3  O       8.00    0.000000000    0.000000000   -0.120305383

 Bond lengths in Bohr (Angstrom)

 1-3  1.807443922  2-3  1.807443922
     ( 0.956458130)     ( 0.956458130)

 Bond angles

  1-3-2  103.93109034

 NUCLEAR CHARGE:                   10
 NUMBER OF PRIMITIVE AOS:          41
 NUMBER OF SYMMETRY AOS:           40
 NUMBER OF CONTRACTIONS:           24   (  11A1  +   4B1  +   7B2  +   2A2  )
 NUMBER OF CORE ORBITALS:           1   (   1A1  +   0B1  +   0B2  +   0A2  )
 NUMBER OF VALENCE ORBITALS:        6   (   3A1  +   1B1  +   2B2  +   0A2  )


 NUCLEAR REPULSION ENERGY    9.20349853


 Eigenvalues of metric

         1 0.175E-01 0.505E-01 0.159E+00 0.222E+00 0.511E+00 0.986E+00 0.101E+01 0.128E+01
         2 0.183E+00 0.520E+00 0.110E+01 0.225E+01
         3 0.444E-01 0.984E-01 0.170E+00 0.664E+00 0.103E+01 0.116E+01 0.254E+01
         4 0.618E+00 0.133E+01


 Contracted 2-electron integrals neglected if value below      1.0D-16
 AO integral compression algorithm  1   Integral accuracy      1.0D-16

     0.262 MB (compressed) written to integral file (100.0%)

     Node minimum: 0.262 MB, node maximum: 0.262 MB


 NUMBER OF SORTED TWO-ELECTRON INTEGRALS:      13826.     BUFFER LENGTH:  32768
 NUMBER OF SEGMENTS:   1  SEGMENT LENGTH:      13826      RECORD LENGTH: 524288

 Memory used in sort:       0.57 MW

 SORT1 READ       19080. AND WROTE       12665. INTEGRALS IN      1 RECORDS. CPU TIME:     0.00 SEC, REAL TIME:     0.00 SEC
 SORT2 READ       12665. AND WROTE       13826. INTEGRALS IN      1 RECORDS. CPU TIME:     0.00 SEC, REAL TIME:     0.01 SEC

 FILE SIZES:   FILE 1:     2.7 MBYTE,  FILE 4:     4.2 MBYTE,   TOTAL:      6.9 MBYTE

 OPERATOR DM      FOR CENTER  0  COORDINATES:    0.000000    0.000000    0.000000


 **********************************************************************************************************************************
 DATASETS  * FILE   NREC   LENGTH (MB)   RECORD NAMES
              1      19        2.69       500      610      700      900      950      970     1000      129      960     1100   
                                          VAR    BASINP    GEOM    SYMINP    ZMAT    AOBASIS   BASIS     P2S    ABASIS      S 
                                         1400     1410     1200     1210     1080     1600     1650     1300     1700   
                                           T        V       H0       H01     AOSYM     SMH    MOLCAS    ERIS     OPER   

 PROGRAMS   *        TOTAL       INT
 CPU TIMES  *         0.11      0.07
 REAL TIME  *         0.29 SEC
 DISK USED  *         7.70 MB      
 GA USED    *         0.00 MB       (max)       0.00 MB       (current)
 **********************************************************************************************************************************

1PROGRAM * RHF-SCF (CLOSED SHELL)       Authors: W. Meyer, H.-J. Werner


 NUMBER OF ELECTRONS:       5+    5-
 CONVERGENCE THRESHOLDS:    1.00E-10 (Density)    1.00E-13 (Energy)
 MAX. NUMBER OF ITERATIONS:      200
 INTERPOLATION TYPE:            DIIS
 INTERPOLATION STEPS:              2 (START)      1 (STEP)
 LEVEL SHIFTS:                  0.00 (CLOSED)  0.00 (OPEN) 



 Orbital guess generated from atomic densities. Full valence occupancy:    4   1   2   0

 Molecular orbital dump at record        2100.2

 Initial alpha occupancy:   3   1   1   0
 Initial beta  occupancy:   3   1   1   0
 Wave function symmetry:    1

 ITERATION    DDIFF          GRAD             ENERGY        2-EL.EN.            DIPOLE MOMENTS         DIIS
    1      0.000D+00      0.000D+00       -75.98859370     77.880363    0.00000    0.00000    1.14657    0
    2      0.000D+00      0.414D-01       -76.01821550     74.638463    0.00000    0.00000    0.75449    1
    3      0.778D-01      0.216D-01       -76.02659888     75.953133    0.00000    0.00000    0.82852    2
    4      0.253D-01      0.245D-02       -76.02681341     75.856433    0.00000    0.00000    0.81652    3
    5      0.478D-02      0.649D-03       -76.02683055     75.868335    0.00000    0.00000    0.81295    4
    6      0.148D-02      0.102D-03       -76.02683110     75.868306    0.00000    0.00000    0.81233    5
    7      0.232D-03      0.148D-04       -76.02683111     75.868245    0.00000    0.00000    0.81221    6
    8      0.414D-04      0.122D-05       -76.02683111     75.868232    0.00000    0.00000    0.81220    5
    9      0.275D-05      0.162D-06       -76.02683111     75.868238    0.00000    0.00000    0.81220    5
   10      0.370D-06      0.506D-07       -76.02683111     75.868236    0.00000    0.00000    0.81220    5
   11      0.838D-07      0.140D-07       -76.02683111     75.868236    0.00000    0.00000    0.81220    5
   12      0.282D-07      0.257D-08       -76.02683111     75.868236    0.00000    0.00000    0.81220    5
   13      0.651D-08      0.566D-09       -76.02683111     75.868236    0.00000    0.00000    0.81220    6
   14      0.154D-08      0.789D-10       -76.02683111     75.868236    0.00000    0.00000    0.81220    6
   15      0.217D-09      0.110D-10       -76.02683111     75.868236    0.00000    0.00000    0.81220    6
   16      0.259D-10      0.139D-11       -76.02683111     75.868236    0.00000    0.00000    0.81220    0

 Final occupancy:   3   1   1   0

 !RHF STATE 1.1 Energy                -76.026831111232
 Nuclear energy                         9.20349853
 One-electron energy                 -123.16444778
 Two-electron energy                   37.93411814
 Virial quotient                       -1.00044961
 !RHF STATE 1.1 Dipole moment           0.00000000     0.00000000     0.81220450
 Dipole moment /Debye                   0.00000000     0.00000000     2.06428272

 Orbital energies:

         1.1          2.1          3.1          4.1          5.1
    -20.550606    -1.337561    -0.567916     0.185582     0.857731

         1.2          2.2          3.2
     -0.493415     1.200240     1.671559

         1.3          2.3          3.3
     -0.698608     0.256440     0.787891

         1.4          2.4
      1.478397     3.337478


 **********************************************************************************************************************************
 DATASETS  * FILE   NREC   LENGTH (MB)   RECORD NAMES
              1      19        2.69       500      610      700      900      950      970     1000      129      960     1100   
                                          VAR    BASINP    GEOM    SYMINP    ZMAT    AOBASIS   BASIS     P2S    ABASIS      S 
                                         1400     1410     1200     1210     1080     1600     1650     1300     1700   
                                           T        V       H0       H01     AOSYM     SMH    MOLCAS    ERIS     OPER   

              2       3        0.29       700     1000     2100   
                                         GEOM     BASIS     RHF  

 PROGRAMS   *        TOTAL       RHF       INT
 CPU TIMES  *         0.12      0.01      0.07
 REAL TIME  *         0.32 SEC
 DISK USED  *         7.70 MB      
 GA USED    *         0.00 MB       (max)       0.00 MB       (current)
 **********************************************************************************************************************************
 SETTING SCFDZ          =       -76.02683111  AU                              


1PROGRAM * CCSD (Closed-shell coupled cluster)     Authors: C. Hampel, H.-J. Werner, 1991, M. Deegan, P.J. Knowles, 1992


 Convergence thresholds:  THRVAR = 1.00D-08  THRDEN = 1.00D-12

 CCSD(T)     terms to be evaluated (factor= 1.000)


 Number of core orbitals:           1 (   1   0   0   0 )
 Number of closed-shell orbitals:   4 (   2   1   1   0 )
 Number of external orbitals:      19 (   8   3   6   2 )

 Molecular orbitals read from record     2100.2  Type=RHF/CANONICAL (state 1.1)

 Number of N-1 electron functions:               4
 Number of N-2 electron functions:              10
 Number of singly external CSFs:                25
 Number of doubly external CSFs:               805
 Total number of CSFs:                         831

 Length of J-op  integral file:               0.00 MB
 Length of K-op  integral file:               0.04 MB
 Length of 3-ext integral record:             0.00 MB

 Memory could be reduced to 0.30 Mwords without degradation in triples

 Integral transformation finished. Total CPU:   0.00 sec, npass=  1  Memory used:   0.07 MW

 Reference energy:                    -76.02683111

 MP2 singlet pair energy:              -0.12555191
 MP2 triplet pair energy:              -0.07607618
 MP2 correlation energy:               -0.20162810
 MP2 total energy:                    -76.22845921

 SCS-MP2 correlation energy:           -0.19799859   (PS=  1.200000  PT=  0.333333)
 SCS-MP2 total energy:                -76.22482970

 ITER.      SQ.NORM     CORR.ENERGY   TOTAL ENERGY   ENERGY CHANGE        DEN1      VAR(S)    VAR(P)  DIIS     TIME
   1      1.05274917    -0.21019318   -76.23702429    -0.00856509    -0.00501203  0.27D-03  0.67D-03  1  1     0.00
   2      1.05587031    -0.21111384   -76.23794495    -0.00092065    -0.00385672  0.51D-05  0.56D-04  2  2     0.00
   3      1.05663328    -0.21118663   -76.23801774    -0.00007279    -0.00058196  0.19D-05  0.22D-05  3  3     0.00
   4      1.05680402    -0.21118920   -76.23802031    -0.00000257    -0.00009409  0.12D-06  0.12D-06  4  4     0.00
   5      1.05683551    -0.21118779   -76.23801890     0.00000141    -0.00001484  0.31D-07  0.70D-08  5  5     0.00
   6      1.05683977    -0.21118773   -76.23801885     0.00000005     0.00000039  0.40D-08  0.75D-09  6  6     0.01
   7      1.05684230    -0.21118768   -76.23801879     0.00000005    -0.00000025  0.15D-09  0.63D-10  6  1     0.01
   8      1.05684265    -0.21118763   -76.23801875     0.00000005     0.00000005  0.35D-11  0.43D-11  6  2     0.01
   9      1.05684275    -0.21118762   -76.23801874     0.00000001    -0.00000005  0.82D-13  0.26D-12  6  3     0.01
  10      1.05684278    -0.21118762   -76.23801873     0.00000000    -0.00000002  0.16D-14  0.72D-14  6  4     0.01
  11      1.05684278    -0.21118762   -76.23801873     0.00000000    -0.00000000  0.13D-15  0.34D-15  6  5     0.01
  12      1.05684278    -0.21118762   -76.23801873     0.00000000    -0.00000000  0.63D-17  0.22D-16  6  6     0.01
  13      1.05684278    -0.21118762   -76.23801873    -0.00000000    -0.00000000  0.20D-17  0.11D-17  6  1     0.01
  14      1.05684278    -0.21118762   -76.23801873     0.00000000    -0.00000000  0.49D-18  0.13D-18  6  2     0.01
  15      1.05684278    -0.21118762   -76.23801873     0.00000000    -0.00000000  0.85D-19  0.13D-19  6  3     0.01
  16      1.05684278    -0.21118762   -76.23801873     0.00000000    -0.00000000  0.49D-20  0.18D-20  6  4     0.01
  17      1.05684278    -0.21118762   -76.23801873     0.00000000     0.00000000  0.26D-21  0.18D-21  6  5     0.01

 Norm of t1 vector:      0.02350183      S-energy:    -0.00000000      T1 diagnostic:  0.00587546
                                                                       D1 diagnostic:  0.01106499

 Doubles amplitudes (print threshold =  0.500E-01):

         I         J         SYM. A    SYM. B    A         B      T(IJ, AB)

         3         3         2         2         1         1     -0.05139494


 Total CPU time for triples:      0.00 sec


 RESULTS
 =======

  Reference energy                    -76.026831111232
  CCSD singlet pair energy             -0.143213502417
  CCSD triplet pair energy             -0.067974120602
  CCSD correlation energy              -0.211187623020

  Triples (T) contribution             -0.003036015240
  Total correlation energy             -0.214223638260

  CCSD total energy                   -76.238018734252
  CCSD[T] energy                      -76.241139703093
  CCSD-T energy                       -76.241000077409
 !CCSD(T) total energy                -76.241054749492

 Timing summary (sec):

 STEP                 CPU(USER)    SYS     CPU(TOT)    WALL
 CCSD iterations         0.01      0.01      0.02      0.05

 Program statistics:

 Available memory in ccsd:               999999836
 Min. memory needed in ccsd:                  5661
 Max. memory used in ccsd:                    6126
 Max. memory used in cckext:                 38485 (17 integral passes)



 **********************************************************************************************************************************
 DATASETS  * FILE   NREC   LENGTH (MB)   RECORD NAMES
              1      20        2.76       500      610      700      900      950      970     1000      129      960     1100   
                                          VAR    BASINP    GEOM    SYMINP    ZMAT    AOBASIS   BASIS     P2S    ABASIS      S 
                                         1400     1410     1200     1210     1080     1600     1650     1300     1700     1380   
                                           T        V       H0       H01     AOSYM     SMH    MOLCAS    ERIS     OPER     JKOP   

              2       3        0.29       700     1000     2100   
                                         GEOM     BASIS     RHF  

 PROGRAMS   *        TOTAL   CCSD(T)       RHF       INT
 CPU TIMES  *         0.14      0.02      0.01      0.07
 REAL TIME  *         0.39 SEC
 DISK USED  *         7.70 MB      
 GA USED    *         0.00 MB       (max)       0.00 MB       (current)
 **********************************************************************************************************************************
 SETTING MP2DZ          =       -76.22845921  AU                              
 SETTING CCSDDZ         =       -76.23801873  AU                              
 SETTING CCSDT_DZ       =       -76.24105475  AU                              
 SCFDZ            =     -76.026831111232269 AU
 MP2DZ            =     -76.228459206949097 AU
 CCSDDZ           =     -76.238018734252094 AU
 CCSDT_DZ         =     -76.241054749492420 AU

        CCSD(T)         RHF-SCF 
    -76.24105475    -76.02683111
 **********************************************************************************************************************************
 Variable memory released
