
 Primary working directories    : /tmp/333988.55.gen6.q
 Secondary working directories  : /tmp/333988.55.gen6.q
 Wavefunction directory         : /home/vulcan/mel64643/wfu/
 Main file repository           : /tmp/333988.55.gen6.q/

 ARCHNAME  : Linux/x86_64
 FC        : /opt/intel/compilers_and_libraries_2016.1.150/linux/bin/intel64/ifort
 FCVERSION : 16.0.1
 BLASLIB   : -mkl
 id        : ccgc

 Nodes     nprocs
 n082         3
 Number of processes for MPI-2 version of Molpro:   nprocs(total)=    4   nprocs(compute)=    3   nprocs(helper)=    1
 ga_uses_ma=false, calling ma_init with nominal heap.
 GA-space will be limited to   8.0 MW (determined by -G option)

 Using customized tuning parameters: mindgm=10; mindgv=16; mindgc=4; mindgr=1; noblas=0; mincuda=1000; minvec=7
 default implementation of scratch files=sf  

 ***,Optimization of min3
 memory,1000,m
 gthresh,energy=1.0d-10,orbital=1.0d-10,oneint=1.0d-16,twoint=1.0d-16,optgrad=1.0d-6,compress=1.0d-13
 geomtyp=xyz
 
  bohr
  geometry = {
  12
  arbitrary comment
  C         -3.1009778043          1.5862933997          0.0215253150
  C         -0.8640414412         -0.0709990220         -0.6563396541
  C         -1.1190511366         -2.7806690057          0.2437044771
  O          1.3114973823          1.1049535514          0.5890025476
  O          3.4492877419          0.1200522648         -0.2518256681
  H         -4.8130363496          0.8435947533         -0.8807923750
  H         -2.8057893728          3.5259402908         -0.6192937622
  H         -3.3910704603          1.5972763595          2.0508426671
  H         -0.4603890049         -0.0045066280         -2.6753788704
  H         -2.6805911206         -3.6829173827         -0.7077465944
  H         -1.4754957429         -2.8242608511          2.2997574225
  H          0.6044123714         -3.8302588898         -0.1617521350
 }
 
 basis=cc-pvtz
 {rhf;maxit,200}
 {uccsd(t);maxit,200}

 Variables initialized (661), CPU time= 0.00 sec
 Commands  initialized (458), CPU time= 0.01 sec, 486 directives.
 Default parameters read. Elapsed time= 0.05 sec

 Checking input...
 Passed
1


                                         ***  PROGRAM SYSTEM MOLPRO  ***
                         Copyright, University College Cardiff Consultants Limited, 2008

                                    Version 2010.1 linked May 16 2016 07:17:05


 **********************************************************************************************************************************
 LABEL *   Optimization of min3                                                          
 Linux-4.4.3/n082(x86_64) 64 bit mpp version                                             DATE: 15-Jul-20          TIME: 20:34:07  
 **********************************************************************************************************************************

 SHA1:             9e8077add272b0f3cad6f7df79ec5211205f459d
 **********************************************************************************************************************************

 THRESHOLDS:

 ZERO    =  1.00D-12  ONEINT  =  1.00D-16  TWOINT  =  1.00D-16  PREFAC  =  1.00D-14  LOCALI  =  1.00D-09  EORDER  =  1.00D-04
 ENERGY  =  1.00D-10  ETEST   =  0.00D+00  EDENS   =  0.00D+00  THRDEDEF=  1.00D-06  GRADIENT=  1.00D-02  STEP    =  1.00D-03
 ORBITAL =  1.00D-10  CIVEC   =  1.00D-05  COEFF   =  1.00D-04  PRINTCI =  5.00D-02  PUNCHCI =  9.90D+01  OPTGRAD =  1.00D-06
 OPTENERG=  1.00D-06  OPTSTEP =  3.00D-04  THRGRAD =  1.00D-10  COMPRESS=  1.00D-13  VARMIN  =  1.00D-07  VARMAX  =  1.00D-03
 THRDOUB =  0.00D+00  THRDIV  =  1.00D-05  THRRED  =  1.00D-07  THRPSP  =  1.00D+00  THRDC   =  1.00D-10  THRCS   =  1.00D-10
 THRNRM  =  1.00D-08  THREQ   =  0.00D+00  THRDE   =  1.00D+00  THRREF  =  1.00D-05  SPARFAC =  1.00D+00  THRDLP  =  1.00D-07
 THRDIA  =  1.00D-10  THRDLS  =  1.00D-07  THRGPS  =  0.00D+00  THRKEX  =  0.00D+00  THRDIS  =  2.00D-01  THRVAR  =  1.00D-10
 THRLOC  =  1.00D-06  THRGAP  =  1.00D-06  THRLOCT = -1.00D+00  THRGAPT = -1.00D+00  THRORB  =  1.00D-06  THRMLTP =  0.00D+00
 THRCPQCI=  1.00D-10  KEXTA   =  0.00D+00  THRCOARS=  0.00D+00  SYMTOL  =  1.00D-06  GRADTOL =  1.00D-06  THROVL  =  1.00D-08
 THRORTH =  1.00D-08  GRID    =  1.00D-06  GRIDMAX =  1.00D-03  DTMAX   =  0.00D+00

 SETTING GEOMTYP        =    XYZ
 ZUNIT=BOHR
 

 Variable memory set to 1000000000 words,  buffer space   230000 words

 SETTING BASIS          =    CC-PVTZ


 Recomputing integrals since basis changed


 Using spherical harmonics

 Library entry C      S cc-pVTZ              selected for orbital group  1
 Library entry C      P cc-pVTZ              selected for orbital group  1
 Library entry C      D cc-pVTZ              selected for orbital group  1
 Library entry C      F cc-pVTZ              selected for orbital group  1
 Library entry O      S cc-pVTZ              selected for orbital group  2
 Library entry O      P cc-pVTZ              selected for orbital group  2
 Library entry O      D cc-pVTZ              selected for orbital group  2
 Library entry O      F cc-pVTZ              selected for orbital group  2
 Library entry H      S cc-pVTZ              selected for orbital group  3
 Library entry H      P cc-pVTZ              selected for orbital group  3
 Library entry H      D cc-pVTZ              selected for orbital group  3

1PROGRAM * SEWARD (Integral evaluation for generally contracted gaussian basis sets)     Author: Roland Lindh, 1990

 Geometry written to block  1 of record 700


 Point group  C1  



 ATOMIC COORDINATES

 NR  ATOM    CHARGE       X              Y              Z

   1  C       6.00   -3.100977804    1.586293400    0.021525315
   2  C       6.00   -0.864041441   -0.070999022   -0.656339654
   3  C       6.00   -1.119051137   -2.780669006    0.243704477
   4  O       8.00    1.311497382    1.104953551    0.589002548
   5  O       8.00    3.449287742    0.120052265   -0.251825668
   6  H       1.00   -4.813036350    0.843594753   -0.880792375
   7  H       1.00   -2.805789373    3.525940291   -0.619293762
   8  H       1.00   -3.391070460    1.597276359    2.050842667
   9  H       1.00   -0.460389005   -0.004506628   -2.675378870
  10  H       1.00   -2.680591121   -3.682917383   -0.707746594
  11  H       1.00   -1.475495743   -2.824260851    2.299757422
  12  H       1.00    0.604412371   -3.830258890   -0.161752135

 Bond lengths in Bohr (Angstrom)

 1-2  2.865310346  1-6  2.072902061  1-7  2.063980465  1-8  2.049976412  2-3  2.866604403
     ( 1.516256932)     ( 1.096932527)     ( 1.092211422)     ( 1.084800796)     ( 1.516941717)

  2- 4  2.768882595   2- 9  2.060066961   3-10  2.039048405   3-11  2.087176734   3-12  2.058242078
       ( 1.465229564)       ( 1.090140485)       ( 1.079017944)       ( 1.104486359)       ( 1.089174798)

 4-5  2.499433987
     ( 1.322643501)

 Bond angles

  1-2-3  113.76617028   1-2-4  105.15015295   1-2-9  111.47939931   2-1-6  109.54707298

  2- 1- 7  111.00505767   2- 1- 8  110.35083351   2- 3-10  109.86963927   2- 3-11  110.13468467

  2- 3-12  110.22376782   2- 4- 5  110.69343301   3- 2- 4  109.27686538   3- 2- 9  110.83409298

  4-2-9  105.85149238   6-1-7  108.64360639   6-1-8  108.41806495   7-1-8  108.81734093

 10- 3-11  108.64057680  10- 3-12  108.88643300  11- 3-12  109.05068782

 NUCLEAR CHARGE:                   41
 NUMBER OF PRIMITIVE AOS:         354
 NUMBER OF SYMMETRY AOS:          322
 NUMBER OF CONTRACTIONS:          248   ( 248A   )
 NUMBER OF CORE ORBITALS:           5   (   5A   )
 NUMBER OF VALENCE ORBITALS:       27   (  27A   )


 NUCLEAR REPULSION ENERGY  186.63173035


 Eigenvalues of metric

         1 0.808E-03 0.951E-03 0.110E-02 0.123E-02 0.137E-02 0.150E-02 0.160E-02 0.166E-02


 Contracted 2-electron integrals neglected if value below      1.0D-16
 AO integral compression algorithm  1   Integral accuracy      1.0D-16

     3372.220 MB (compressed) written to integral file ( 82.1%)

     Node minimum: 1092.616 MB, node maximum: 1156.055 MB


 NUMBER OF SORTED TWO-ELECTRON INTEGRALS:  158903334.     BUFFER LENGTH:  32768
 NUMBER OF SEGMENTS:  10  SEGMENT LENGTH:   15997437      RECORD LENGTH: 524288

 Memory used in sort:      16.55 MW

 SORT1 READ   513519592. AND WROTE   152646890. INTEGRALS IN    442 RECORDS. CPU TIME:     6.66 SEC, REAL TIME:     7.54 SEC
 SORT2 READ   459426721. AND WROTE   476679126. INTEGRALS IN  12504 RECORDS. CPU TIME:     1.26 SEC, REAL TIME:     2.32 SEC

 Node minimum:   158882750.  Node maximum:   158903334. integrals

 OPERATOR DM      FOR CENTER  0  COORDINATES:    0.000000    0.000000    0.000000


 **********************************************************************************************************************************
 DATASETS  * FILE   NREC   LENGTH (MB)   RECORD NAMES
              1      18        5.04       500      610      700      900      950      970     1000      129      960     1100   
                                          VAR    BASINP    GEOM    SYMINP    ZMAT    AOBASIS   BASIS     P2S    ABASIS      S 
                                         1400     1410     1200     1210     1080     1600     1650     1700   
                                           T        V       H0       H01     AOSYM     SMH    MOLCAS    OPER   

 PROGRAMS   *        TOTAL       INT
 CPU TIMES  *        13.91     13.84
 REAL TIME  *        16.63 SEC
 DISK USED  *         8.84 GB      
 GA USED    *         0.01 MB       (max)       0.00 MB       (current)
 **********************************************************************************************************************************

1PROGRAM * RHF-SCF (OPEN SHELL)       Authors: W. Meyer, H.-J. Werner


 NUMBER OF ELECTRONS:      21+   20-    SPACE SYMMETRY=1    SPIN SYMMETRY: Doublet 
 CONVERGENCE THRESHOLDS:    1.00E-10 (Density)    1.00E-11 (Energy)
 MAX. NUMBER OF ITERATIONS:      200
 INTERPOLATION TYPE:            DIIS
 INTERPOLATION STEPS:              2 (START)      1 (STEP)
 LEVEL SHIFTS:                 -0.30 (CLOSED)  0.00 (OPEN) 



 Orbital guess generated from atomic densities. Full valence occupancy:   32

 Molecular orbital dump at record        2100.2

 ITERATION    DDIFF          GRAD             ENERGY        2-EL.EN.            DIPOLE MOMENTS         DIIS
    1      0.000D+00      0.000D+00      -267.26083578    559.806313   -1.77195   -0.06511   -0.09335    0
    2      0.000D+00      0.326D-02      -267.33439268    562.656535   -1.01544   -0.43070   -0.35963    1
    3      0.471D-02      0.230D-02      -267.36093211    561.609750   -1.18923   -0.24282   -0.21794    2
    4      0.211D-02      0.546D-03      -267.36916865    561.796500   -0.97820   -0.31650   -0.29973    3
    5      0.926D-03      0.484D-03      -267.37339034    561.839064   -0.92290   -0.31902   -0.30444    4
    6      0.583D-03      0.272D-03      -267.37531312    561.806460   -0.88173   -0.31261   -0.30258    5
    7      0.485D-03      0.133D-03      -267.37564956    561.792276   -0.89163   -0.30110   -0.29456    6
    8      0.258D-03      0.356D-04      -267.37567133    561.789570   -0.89125   -0.29784   -0.29306    7
    9      0.846D-04      0.189D-04      -267.37568226    561.789798   -0.89377   -0.29837   -0.29313    8
   10      0.449D-04      0.822D-05      -267.37568408    561.789695   -0.89494   -0.29775   -0.29284    9
   11      0.199D-04      0.320D-05      -267.37568433    561.789637   -0.89557   -0.29758   -0.29268    9
   12      0.783D-05      0.147D-05      -267.37568439    561.789863   -0.89571   -0.29768   -0.29272    9
   13      0.368D-05      0.525D-06      -267.37568440    561.789914   -0.89572   -0.29774   -0.29275    9
   14      0.148D-05      0.296D-06      -267.37568440    561.789913   -0.89571   -0.29775   -0.29275    9
   15      0.799D-06      0.142D-06      -267.37568440    561.789919   -0.89571   -0.29776   -0.29275    9
   16      0.404D-06      0.705D-07      -267.37568440    561.789922   -0.89570   -0.29776   -0.29276    9
   17      0.162D-06      0.321D-07      -267.37568440    561.789916   -0.89570   -0.29776   -0.29276    9
   18      0.101D-06      0.178D-07      -267.37568440    561.789913   -0.89570   -0.29776   -0.29276    9
   19      0.555D-07      0.905D-08      -267.37568440    561.789915   -0.89570   -0.29776   -0.29276    9
   20      0.317D-07      0.527D-08      -267.37568440    561.789914   -0.89570   -0.29776   -0.29276    9
   21      0.262D-07      0.449D-08      -267.37568440    561.789914   -0.89570   -0.29776   -0.29276    9
   22      0.272D-07      0.384D-08      -267.37568440    561.789914   -0.89570   -0.29776   -0.29276    9
   23      0.383D-07      0.296D-08      -267.37568440    561.789913   -0.89570   -0.29776   -0.29276    9
   24      0.506D-07      0.202D-08      -267.37568440    561.789913   -0.89570   -0.29776   -0.29276    9
   25      0.445D-07      0.896D-09      -267.37568440    561.789913   -0.89570   -0.29776   -0.29276    9
   26      0.136D-07      0.434D-09      -267.37568440    561.789913   -0.89570   -0.29776   -0.29276    9
   27      0.658D-08      0.186D-09      -267.37568440    561.789913   -0.89570   -0.29776   -0.29276    9
   28      0.933D-09      0.850D-10      -267.37568440    561.789913   -0.89570   -0.29776   -0.29276    9
   29      0.222D-09      0.432D-10      -267.37568440    561.789913   -0.89570   -0.29776   -0.29276    9
   30      0.183D-09      0.212D-10      -267.37568440    561.789913   -0.89570   -0.29776   -0.29276    9
   31      0.515D-10      0.170D-10      -267.37568440    561.789913   -0.89570   -0.29776   -0.29276    0

 Final alpha occupancy:  21
 Final beta  occupancy:  20

 !RHF STATE 1.1 Energy               -267.375684400056
 Nuclear energy                       186.63173035
 One-electron energy                 -734.90237127
 Two-electron energy                  280.89495652
 Virial quotient                       -1.00115598
 !RHF STATE 1.1 Dipole moment          -0.89570300    -0.29776066    -0.29275564
 Dipole moment /Debye                  -2.27650083    -0.75678254    -0.74406188

 Orbital energies:

         1.1          2.1          3.1          4.1          5.1          6.1          7.1          8.1          9.1         10.1
    -20.648654   -20.640335   -11.297350   -11.229154   -11.225331    -1.523496    -1.170849    -1.034638    -0.952883    -0.819584

        11.1         12.1         13.1         14.1         15.1         16.1         17.1         18.1         19.1         20.1
     -0.695453    -0.667962    -0.652620    -0.595032    -0.562285    -0.558076    -0.545185    -0.501054    -0.489605    -0.465258

        21.1         22.1         23.1
     -0.562852     0.137676     0.174510


 **********************************************************************************************************************************
 DATASETS  * FILE   NREC   LENGTH (MB)   RECORD NAMES
              1      18        5.04       500      610      700      900      950      970     1000      129      960     1100   
                                          VAR    BASINP    GEOM    SYMINP    ZMAT    AOBASIS   BASIS     P2S    ABASIS      S 
                                         1400     1410     1200     1210     1080     1600     1650     1700   
                                           T        V       H0       H01     AOSYM     SMH    MOLCAS    OPER   

              2       3        2.21       700     1000     2100   
                                         GEOM     BASIS     RHF  

 PROGRAMS   *        TOTAL       RHF       INT
 CPU TIMES  *        52.32     38.41     13.84
 REAL TIME  *        58.66 SEC
 DISK USED  *         8.88 GB      
 SF USED    *         0.25 MB      
 GA USED    *         0.01 MB       (max)       0.00 MB       (current)
 **********************************************************************************************************************************


1PROGRAM * CCSD (Unrestricted open-shell coupled cluster)     Authors: C. Hampel, H.-J. Werner, 1991, M. Deegan, P.J. Knowles, 1992


 Convergence thresholds:  THRVAR = 1.00D-08  THRDEN = 1.00D-10

 CCSD(T)     terms to be evaluated (factor= 1.000)


 Number of core orbitals:           5 (   5 )
 Number of closed-shell orbitals:  15 (  15 )
 Number of active  orbitals:        1 (   1 )
 Number of external orbitals:     227 ( 227 )

 Memory could be reduced to 332.02 Mwords without degradation in triples

 Number of N-1 electron functions:              31
 Number of N-2 electron functions:             465
 Number of singly external CSFs:              7068
 Number of doubly external CSFs:          18353430
 Total number of CSFs:                    18360498

 Molecular orbitals read from record     2100.2  Type=RHF/CANONICAL (state 1.1)

 Integral transformation finished. Total CPU:  24.49 sec, npass=  1  Memory used: 145.25 MW

 Starting RMP2 calculation

 ITER.      SQ.NORM     CORR.ENERGY   TOTAL ENERGY   ENERGY CHANGE        DEN1      VAR(S)    VAR(P)  DIIS     TIME
   1      1.26535281    -0.96760658  -268.34329098    -0.96760658    -0.00323679  0.26D-04  0.11D-02  1  1    27.90
   2      1.26813807    -0.97109665  -268.34678105    -0.00349006    -0.00000667  0.10D-05  0.23D-05  2  2    30.49
   3      1.26821804    -0.97114957  -268.34683397    -0.00005292    -0.00000008  0.54D-07  0.11D-07  3  3    33.26
   4      1.26821975    -0.97114937  -268.34683377     0.00000019    -0.00000000  0.16D-08  0.12D-09  4  4    36.19
   5      1.26822001    -0.97114946  -268.34683386    -0.00000009    -0.00000000  0.19D-10  0.46D-11  5  5    39.27
   6      1.26822006    -0.97114949  -268.34683389    -0.00000003    -0.00000000  0.50D-13  0.56D-13  6  6    42.45
   7      1.26822006    -0.97114949  -268.34683389     0.00000000    -0.00000000  0.15D-14  0.85D-15  6  1    45.67
   8      1.26822006    -0.97114949  -268.34683389     0.00000000    -0.00000000  0.16D-16  0.79D-17  6  2    49.27
   9      1.26822006    -0.97114949  -268.34683389    -0.00000000    -0.00000000  0.32D-18  0.10D-18  6  3    52.87

 Norm of t1 vector:      0.04589347      S-energy:    -0.00446786      T1 diagnostic:  0.00074406
 Norm of t2 vector:      0.51586224      P-energy:    -0.96668164
                                         Alpha-Beta:  -0.73708186
                                         Alpha-Alpha: -0.11898971
                                         Beta-Beta:   -0.11061007

 Spin contamination <S**2-Sz**2-Sz>     0.00145416
  Reference energy                   -267.375684400054
  RHF-RMP2 correlation energy          -0.971149491708
 !RHF-RMP2 energy                    -268.346833891762

 Starting UCCSD calculation

 ITER.      SQ.NORM     CORR.ENERGY   TOTAL ENERGY   ENERGY CHANGE        DEN1      VAR(S)    VAR(P)  DIIS     TIME
   1      1.27982368    -0.97926994  -268.35495434    -0.97926994    -0.02932893  0.65D-02  0.54D-02  1  1   139.83
   2      1.30622929    -1.00589359  -268.38157799    -0.02662364    -0.00363425  0.62D-03  0.97D-03  2  2   238.61
   3      1.32287987    -1.01271689  -268.38840129    -0.00682331    -0.00091227  0.75D-03  0.76D-04  3  3   332.98
   4      1.33412331    -1.01537660  -268.39106100    -0.00265971    -0.00038535  0.31D-03  0.33D-04  4  4   425.62
   5      1.34920778    -1.01737478  -268.39305918    -0.00199818    -0.00011799  0.10D-03  0.90D-05  5  5   522.45
   6      1.36074963    -1.01839852  -268.39408292    -0.00102374    -0.00001812  0.93D-05  0.32D-05  6  6   617.85
   7      1.36444019    -1.01863909  -268.39432349    -0.00024057    -0.00000316  0.16D-05  0.61D-06  6  1   710.58
   8      1.36504400    -1.01868116  -268.39436556    -0.00004208    -0.00000067  0.27D-06  0.15D-06  6  2   799.89
   9      1.36536473    -1.01869964  -268.39438404    -0.00001847    -0.00000015  0.66D-07  0.32D-07  6  4   892.61
  10      1.36535095    -1.01869834  -268.39438274     0.00000130    -0.00000002  0.11D-07  0.43D-08  6  3   992.00
  11      1.36541349    -1.01870345  -268.39438785    -0.00000510    -0.00000000  0.24D-08  0.94D-09  6  5  1088.45
  12      1.36540596    -1.01870096  -268.39438536     0.00000249    -0.00000000  0.10D-08  0.21D-09  6  6  1178.57
  13      1.36540155    -1.01869980  -268.39438420     0.00000115    -0.00000000  0.59D-09  0.54D-10  6  1  1271.32
  14      1.36538882    -1.01869832  -268.39438272     0.00000148    -0.00000000  0.38D-09  0.20D-10  6  2  1357.03
  15      1.36538301    -1.01869762  -268.39438202     0.00000070    -0.00000000  0.31D-09  0.15D-10  6  3  1449.80
  16      1.36538012    -1.01869746  -268.39438186     0.00000016    -0.00000000  0.23D-09  0.12D-10  6  4  1541.70
  17      1.36537944    -1.01869746  -268.39438186     0.00000000    -0.00000000  0.12D-09  0.12D-10  6  5  1634.36
  18      1.36538188    -1.01869762  -268.39438202    -0.00000016    -0.00000000  0.27D-10  0.52D-11  6  6  1725.97
  19      1.36538496    -1.01869793  -268.39438233    -0.00000031    -0.00000000  0.26D-11  0.16D-11  6  2  1821.65
  20      1.36538439    -1.01869780  -268.39438220     0.00000013    -0.00000000  0.61D-12  0.17D-12  6  1  1923.97
  21      1.36538469    -1.01869785  -268.39438225    -0.00000004    -0.00000000  0.21D-12  0.58D-13  6  4  2026.13
  22      1.36538459    -1.01869783  -268.39438223     0.00000001    -0.00000000  0.71D-13  0.19D-13  6  2  2128.80
  23      1.36538467    -1.01869784  -268.39438224    -0.00000001    -0.00000000  0.20D-13  0.38D-14  6  3  2231.05
  24      1.36538460    -1.01869783  -268.39438223     0.00000001    -0.00000000  0.22D-14  0.71D-15  6  5  2334.05
  25      1.36538459    -1.01869783  -268.39438223     0.00000000    -0.00000000  0.64D-15  0.20D-15  6  6  2416.33
  26      1.36538458    -1.01869783  -268.39438223     0.00000000    -0.00000000  0.31D-15  0.72D-16  6  1  2493.25
  27      1.36538459    -1.01869783  -268.39438223    -0.00000000    -0.00000000  0.19D-15  0.17D-16  6  4  2569.96
  28      1.36538459    -1.01869783  -268.39438223    -0.00000000    -0.00000000  0.14D-15  0.78D-17  6  2  2647.00
  29      1.36538459    -1.01869783  -268.39438223    -0.00000000    -0.00000000  0.11D-15  0.56D-17  6  3  2724.15
  30      1.36538459    -1.01869783  -268.39438223     0.00000000    -0.00000000  0.60D-16  0.51D-17  6  5  2801.15

 Norm of t1 vector:      0.23125251      S-energy:    -0.00501522      T1 diagnostic:  0.02849638
                                                                       D1 diagnostic:  0.14603772
 Norm of t2 vector:      0.55848623      P-energy:    -1.01368261
                                         Alpha-Beta:  -0.80137682
                                         Alpha-Alpha: -0.10868399
                                         Beta-Beta:   -0.10362181

 Singles amplitudes (print threshold =  0.500E-01):

         I         SYM. A    A   T(IA) [Beta-Beta]

         8         1         1     -0.09517447
         9         1         1      0.09905094
        11         1         1      0.05558467
        12         1         1     -0.07421347
        14         1         1     -0.11116068

 Spin contamination <S**2-Sz**2-Sz>     0.00176132

 Memory could be reduced to 360.52 Mwords without degradation in triples
 

 RESULTS
 =======

  Reference energy                   -267.375684400054
  UCCSD singles energy                 -0.005015222025
  UCCSD pair energy                    -1.013682609862
  UCCSD correlation energy             -1.018697831887
  Triples (T) contribution             -0.040834089232
  Total correlation energy             -1.059531921119
 
  RHF-UCCSD energy                   -268.394382231941
  RHF-UCCSD[T] energy                -268.438539145137
  RHF-UCCSD-T energy                 -268.434718812052
 !RHF-UCCSD(T) energy                -268.435216321173

 Program statistics:

 Available memory in ccsd:               999997692
 Min. memory needed in ccsd:              51505734
 Max. memory used in ccsd:                74803578
 Max. memory used in cckext:              59475747 (30 integral passes)
 Max. memory used in cckint:             145249478 ( 1 integral passes)



 **********************************************************************************************************************************
 DATASETS  * FILE   NREC   LENGTH (MB)   RECORD NAMES
              1      18        5.04       500      610      700      900      950      970     1000      129      960     1100   
                                          VAR    BASINP    GEOM    SYMINP    ZMAT    AOBASIS   BASIS     P2S    ABASIS      S 
                                         1400     1410     1200     1210     1080     1600     1650     1700   
                                           T        V       H0       H01     AOSYM     SMH    MOLCAS    OPER   

              2       3        2.21       700     1000     2100   
                                         GEOM     BASIS     RHF  

 PROGRAMS   *        TOTAL  UCCSD(T)       RHF       INT
 CPU TIMES  *      4309.57   4257.25     38.41     13.84
 REAL TIME  *      4389.63 SEC
 DISK USED  *        15.86 GB      
 SF USED    *         6.57 GB      
 GA USED    *         0.01 MB       (max)       0.00 MB       (current)
 **********************************************************************************************************************************

        UCCSD(T)        RHF-SCF 
   -268.43521632   -267.37568440
 **********************************************************************************************************************************
 Variable memory released
