
    -----------------------------------------------------------------------
          Psi4: An Open-Source Ab Initio Electronic Structure Package
                               Psi4 1.4a2.dev629 

                         Git: Rev {master} 2938fc2 dirty


    D. G. A. Smith, L. A. Burns, A. C. Simmonett, R. M. Parrish,
    M. C. Schieber, R. Galvelis, P. Kraus, H. Kruse, R. Di Remigio,
    A. Alenaizan, A. M. James, S. Lehtola, J. P. Misiewicz, M. Scheurer,
    R. A. Shaw, J. B. Schriber, Y. Xie, Z. L. Glick, D. A. Sirianni,
    J. S. O'Brien, J. M. Waldrop, A. Kumar, E. G. Hohenstein,
    B. P. Pritchard, B. R. Brooks, H. F. Schaefer III, A. Yu. Sokolov,
    K. Patkowski, A. E. DePrince III, U. Bozkaya, R. A. King,
    F. A. Evangelista, J. M. Turney, T. D. Crawford, C. D. Sherrill,
    J. Chem. Phys. 152(18) 184108 (2020). https://doi.org/10.1063/5.0006002

                            Additional Code Authors
    E. T. Seidl, C. L. Janssen, E. F. Valeev, M. L. Leininger,
    J. F. Gonthier, R. M. Richard, H. R. McAlexander, M. Saitow, X. Wang,
    P. Verma, and M. H. Lechner

             Previous Authors, Complete List of Code Contributors,
                       and Citations for Specific Modules
    https://github.com/psi4/psi4/blob/master/codemeta.json
    https://github.com/psi4/psi4/graphs/contributors
    http://psicode.org/psi4manual/master/introduction.html#citing-psifour

    -----------------------------------------------------------------------


    Psi4 started on: Monday, 06 September 2021 06:17PM

    Process ID: 11275
    Host:       n009
    PSIDATADIR: /opt/psi/4/master/share/psi4
    Memory:     500.0 MiB
    Threads:    1
    
  ==> Input File <==

--------------------------------------------------------------------------
# o-Benzyne preliminary computations

memory 14 gb

molecule {
  0 1
  units bohr
 H    0.0000000000   -1.4194801358    0.9984183586
 O    0.0000000000    0.0000001566   -0.1304929739
 H    0.0000000000    1.4194799792    0.9984182353
}

set {
  basis cc-pvtz
  reference rhf
  e_convergence 10 
  d_convergence 10
  r_convergence 8
  maxiter 300
  freeze_core True
}

e, wfn = energy('ccsd(t)', return_wfn = True)
psi4.print_out('Giraffe The Energy is %.12f \n'%(e))
--------------------------------------------------------------------------

  Memory set to  13.039 GiB by Python driver.

Scratch directory: /tmp/

*** tstart() called on n009
*** at Mon Sep  6 18:17:23 2021

   => Loading Basis Set <=

    Name: CC-PVTZ
    Role: ORBITAL
    Keyword: BASIS
    atoms 1, 3 entry H          line    23 file /opt/psi/4/master/share/psi4/basis/cc-pvtz.gbs 
    atoms 2    entry O          line   262 file /opt/psi/4/master/share/psi4/basis/cc-pvtz.gbs 


         ---------------------------------------------------------
                                   SCF
               by Justin Turney, Rob Parrish, Andy Simmonett
                          and Daniel G. A. Smith
                              RHF Reference
                        1 Threads,  13351 MiB Core
         ---------------------------------------------------------

  ==> Geometry <==

    Molecular point group: cs
    Full point group: Cs

    Geometry (in Bohr), charge = 0, multiplicity = 1:

       Center              X                  Y                   Z               Mass       
    ------------   -----------------  -----------------  -----------------  -----------------
         H            1.419480266111    -1.002569370669     0.000000000000     1.007825032230
         O           -0.000000026289     0.126341961831     0.000000000000    15.994914619570
         H           -1.419479848889    -1.002569247369     0.000000000000     1.007825032230

  Running in cs symmetry.

  Rotational constants: A =     26.38790  B =     14.82247  C =      9.49115 [cm^-1]
  Rotational constants: A = 791089.43096  B = 444366.39292  C = 284537.53677 [MHz]
  Nuclear repulsion =    9.174179543263804

  Charge       = 0
  Multiplicity = 1
  Electrons    = 10
  Nalpha       = 5
  Nbeta        = 5

  ==> Algorithm <==

  SCF Algorithm Type is PK.
  DIIS enabled.
  MOM disabled.
  Fractional occupation disabled.
  Guess Type is SAD.
  Energy threshold   = 1.00e-10
  Density threshold  = 1.00e-10
  Integral threshold = 0.00e+00

  ==> Primary Basis <==

  Basis Set: CC-PVTZ
    Blend: CC-PVTZ
    Number of shells: 22
    Number of basis function: 58
    Number of Cartesian functions: 65
    Spherical Harmonics?: true
    Max angular momentum: 3

  ==> Integral Setup <==

  Using in-core PK algorithm.
   Calculation information:
      Number of atoms:                   3
      Number of AO shells:              22
      Number of primitives:             42
      Number of atomic orbitals:        65
      Number of basis functions:        58

      Integral cutoff                 1.00e-12
      Number of threads:                 1

  Performing in-core PK
  Using 2929232 doubles for integral storage.
  We computed 32131 shell quartets total.
  Whereas there are 32131 unique shell quartets.

  ==> DiskJK: Disk-Based J/K Matrices <==

    J tasked:                  Yes
    K tasked:                  Yes
    wK tasked:                  No
    Memory [MiB]:            10013
    Schwarz Cutoff:          1E-12

    OpenMP threads:              1

  Minimum eigenvalue in the overlap matrix is 2.5309267595E-03.
  Reciprocal condition number of the overlap matrix is 4.9418157104E-04.
    Using symmetric orthogonalization.

  ==> Pre-Iterations <==

  SCF Guess: Superposition of Atomic Densities via on-the-fly atomic UHF (no occupation information).

   -------------------------
    Irrep   Nso     Nmo    
   -------------------------
     A'        40      40 
     A"        18      18 
   -------------------------
    Total      58      58
   -------------------------

  ==> Iterations <==

                        Total Energy        Delta E     RMS |[F,P]|

   @RHF iter SAD:   -75.50010006521839   -7.55001e+01   0.00000e+00 
   @RHF iter   1:   -75.97820400367573   -4.78104e-01   1.02945e-02 DIIS
   @RHF iter   2:   -76.03081332314926   -5.26093e-02   6.66500e-03 DIIS
   @RHF iter   3:   -76.05644422824841   -2.56309e-02   4.97665e-04 DIIS
   @RHF iter   4:   -76.05683397221985   -3.89744e-04   1.21937e-04 DIIS
   @RHF iter   5:   -76.05685878340780   -2.48112e-05   2.52792e-05 DIIS
   @RHF iter   6:   -76.05686034553841   -1.56213e-06   4.86218e-06 DIIS
   @RHF iter   7:   -76.05686040419840   -5.86600e-08   7.62126e-07 DIIS
   @RHF iter   8:   -76.05686040536408   -1.16567e-09   1.14438e-07 DIIS
   @RHF iter   9:   -76.05686040539095   -2.68727e-11   3.19065e-08 DIIS
   @RHF iter  10:   -76.05686040539337   -2.41585e-12   4.28142e-09 DIIS
   @RHF iter  11:   -76.05686040539325    1.13687e-13   6.02431e-10 DIIS
   @RHF iter  12:   -76.05686040539339   -1.42109e-13   9.77598e-11 DIIS
  Energy and wave function converged.


  ==> Post-Iterations <==

    Orbital Energies [Eh]
    ---------------------

    Doubly Occupied:                                                      

       1Ap   -20.555923     2Ap    -1.345514     3Ap    -0.705523  
       4Ap    -0.580236     1App   -0.504772  

    Virtual:                                                              

       5Ap     0.141717     6Ap     0.204136     7Ap     0.540671  
       8Ap     0.606206     9Ap     0.667660     2App    0.787102  
      10Ap     0.793005    11Ap     0.806092     3App    0.863815  
       4App    0.948667    12Ap     1.135343    13Ap     1.200015  
      14Ap     1.521111    15Ap     1.565747     5App    2.042753  
      16Ap     2.054951     6App    2.061776    17Ap     2.173112  
      18Ap     2.232892    19Ap     2.581882    20Ap     2.966118  
       7App    3.341459    21Ap     3.482305     8App    3.592674  
      22Ap     3.662068     9App    3.796406    23Ap     3.876277  
      24Ap     3.888359    10App    3.965029    11App    4.015508  
      25Ap     4.070842    26Ap     4.191383    12App    4.302791  
      27Ap     4.368019    28Ap     4.602374    13App    4.681004  
      29Ap     4.862108    30Ap     5.159465    31Ap     5.249571  
      32Ap     5.521790    14App    6.053120    33Ap     6.580415  
      15App    6.910572    16App    6.936055    17App    7.005839  
      34Ap     7.017371    35Ap     7.023405    36Ap     7.182192  
      18App    7.235758    37Ap     7.445753    38Ap     7.794669  
      39Ap     8.289308    40Ap    12.828529  

    Final Occupation by Irrep:
             Ap   App 
    DOCC [     4,    1 ]

  @RHF Final Energy:   -76.05686040539339

   => Energetics <=

    Nuclear Repulsion Energy =              9.1741795432638042
    One-Electron Energy =                -123.0781448361224477
    Two-Electron Energy =                  37.8471048874652425
    Total Energy =                        -76.0568604053933939

Computation Completed


Properties will be evaluated at   0.000000,   0.000000,   0.000000 [a0]

Properties computed using the SCF density matrix

  Nuclear Dipole Moment: [e a0]
     X:     0.0000      Y:    -0.9944      Z:     0.0000

  Electronic Dipole Moment: [e a0]
     X:    -0.0000      Y:     0.1875      Z:     0.0000

  Dipole Moment: [e a0]
     X:     0.0000      Y:    -0.8069      Z:     0.0000     Total:     0.8069

  Dipole Moment: [D]
     X:     0.0000      Y:    -2.0509      Z:     0.0000     Total:     2.0509


*** tstop() called on n009 at Mon Sep  6 18:17:24 2021
Module time:
	user time   =       1.36 seconds =       0.02 minutes
	system time =       0.01 seconds =       0.00 minutes
	total time  =          1 seconds =       0.02 minutes
Total time:
	user time   =       1.36 seconds =       0.02 minutes
	system time =       0.01 seconds =       0.00 minutes
	total time  =          1 seconds =       0.02 minutes
 MINTS: Wrapper to libmints.
   by Justin Turney

   Calculation information:
      Number of threads:                 1
      Number of atoms:                   3
      Number of AO shells:              22
      Number of SO shells:              22
      Number of primitives:             42
      Number of atomic orbitals:        65
      Number of basis functions:        58

      Number of irreps:                  2
      Integral cutoff                 0.00e+00
      Number of functions per irrep: [  40   18 ]

 OEINTS: Overlap, kinetic, potential, dipole, and quadrupole integrals
         stored in file 35.

      Computing two-electron integrals...done
      Computed 712870 non-zero two-electron integrals.
        Stored in file 33.


*** tstart() called on n009
*** at Mon Sep  6 18:17:25 2021


	Wfn Parameters:
	--------------------
	Wavefunction         = CCSD_T
	Number of irreps     = 2
	Number of MOs        = 58
	Number of active MOs = 57
	AO-Basis             = NONE
	Semicanonical        = false
	Reference            = RHF
	Print Level          = 1

	IRREP	# MOs	# FZDC	# DOCC	# SOCC	# VIRT	# FZVR
	-----	-----	------	------	------	------	------
	 Ap	   40	    1	    3	    0	    36	    0
	 App	   18	    0	    1	    0	    17	    0
	Transforming integrals...
	IWL integrals will be deleted.
	(OO|OO)...
	Presorting SO-basis two-electron integrals.
	Sorting File: SO Ints (nn|nn) nbuckets = 1
	Transforming the one-electron integrals and constructing Fock matrices
	Starting first half-transformation.
	Sorting half-transformed integrals.
	First half integral transformation complete.
	Starting second half-transformation.
	Two-electron integral transformation complete.
	(OO|OV)...
	Starting second half-transformation.
	Two-electron integral transformation complete.
	(OO|VV)...
	Starting second half-transformation.
	Two-electron integral transformation complete.
	(OV|OO)...
	Starting first half-transformation.
	Sorting half-transformed integrals.
	First half integral transformation complete.
	Starting second half-transformation.
	Two-electron integral transformation complete.
	(OV|OV)...
	Starting second half-transformation.
	Two-electron integral transformation complete.
	(OV|VV)...
	Starting second half-transformation.
	Two-electron integral transformation complete.
	(VV|OO)...
	Starting first half-transformation.
	Sorting half-transformed integrals.
	First half integral transformation complete.
	Starting second half-transformation.
	Two-electron integral transformation complete.
	(VV|OV)...
	Starting second half-transformation.
	Two-electron integral transformation complete.
	(VV|VV)...
	Starting second half-transformation.
	Two-electron integral transformation complete.
	Frozen core energy     =    -61.31092938615609

	Size of irrep 0 of <ab|cd> integrals:      2.512 (MW) /     20.098 (MB)
	Size of irrep 1 of <ab|cd> integrals:      1.498 (MW) /     11.985 (MB)
	Total:                                     4.010 (MW) /     32.083 (MB)

	Size of irrep 0 of <ia|bc> integrals:      0.198 (MW) /      1.585 (MB)
	Size of irrep 1 of <ia|bc> integrals:      0.106 (MW) /      0.852 (MB)
	Total:                                     0.305 (MW) /      2.437 (MB)

	Size of irrep 0 of tijab amplitudes:       0.016 (MW) /      0.127 (MB)
	Size of irrep 1 of tijab amplitudes:       0.007 (MW) /      0.059 (MB)
	Total:                                     0.023 (MW) /      0.186 (MB)

	Nuclear Rep. energy          =      9.17417954326380
	SCF energy                   =    -76.05686040539339
	One-electron energy          =    -41.56813161894574
	Two-electron energy          =     17.64802105644467
	Reference energy             =    -76.05686040539335

*** tstop() called on n009 at Mon Sep  6 18:17:26 2021
Module time:
	user time   =       0.63 seconds =       0.01 minutes
	system time =       0.24 seconds =       0.00 minutes
	total time  =          1 seconds =       0.02 minutes
Total time:
	user time   =       2.22 seconds =       0.04 minutes
	system time =       0.26 seconds =       0.00 minutes
	total time  =          3 seconds =       0.05 minutes
            **************************
            *                        *
            *        CCENERGY        *
            *                        *
            **************************

    Nuclear Rep. energy (wfn)     =    9.174179543263804
    SCF energy          (wfn)     =  -76.056860405393394
    Reference energy    (file100) =  -76.056860405393351

    Input parameters:
    -----------------
    Wave function   =     CCSD_T
    Reference wfn   =     RHF
    Brueckner       =     No
    Memory (Mbytes) =     14000.0
    Maxiter         =    300
    R_Convergence   =     1.0e-08
    E_Convergence   =     1.0e-10
    Restart         =     Yes
    DIIS            =     Yes
    AO Basis        =     NONE
    ABCD            =     NEW
    Cache Level     =     2
    Cache Type      =     LOW
    Print Level     =     1
    Num. of threads =     1
    # Amps to Print =     10
    Print MP2 Amps? =     No
    Analyze T2 Amps =     No
    Print Pair Ener =     No
    Local CC        =     No
    SCS-MP2         =     False
    SCSN-MP2        =     False
    SCS-CCSD        =     False

MP2 correlation energy -0.2617907901187799
                Solving CC Amplitude Equations
                ------------------------------
  Iter             Energy              RMS        T1Diag      D1Diag    New D1Diag    D2Diag
  ----     ---------------------    ---------   ----------  ----------  ----------   --------
     0        -0.261790790118780    0.000e+00    0.000000    0.000000    0.000000    0.116311
     1        -0.262086616016295    2.916e-02    0.005722    0.009316    0.009316    0.119964
     2        -0.266939721438031    1.006e-02    0.005919    0.009471    0.009471    0.124658
     3        -0.267653585145185    3.236e-03    0.006510    0.010614    0.010614    0.126319
     4        -0.267645537346976    6.572e-04    0.006548    0.010705    0.010705    0.126529
     5        -0.267667558551369    2.072e-04    0.006569    0.010795    0.010795    0.126577
     6        -0.267668109659551    6.153e-05    0.006574    0.010831    0.010831    0.126574
     7        -0.267668200941588    1.976e-05    0.006577    0.010847    0.010847    0.126572
     8        -0.267667892006385    5.105e-06    0.006578    0.010851    0.010851    0.126572
     9        -0.267667802754152    1.047e-06    0.006578    0.010852    0.010852    0.126572
    10        -0.267667815493834    2.345e-07    0.006578    0.010852    0.010852    0.126572
    11        -0.267667814187244    4.543e-08    0.006578    0.010852    0.010852    0.126572
    12        -0.267667815805749    1.005e-08    0.006578    0.010852    0.010852    0.126572
    13        -0.267667815846430    2.406e-09    0.006578    0.010852    0.010852    0.126572
    14        -0.267667815855979    6.002e-10    0.006578    0.010852    0.010852    0.126572

    Iterations converged.


    Largest TIA Amplitudes:
              3  36        -0.0075531355
              2   0         0.0058686141
              1   9        -0.0058292670
              3  38        -0.0049646085
              2   5        -0.0045854566
              2  10        -0.0041959476
              0   4        -0.0040412041
              1  20        -0.0038588557
              2   4         0.0038368330
              2  21        -0.0038000647

    Largest TIjAb Amplitudes:
      3   3  36  36        -0.0476616995
      2   2   4   4        -0.0295026156
      1   1   2   2        -0.0272047076
      2   3   4  36         0.0258889625
      3   2  36   4         0.0258889625
      1   1   3   3        -0.0251822241
      1   1   6   6        -0.0226697153
      1   3   6  36         0.0222739768
      3   1  36   6         0.0222739768
      2   2   2   2        -0.0222105125

    SCF energy       (wfn)                    =  -76.056860405393394
    Reference energy (file100)                =  -76.056860405393351

    Opposite-spin MP2 correlation energy      =   -0.198206656512218
    Same-spin MP2 correlation energy          =   -0.063584133606562
    Singles MP2 correlation energy            =   -0.000000000000000
    MP2 correlation energy                    =   -0.261790790118780
      * MP2 total energy                      =  -76.318651195512132

    Opposite-spin CCSD correlation energy     =   -0.210982839159332
    Same-spin CCSD correlation energy         =   -0.056684976696647
    Singles CCSD correlation energy           =    0.000000000000000
    CCSD correlation energy                   =   -0.267667815855979
      * CCSD total energy                     =  -76.324528221249324

            **************************
            *                        *
            *        CCTRIPLES       *
            *                        *
            **************************


    Wave function   =    CCSD_T
    Reference wfn   =      RHF

    Nuclear Rep. energy (wfn)                =    9.174179543263804
    SCF energy          (wfn)                =  -76.056860405393394
    Reference energy    (file100)            =  -76.056860405393351
    CCSD energy         (file100)            =   -0.267667815855979
    Total CCSD energy   (file100)            =  -76.324528221249324

    Number of ijk index combinations:               20
    Memory available in words        :      1750000000
    ~Words needed per explicit thread:          186624
    Number of threads for explicit ijk threading:    1

    MKL num_threads set to 1 for explicit threading.

    (T) energy                                =   -0.007680184144830
      * CCSD(T) total energy                  =  -76.332208405394155

Giraffe The Energy is -76.332208405394 

    Psi4 stopped on: Monday, 06 September 2021 06:17PM
    Psi4 wall time for execution: 0:00:07.47

*** Psi4 exiting successfully. Buy a developer a beer!
