
 Primary working directories    : /tmp/333988.5.gen6.q
 Secondary working directories  : /tmp/333988.5.gen6.q
 Wavefunction directory         : /home/vulcan/mel64643/wfu/
 Main file repository           : /tmp/333988.5.gen6.q/

 ARCHNAME  : Linux/x86_64
 FC        : /opt/intel/compilers_and_libraries_2016.1.150/linux/bin/intel64/ifort
 FCVERSION : 16.0.1
 BLASLIB   : -mkl
 id        : ccgc

 Nodes     nprocs
 n084         3
 Number of processes for MPI-2 version of Molpro:   nprocs(total)=    4   nprocs(compute)=    3   nprocs(helper)=    1
 ga_uses_ma=false, calling ma_init with nominal heap.
 GA-space will be limited to   8.0 MW (determined by -G option)

 Using customized tuning parameters: mindgm=10; mindgv=16; mindgc=4; mindgr=1; noblas=0; mincuda=1000; minvec=7
 default implementation of scratch files=sf  

 ***,Optimization of min3
 memory,1000,m
 gthresh,energy=1.0d-10,orbital=1.0d-10,oneint=1.0d-16,twoint=1.0d-16,optgrad=1.0d-6,compress=1.0d-13
 geomtyp=xyz
 
  bohr
  geometry = {
  12
  arbitrary comment
  C         -3.1018303029          1.5860585072          0.0196740948
  C         -0.8640475050         -0.0709635329         -0.6559260401
  C         -1.1175989600         -2.7797101832          0.2468991112
  O          1.3115770547          1.1050622014          0.5889706744
  O          3.4491428866          0.1198816615         -0.2521525647
  H         -4.8026804104          0.8532771577         -0.8870555291
  H         -2.8016265973          3.5251008927         -0.6097180590
  H         -3.4012668700          1.5887292278          2.0611258569
  H         -0.4600497071         -0.0043020596         -2.6771090973
  H         -2.7007402797         -3.6910996682         -0.7122628004
  H         -1.4652252220         -2.8231000846          2.2809000254
  H          0.6035958430         -3.8317968417         -0.1654707359
 }
 
 basis=cc-pvtz
 {rhf;maxit,200}
 {uccsd(t);maxit,200}

 Variables initialized (661), CPU time= 0.01 sec
 Commands  initialized (458), CPU time= 0.00 sec, 486 directives.
 Default parameters read. Elapsed time= 0.04 sec

 Checking input...
 Passed
1


                                         ***  PROGRAM SYSTEM MOLPRO  ***
                         Copyright, University College Cardiff Consultants Limited, 2008

                                    Version 2010.1 linked May 16 2016 07:17:05


 **********************************************************************************************************************************
 LABEL *   Optimization of min3                                                          
 Linux-4.4.3/n084(x86_64) 64 bit mpp version                                             DATE: 15-Jul-20          TIME: 02:56:08  
 **********************************************************************************************************************************

 SHA1:             9e8077add272b0f3cad6f7df79ec5211205f459d
 **********************************************************************************************************************************

 THRESHOLDS:

 ZERO    =  1.00D-12  ONEINT  =  1.00D-16  TWOINT  =  1.00D-16  PREFAC  =  1.00D-14  LOCALI  =  1.00D-09  EORDER  =  1.00D-04
 ENERGY  =  1.00D-10  ETEST   =  0.00D+00  EDENS   =  0.00D+00  THRDEDEF=  1.00D-06  GRADIENT=  1.00D-02  STEP    =  1.00D-03
 ORBITAL =  1.00D-10  CIVEC   =  1.00D-05  COEFF   =  1.00D-04  PRINTCI =  5.00D-02  PUNCHCI =  9.90D+01  OPTGRAD =  1.00D-06
 OPTENERG=  1.00D-06  OPTSTEP =  3.00D-04  THRGRAD =  1.00D-10  COMPRESS=  1.00D-13  VARMIN  =  1.00D-07  VARMAX  =  1.00D-03
 THRDOUB =  0.00D+00  THRDIV  =  1.00D-05  THRRED  =  1.00D-07  THRPSP  =  1.00D+00  THRDC   =  1.00D-10  THRCS   =  1.00D-10
 THRNRM  =  1.00D-08  THREQ   =  0.00D+00  THRDE   =  1.00D+00  THRREF  =  1.00D-05  SPARFAC =  1.00D+00  THRDLP  =  1.00D-07
 THRDIA  =  1.00D-10  THRDLS  =  1.00D-07  THRGPS  =  0.00D+00  THRKEX  =  0.00D+00  THRDIS  =  2.00D-01  THRVAR  =  1.00D-10
 THRLOC  =  1.00D-06  THRGAP  =  1.00D-06  THRLOCT = -1.00D+00  THRGAPT = -1.00D+00  THRORB  =  1.00D-06  THRMLTP =  0.00D+00
 THRCPQCI=  1.00D-10  KEXTA   =  0.00D+00  THRCOARS=  0.00D+00  SYMTOL  =  1.00D-06  GRADTOL =  1.00D-06  THROVL  =  1.00D-08
 THRORTH =  1.00D-08  GRID    =  1.00D-06  GRIDMAX =  1.00D-03  DTMAX   =  0.00D+00

 SETTING GEOMTYP        =    XYZ
 ZUNIT=BOHR
 

 Variable memory set to 1000000000 words,  buffer space   230000 words

 SETTING BASIS          =    CC-PVTZ


 Recomputing integrals since basis changed


 Using spherical harmonics

 Library entry C      S cc-pVTZ              selected for orbital group  1
 Library entry C      P cc-pVTZ              selected for orbital group  1
 Library entry C      D cc-pVTZ              selected for orbital group  1
 Library entry C      F cc-pVTZ              selected for orbital group  1
 Library entry O      S cc-pVTZ              selected for orbital group  2
 Library entry O      P cc-pVTZ              selected for orbital group  2
 Library entry O      D cc-pVTZ              selected for orbital group  2
 Library entry O      F cc-pVTZ              selected for orbital group  2
 Library entry H      S cc-pVTZ              selected for orbital group  3
 Library entry H      P cc-pVTZ              selected for orbital group  3
 Library entry H      D cc-pVTZ              selected for orbital group  3

1PROGRAM * SEWARD (Integral evaluation for generally contracted gaussian basis sets)     Author: Roland Lindh, 1990

 Geometry written to block  1 of record 700


 Point group  C1  



 ATOMIC COORDINATES

 NR  ATOM    CHARGE       X              Y              Z

   1  C       6.00   -3.101830303    1.586058507    0.019674095
   2  C       6.00   -0.864047505   -0.070963533   -0.655926040
   3  C       6.00   -1.117598960   -2.779710183    0.246899111
   4  O       8.00    1.311577055    1.105062201    0.588970674
   5  O       8.00    3.449142887    0.119881662   -0.252152565
   6  H       1.00   -4.802680410    0.853277158   -0.887055529
   7  H       1.00   -2.801626597    3.525100893   -0.609718059
   8  H       1.00   -3.401266870    1.588729228    2.061125857
   9  H       1.00   -0.460049707   -0.004302060   -2.677109097
  10  H       1.00   -2.700740280   -3.691099668   -0.712262800
  11  H       1.00   -1.465225222   -2.823100085    2.280900025
  12  H       1.00    0.603595843   -3.831796842   -0.165470736

 Bond lengths in Bohr (Angstrom)

 1-2  2.865279992  1-6  2.062042241  1-7  2.060616927  1-8  2.063297043  2-3  2.866476933
     ( 1.516240869)     ( 1.091185758)     ( 1.090431514)     ( 1.091849771)     ( 1.516874263)

  2- 4  2.768780703   2- 9  2.062241238   3-10  2.063239880   3-11  2.063949229   3-12  2.058991690
       ( 1.465175645)       ( 1.091291063)       ( 1.091819521)       ( 1.092194893)       ( 1.089571476)

 4-5  2.499451277
     ( 1.322652651)

 Bond angles

  1-2-3  113.77475796   1-2-4  105.19093318   1-2-9  111.43219942   2-1-6  109.57276029

  2- 1- 7  111.00141241   2- 1- 8  110.32735916   2- 3-10  109.80825485   2- 3-11  110.19118427

  2- 3-12  110.23267916   2- 4- 5  110.68789920   3- 2- 4  109.22420619   3- 2- 9  110.88930319

  4-2-9  105.84307139   6-1-7  108.67860664   6-1-8  108.41054447   7-1-8  108.79176253

 10- 3-11  108.63955732  10- 3-12  108.82076407  11- 3-12  109.11256010

 NUCLEAR CHARGE:                   41
 NUMBER OF PRIMITIVE AOS:         354
 NUMBER OF SYMMETRY AOS:          322
 NUMBER OF CONTRACTIONS:          248   ( 248A   )
 NUMBER OF CORE ORBITALS:           5   (   5A   )
 NUMBER OF VALENCE ORBITALS:       27   (  27A   )


 NUCLEAR REPULSION ENERGY  186.62727604


 Eigenvalues of metric

         1 0.808E-03 0.956E-03 0.110E-02 0.124E-02 0.136E-02 0.150E-02 0.160E-02 0.164E-02


 Contracted 2-electron integrals neglected if value below      1.0D-16
 AO integral compression algorithm  1   Integral accuracy      1.0D-16

     3371.958 MB (compressed) written to integral file ( 82.1%)

     Node minimum: 831.783 MB, node maximum: 1287.913 MB


 NUMBER OF SORTED TWO-ELECTRON INTEGRALS:  158903334.     BUFFER LENGTH:  32768
 NUMBER OF SEGMENTS:  10  SEGMENT LENGTH:   15997437      RECORD LENGTH: 524288

 Memory used in sort:      16.55 MW

 SORT1 READ   513525022. AND WROTE   152626507. INTEGRALS IN    442 RECORDS. CPU TIME:     8.89 SEC, REAL TIME:     9.90 SEC
 SORT2 READ   459377917. AND WROTE   476679126. INTEGRALS IN   9519 RECORDS. CPU TIME:     1.68 SEC, REAL TIME:     2.64 SEC

 Node minimum:   158882750.  Node maximum:   158903334. integrals

 OPERATOR DM      FOR CENTER  0  COORDINATES:    0.000000    0.000000    0.000000


 **********************************************************************************************************************************
 DATASETS  * FILE   NREC   LENGTH (MB)   RECORD NAMES
              1      18        5.04       500      610      700      900      950      970     1000      129      960     1100   
                                          VAR    BASINP    GEOM    SYMINP    ZMAT    AOBASIS   BASIS     P2S    ABASIS      S 
                                         1400     1410     1200     1210     1080     1600     1650     1700   
                                           T        V       H0       H01     AOSYM     SMH    MOLCAS    OPER   

 PROGRAMS   *        TOTAL       INT
 CPU TIMES  *        17.26     17.21
 REAL TIME  *        19.96 SEC
 DISK USED  *         9.10 GB      
 GA USED    *         0.01 MB       (max)       0.00 MB       (current)
 **********************************************************************************************************************************

1PROGRAM * RHF-SCF (OPEN SHELL)       Authors: W. Meyer, H.-J. Werner


 NUMBER OF ELECTRONS:      21+   20-    SPACE SYMMETRY=1    SPIN SYMMETRY: Doublet 
 CONVERGENCE THRESHOLDS:    1.00E-10 (Density)    1.00E-11 (Energy)
 MAX. NUMBER OF ITERATIONS:      200
 INTERPOLATION TYPE:            DIIS
 INTERPOLATION STEPS:              2 (START)      1 (STEP)
 LEVEL SHIFTS:                 -0.30 (CLOSED)  0.00 (OPEN) 



 Orbital guess generated from atomic densities. Full valence occupancy:   32

 Molecular orbital dump at record        2100.2

 ITERATION    DDIFF          GRAD             ENERGY        2-EL.EN.            DIPOLE MOMENTS         DIIS
    1      0.000D+00      0.000D+00      -267.26104794    559.800791   -1.77447   -0.06821   -0.09692    0
    2      0.000D+00      0.326D-02      -267.33461281    562.648915   -1.01535   -0.43100   -0.35899    1
    3      0.471D-02      0.230D-02      -267.36115586    561.601928   -1.18888   -0.24256   -0.21664    2
    4      0.211D-02      0.546D-03      -267.36939619    561.788670   -0.97748   -0.31565   -0.29765    3
    5      0.926D-03      0.485D-03      -267.37362088    561.831102   -0.92194   -0.31781   -0.30188    4
    6      0.583D-03      0.272D-03      -267.37554560    561.798303   -0.88066   -0.31123   -0.29979    5
    7      0.485D-03      0.133D-03      -267.37588193    561.784136   -0.89059   -0.29967   -0.29169    6
    8      0.258D-03      0.356D-04      -267.37590380    561.781411   -0.89018   -0.29641   -0.29020    7
    9      0.847D-04      0.189D-04      -267.37591472    561.781635   -0.89270   -0.29694   -0.29025    8
   10      0.448D-04      0.821D-05      -267.37591653    561.781534   -0.89387   -0.29631   -0.28996    9
   11      0.199D-04      0.321D-05      -267.37591678    561.781480   -0.89450   -0.29615   -0.28979    9
   12      0.785D-05      0.148D-05      -267.37591684    561.781705   -0.89464   -0.29625   -0.28984    9
   13      0.370D-05      0.526D-06      -267.37591685    561.781757   -0.89466   -0.29631   -0.28987    9
   14      0.148D-05      0.297D-06      -267.37591685    561.781756   -0.89464   -0.29632   -0.28987    9
   15      0.808D-06      0.144D-06      -267.37591685    561.781763   -0.89464   -0.29633   -0.28987    9
   16      0.406D-06      0.712D-07      -267.37591685    561.781766   -0.89464   -0.29633   -0.28987    9
   17      0.164D-06      0.318D-07      -267.37591685    561.781761   -0.89463   -0.29633   -0.28987    9
   18      0.974D-07      0.170D-07      -267.37591685    561.781758   -0.89463   -0.29633   -0.28987    9
   19      0.485D-07      0.722D-08      -267.37591685    561.781760   -0.89463   -0.29633   -0.28987    9
   20      0.193D-07      0.277D-08      -267.37591685    561.781759   -0.89463   -0.29633   -0.28987    9
   21      0.899D-08      0.191D-08      -267.37591685    561.781759   -0.89463   -0.29633   -0.28987    9
   22      0.685D-08      0.149D-08      -267.37591685    561.781759   -0.89463   -0.29633   -0.28987    9
   23      0.696D-08      0.117D-08      -267.37591685    561.781759   -0.89463   -0.29633   -0.28987    9
   24      0.787D-08      0.993D-09      -267.37591685    561.781759   -0.89463   -0.29633   -0.28987    9
   25      0.124D-07      0.727D-09      -267.37591685    561.781759   -0.89463   -0.29633   -0.28987    9
   26      0.153D-07      0.381D-09      -267.37591685    561.781759   -0.89463   -0.29633   -0.28987    9
   27      0.841D-08      0.193D-09      -267.37591685    561.781759   -0.89463   -0.29633   -0.28987    9
   28      0.285D-08      0.876D-10      -267.37591685    561.781759   -0.89463   -0.29633   -0.28987    9
   29      0.895D-09      0.402D-10      -267.37591685    561.781759   -0.89463   -0.29633   -0.28987    9
   30      0.159D-09      0.183D-10      -267.37591685    561.781759   -0.89463   -0.29633   -0.28987    9
   31      0.620D-10      0.122D-10      -267.37591685    561.781759   -0.89463   -0.29633   -0.28987    0

 Final alpha occupancy:  21
 Final beta  occupancy:  20

 !RHF STATE 1.1 Energy               -267.375916852072
 Nuclear energy                       186.62727604
 One-electron energy                 -734.89407262
 Two-electron energy                  280.89087973
 Virial quotient                       -1.00116691
 !RHF STATE 1.1 Dipole moment          -0.89463238    -0.29632846    -0.28987266
 Dipole moment /Debye                  -2.27377976    -0.75314249    -0.73673456

 Orbital energies:

         1.1          2.1          3.1          4.1          5.1          6.1          7.1          8.1          9.1         10.1
    -20.648687   -20.640383   -11.297461   -11.229097   -11.225460    -1.523549    -1.170870    -1.034548    -0.952870    -0.819450

        11.1         12.1         13.1         14.1         15.1         16.1         17.1         18.1         19.1         20.1
     -0.695244    -0.668004    -0.652499    -0.595351    -0.562853    -0.557703    -0.544445    -0.501301    -0.489710    -0.465220

        21.1         22.1         23.1
     -0.562902     0.137661     0.174792


 **********************************************************************************************************************************
 DATASETS  * FILE   NREC   LENGTH (MB)   RECORD NAMES
              1      18        5.04       500      610      700      900      950      970     1000      129      960     1100   
                                          VAR    BASINP    GEOM    SYMINP    ZMAT    AOBASIS   BASIS     P2S    ABASIS      S 
                                         1400     1410     1200     1210     1080     1600     1650     1700   
                                           T        V       H0       H01     AOSYM     SMH    MOLCAS    OPER   

              2       3        2.21       700     1000     2100   
                                         GEOM     BASIS     RHF  

 PROGRAMS   *        TOTAL       RHF       INT
 CPU TIMES  *        66.49     49.22     17.21
 REAL TIME  *        72.48 SEC
 DISK USED  *         9.14 GB      
 SF USED    *         0.25 MB      
 GA USED    *         0.01 MB       (max)       0.00 MB       (current)
 **********************************************************************************************************************************


1PROGRAM * CCSD (Unrestricted open-shell coupled cluster)     Authors: C. Hampel, H.-J. Werner, 1991, M. Deegan, P.J. Knowles, 1992


 Convergence thresholds:  THRVAR = 1.00D-08  THRDEN = 1.00D-10

 CCSD(T)     terms to be evaluated (factor= 1.000)


 Number of core orbitals:           5 (   5 )
 Number of closed-shell orbitals:  15 (  15 )
 Number of active  orbitals:        1 (   1 )
 Number of external orbitals:     227 ( 227 )

 Memory could be reduced to 332.02 Mwords without degradation in triples

 Number of N-1 electron functions:              31
 Number of N-2 electron functions:             465
 Number of singly external CSFs:              7068
 Number of doubly external CSFs:          18353430
 Total number of CSFs:                    18360498

 Molecular orbitals read from record     2100.2  Type=RHF/CANONICAL (state 1.1)

 Integral transformation finished. Total CPU:  19.98 sec, npass=  1  Memory used: 145.25 MW

 Starting RMP2 calculation

 ITER.      SQ.NORM     CORR.ENERGY   TOTAL ENERGY   ENERGY CHANGE        DEN1      VAR(S)    VAR(P)  DIIS     TIME
   1      1.26537413    -0.96761598  -268.34353283    -0.96761598    -0.00323692  0.26D-04  0.11D-02  1  1    23.33
   2      1.26815959    -0.97110616  -268.34702301    -0.00349018    -0.00000666  0.10D-05  0.23D-05  2  2    25.90
   3      1.26823955    -0.97115907  -268.34707592    -0.00005291    -0.00000008  0.54D-07  0.11D-07  3  3    28.64
   4      1.26824125    -0.97115888  -268.34707573     0.00000019    -0.00000000  0.16D-08  0.12D-09  4  4    31.51
   5      1.26824151    -0.97115896  -268.34707582    -0.00000009    -0.00000000  0.19D-10  0.46D-11  5  5    34.51
   6      1.26824157    -0.97115900  -268.34707585    -0.00000003    -0.00000000  0.50D-13  0.56D-13  6  6    37.67
   7      1.26824157    -0.97115900  -268.34707585     0.00000000    -0.00000000  0.15D-14  0.85D-15  6  1    40.83
   8      1.26824157    -0.97115900  -268.34707585     0.00000000    -0.00000000  0.16D-16  0.79D-17  6  2    44.05
   9      1.26824157    -0.97115900  -268.34707585    -0.00000000    -0.00000000  0.31D-18  0.10D-18  6  3    47.21

 Norm of t1 vector:      0.04589324      S-energy:    -0.00446772      T1 diagnostic:  0.00074408
 Norm of t2 vector:      0.51588311      P-energy:    -0.96669128
                                         Alpha-Beta:  -0.73709090
                                         Alpha-Alpha: -0.11899084
                                         Beta-Beta:   -0.11060954

 Spin contamination <S**2-Sz**2-Sz>     0.00145415
  Reference energy                   -267.375916852074
  RHF-RMP2 correlation energy          -0.971158997030
 !RHF-RMP2 energy                    -268.347075849104

 Starting UCCSD calculation

 ITER.      SQ.NORM     CORR.ENERGY   TOTAL ENERGY   ENERGY CHANGE        DEN1      VAR(S)    VAR(P)  DIIS     TIME
   1      1.27984543    -0.97927356  -268.35519041    -0.97927356    -0.02933305  0.65D-02  0.54D-02  1  1   128.77
   2      1.30625207    -1.00589928  -268.38181614    -0.02662572    -0.00363515  0.62D-03  0.97D-03  2  2   204.02
   3      1.32290351    -1.01272357  -268.38864042    -0.00682429    -0.00091223  0.75D-03  0.76D-04  3  3   279.38
   4      1.33414371    -1.01538286  -268.39129971    -0.00265929    -0.00038531  0.31D-03  0.33D-04  4  4   354.85
   5      1.34922220    -1.01738044  -268.39329729    -0.00199758    -0.00011801  0.10D-03  0.90D-05  5  5   430.56
   6      1.36075980    -1.01840379  -268.39432064    -0.00102335    -0.00001814  0.93D-05  0.32D-05  6  6   506.25
   7      1.36445339    -1.01864456  -268.39456141    -0.00024077    -0.00000316  0.16D-05  0.61D-06  6  1   581.95
   8      1.36505822    -1.01868674  -268.39460359    -0.00004218    -0.00000067  0.27D-06  0.15D-06  6  2   665.29
   9      1.36537929    -1.01870523  -268.39462208    -0.00001850    -0.00000015  0.66D-07  0.32D-07  6  4   755.54
  10      1.36536563    -1.01870395  -268.39462080     0.00000128    -0.00000002  0.11D-07  0.43D-08  6  3   831.30
  11      1.36542822    -1.01870905  -268.39462590    -0.00000510    -0.00000000  0.24D-08  0.94D-09  6  5   907.00
  12      1.36542070    -1.01870656  -268.39462341     0.00000249    -0.00000000  0.10D-08  0.21D-09  6  6   982.75
  13      1.36541632    -1.01870541  -268.39462226     0.00000115    -0.00000000  0.63D-09  0.56D-10  6  1  1058.20
  14      1.36540352    -1.01870392  -268.39462077     0.00000149    -0.00000000  0.42D-09  0.22D-10  6  2  1133.89
  15      1.36539757    -1.01870320  -268.39462005     0.00000071    -0.00000000  0.34D-09  0.17D-10  6  3  1209.62
  16      1.36539459    -1.01870304  -268.39461989     0.00000016    -0.00000000  0.25D-09  0.13D-10  6  4  1285.24
  17      1.36539397    -1.01870305  -268.39461990    -0.00000001    -0.00000000  0.13D-09  0.13D-10  6  5  1360.78
  18      1.36539663    -1.01870322  -268.39462007    -0.00000017    -0.00000000  0.28D-10  0.55D-11  6  6  1436.34
  19      1.36539978    -1.01870354  -268.39462039    -0.00000032    -0.00000000  0.26D-11  0.17D-11  6  2  1511.85
  20      1.36539922    -1.01870340  -268.39462026     0.00000013    -0.00000000  0.62D-12  0.17D-12  6  1  1587.32
  21      1.36539952    -1.01870345  -268.39462030    -0.00000004    -0.00000000  0.21D-12  0.60D-13  6  4  1662.90
  22      1.36539943    -1.01870344  -268.39462029     0.00000001    -0.00000000  0.74D-13  0.19D-13  6  2  1738.45
  23      1.36539952    -1.01870345  -268.39462030    -0.00000001    -0.00000000  0.21D-13  0.39D-14  6  3  1813.97
  24      1.36539946    -1.01870344  -268.39462029     0.00000001    -0.00000000  0.23D-14  0.72D-15  6  5  1889.32
  25      1.36539944    -1.01870344  -268.39462029     0.00000000    -0.00000000  0.64D-15  0.20D-15  6  6  1964.85
  26      1.36539943    -1.01870344  -268.39462029     0.00000000    -0.00000000  0.30D-15  0.73D-16  6  1  2040.25
  27      1.36539944    -1.01870344  -268.39462029    -0.00000000    -0.00000000  0.17D-15  0.16D-16  6  4  2115.70
  28      1.36539944    -1.01870344  -268.39462029    -0.00000000    -0.00000000  0.13D-15  0.74D-17  6  2  2191.29
  29      1.36539944    -1.01870344  -268.39462029    -0.00000000    -0.00000000  0.98D-16  0.52D-17  6  3  2266.98
  30      1.36539944    -1.01870344  -268.39462029     0.00000000    -0.00000000  0.58D-16  0.47D-17  6  5  2342.65

 Norm of t1 vector:      0.23123819      S-energy:    -0.00501509      T1 diagnostic:  0.02849452
                                                                       D1 diagnostic:  0.14603036
 Norm of t2 vector:      0.55850545      P-energy:    -1.01368835
                                         Alpha-Beta:  -0.80138610
                                         Alpha-Alpha: -0.10868327
                                         Beta-Beta:   -0.10361897

 Singles amplitudes (print threshold =  0.500E-01):

         I         SYM. A    A   T(IA) [Beta-Beta]

         8         1         1     -0.09611461
         9         1         1      0.09935444
        11         1         1     -0.05399815
        12         1         1     -0.07478164
        14         1         1     -0.11158085

 Spin contamination <S**2-Sz**2-Sz>     0.00176101

 Memory could be reduced to 360.52 Mwords without degradation in triples
 

 RESULTS
 =======

  Reference energy                   -267.375916852074
  UCCSD singles energy                 -0.005015090026
  UCCSD pair energy                    -1.013688347844
  UCCSD correlation energy             -1.018703437870
  Triples (T) contribution             -0.040836691878
  Total correlation energy             -1.059540129748
 
  RHF-UCCSD energy                   -268.394620289944
  RHF-UCCSD[T] energy                -268.438779544699
  RHF-UCCSD-T energy                 -268.434959378611
 !RHF-UCCSD(T) energy                -268.435456981822

 Program statistics:

 Available memory in ccsd:               999997692
 Min. memory needed in ccsd:              51505734
 Max. memory used in ccsd:                74803578
 Max. memory used in cckext:              59475747 (30 integral passes)
 Max. memory used in cckint:             145249478 ( 1 integral passes)



 **********************************************************************************************************************************
 DATASETS  * FILE   NREC   LENGTH (MB)   RECORD NAMES
              1      18        5.04       500      610      700      900      950      970     1000      129      960     1100   
                                          VAR    BASINP    GEOM    SYMINP    ZMAT    AOBASIS   BASIS     P2S    ABASIS      S 
                                         1400     1410     1200     1210     1080     1600     1650     1700   
                                           T        V       H0       H01     AOSYM     SMH    MOLCAS    OPER   

              2       3        2.21       700     1000     2100   
                                         GEOM     BASIS     RHF  

 PROGRAMS   *        TOTAL  UCCSD(T)       RHF       INT
 CPU TIMES  *      3816.18   3749.70     49.22     17.21
 REAL TIME  *      3904.05 SEC
 DISK USED  *        16.12 GB      
 SF USED    *         6.57 GB      
 GA USED    *         0.01 MB       (max)       0.00 MB       (current)
 **********************************************************************************************************************************

        UCCSD(T)        RHF-SCF 
   -268.43545698   -267.37591685
 **********************************************************************************************************************************
 Variable memory released
