
 Primary working directories    : /tmp/795519.41.gen6.q
 Secondary working directories  : /tmp/795519.41.gen6.q
 Wavefunction directory         : /home/vulcan/mel64643/wfu/
 Main file repository           : /tmp/795519.41.gen6.q/

 ARCHNAME  : Linux/x86_64
 FC        : /opt/intel/compilers_and_libraries_2016.1.150/linux/bin/intel64/ifort
 FCVERSION : 16.0.1
 BLASLIB   : -mkl
 id        : ccgc

 Nodes     nprocs
 n091         1
 ga_uses_ma=false, calling ma_init with nominal heap.
 GA-space will be limited to   8.0 MW (determined by -G option)

 Using customized tuning parameters: mindgm=10; mindgv=16; mindgc=4; mindgr=1; noblas=0; mincuda=1000; minvec=7
 default implementation of scratch files=df  

 ***,Optimization of min3
 memory,1000,m
 gthresh,energy=1.0d-12,orbital=1.0d-10,oneint=1.0d-16,twoint=1.0d-16,optgrad=1.0d-6,compress=1.0d-13
 geomtyp=xyz
 
  bohr
  geometry = {
  6
  arbitrary comment
  C   -1.3733184139   -0.0235051580    0.0000071168
  O    1.3042585196    0.1199468535   -0.0000019689
  H   -2.0789776839    1.9045204817   -0.0000820097
  H   -2.1089237486   -0.9765061557    1.6768053446
  H   -2.1089161703   -0.9766352094   -1.6767360717
  H    1.9421533371   -1.5779529322   -0.0000008210
 }
 
 basis=cc-pvdz
 {rhf;maxit,200}
 {ccsd(t);maxit,200}

 Variables initialized (661), CPU time= 0.00 sec
 Commands  initialized (458), CPU time= 0.01 sec, 486 directives.
 Default parameters read. Elapsed time= 0.04 sec

 Checking input...
 Passed
1


                                         ***  PROGRAM SYSTEM MOLPRO  ***
                         Copyright, University College Cardiff Consultants Limited, 2008

                                    Version 2010.1 linked May 16 2016 07:17:05


 **********************************************************************************************************************************
 LABEL *   Optimization of min3                                                          
 Linux-4.4.3/n091(x86_64) 64 bit mpp version                                             DATE: 24-Oct-22          TIME: 15:41:35  
 **********************************************************************************************************************************

 SHA1:             9e8077add272b0f3cad6f7df79ec5211205f459d
 **********************************************************************************************************************************

 THRESHOLDS:

 ZERO    =  1.00D-12  ONEINT  =  1.00D-16  TWOINT  =  1.00D-16  PREFAC  =  1.00D-14  LOCALI  =  1.00D-09  EORDER  =  1.00D-04
 ENERGY  =  1.00D-12  ETEST   =  0.00D+00  EDENS   =  0.00D+00  THRDEDEF=  1.00D-06  GRADIENT=  1.00D-02  STEP    =  1.00D-03
 ORBITAL =  1.00D-10  CIVEC   =  1.00D-05  COEFF   =  1.00D-04  PRINTCI =  5.00D-02  PUNCHCI =  9.90D+01  OPTGRAD =  1.00D-06
 OPTENERG=  1.00D-06  OPTSTEP =  3.00D-04  THRGRAD =  1.00D-10  COMPRESS=  1.00D-13  VARMIN  =  1.00D-07  VARMAX  =  1.00D-03
 THRDOUB =  0.00D+00  THRDIV  =  1.00D-05  THRRED  =  1.00D-07  THRPSP  =  1.00D+00  THRDC   =  1.00D-10  THRCS   =  1.00D-10
 THRNRM  =  1.00D-08  THREQ   =  0.00D+00  THRDE   =  1.00D+00  THRREF  =  1.00D-05  SPARFAC =  1.00D+00  THRDLP  =  1.00D-07
 THRDIA  =  1.00D-10  THRDLS  =  1.00D-07  THRGPS  =  0.00D+00  THRKEX  =  0.00D+00  THRDIS  =  2.00D-01  THRVAR  =  1.00D-10
 THRLOC  =  1.00D-06  THRGAP  =  1.00D-06  THRLOCT = -1.00D+00  THRGAPT = -1.00D+00  THRORB  =  1.00D-06  THRMLTP =  0.00D+00
 THRCPQCI=  1.00D-10  KEXTA   =  0.00D+00  THRCOARS=  0.00D+00  SYMTOL  =  1.00D-06  GRADTOL =  1.00D-06  THROVL  =  1.00D-08
 THRORTH =  1.00D-08  GRID    =  1.00D-06  GRIDMAX =  1.00D-03  DTMAX   =  0.00D+00

 SETTING GEOMTYP        =    XYZ
 ZUNIT=BOHR
 

 Variable memory set to 1000000000 words,  buffer space   230000 words

 SETTING BASIS          =    CC-PVDZ


 Recomputing integrals since basis changed


 Using spherical harmonics

 Library entry C      S cc-pVDZ              selected for orbital group  1
 Library entry C      P cc-pVDZ              selected for orbital group  1
 Library entry C      D cc-pVDZ              selected for orbital group  1
 Library entry O      S cc-pVDZ              selected for orbital group  2
 Library entry O      P cc-pVDZ              selected for orbital group  2
 Library entry O      D cc-pVDZ              selected for orbital group  2
 Library entry H      S cc-pVDZ              selected for orbital group  3
 Library entry H      P cc-pVDZ              selected for orbital group  3

1PROGRAM * SEWARD (Integral evaluation for generally contracted gaussian basis sets)     Author: Roland Lindh, 1990

 Geometry written to block  1 of record 700


 Point group  C1  



 ATOMIC COORDINATES

 NR  ATOM    CHARGE       X              Y              Z

   1  C       6.00   -1.373318414   -0.023505158    0.000007117
   2  O       8.00    1.304258520    0.119946854   -0.000001969
   3  H       1.00   -2.078977684    1.904520482   -0.000082010
   4  H       1.00   -2.108923749   -0.976506156    1.676805345
   5  H       1.00   -2.108916170   -0.976635209   -1.676736072
   6  H       1.00    1.942153337   -1.577952932   -0.000000821

 Bond lengths in Bohr (Angstrom)

 1-2  2.681416923  1-3  2.053104450  1-4  2.064213750  1-5  2.064225926  2-6  1.813773272
     ( 1.418944723)     ( 1.086456082)     ( 1.092334871)     ( 1.092341314)     ( 0.959807478)

 Bond angles

  1-2-6  107.52431094   2-1-3  107.03596799   2-1-4  112.36791227   2-1-5  112.36741222

  3-1-4  108.12577359   3-1-5  108.12502677   4-1-5  108.64299009

 NUCLEAR CHARGE:                   18
 NUMBER OF PRIMITIVE AOS:          82
 NUMBER OF SYMMETRY AOS:           80
 NUMBER OF CONTRACTIONS:           48   (  48A   )
 NUMBER OF CORE ORBITALS:           2   (   2A   )
 NUMBER OF VALENCE ORBITALS:       12   (  12A   )


 NUCLEAR REPULSION ENERGY   40.35820966


 Eigenvalues of metric

         1 0.965E-02 0.176E-01 0.366E-01 0.371E-01 0.380E-01 0.472E-01 0.473E-01 0.515E-01


 Contracted 2-electron integrals neglected if value below      1.0D-16
 AO integral compression algorithm  1   Integral accuracy      1.0D-16

     6.554 MB (compressed) written to integral file ( 95.5%)

     Node minimum: 6.554 MB, node maximum: 6.554 MB


 NUMBER OF SORTED TWO-ELECTRON INTEGRALS:     692076.     BUFFER LENGTH:  32768
 NUMBER OF SEGMENTS:   1  SEGMENT LENGTH:     692076      RECORD LENGTH: 524288

 Memory used in sort:       1.25 MW

 SORT1 READ      832256. AND WROTE      682150. INTEGRALS IN      2 RECORDS. CPU TIME:     0.01 SEC, REAL TIME:     0.01 SEC
 SORT2 READ      682150. AND WROTE      692076. INTEGRALS IN     25 RECORDS. CPU TIME:     0.01 SEC, REAL TIME:     0.02 SEC

 FILE SIZES:   FILE 1:     8.0 MBYTE,  FILE 4:     8.4 MBYTE,   TOTAL:     16.4 MBYTE

 OPERATOR DM      FOR CENTER  0  COORDINATES:    0.000000    0.000000    0.000000


 **********************************************************************************************************************************
 DATASETS  * FILE   NREC   LENGTH (MB)   RECORD NAMES
              1      19        8.05       500      610      700      900      950      970     1000      129      960     1100   
                                          VAR    BASINP    GEOM    SYMINP    ZMAT    AOBASIS   BASIS     P2S    ABASIS      S 
                                         1400     1410     1200     1210     1080     1600     1650     1300     1700   
                                           T        V       H0       H01     AOSYM     SMH    MOLCAS    ERIS     OPER   

 PROGRAMS   *        TOTAL       INT
 CPU TIMES  *         0.17      0.13
 REAL TIME  *         0.38 SEC
 DISK USED  *        23.63 MB      
 GA USED    *         0.00 MB       (max)       0.00 MB       (current)
 **********************************************************************************************************************************

1PROGRAM * RHF-SCF (CLOSED SHELL)       Authors: W. Meyer, H.-J. Werner


 NUMBER OF ELECTRONS:       9+    9-    SPACE SYMMETRY=1    SPIN SYMMETRY: Singlet 
 CONVERGENCE THRESHOLDS:    1.00E-10 (Density)    1.00E-13 (Energy)
 MAX. NUMBER OF ITERATIONS:      200
 INTERPOLATION TYPE:            DIIS
 INTERPOLATION STEPS:              2 (START)      1 (STEP)
 LEVEL SHIFTS:                  0.00 (CLOSED)  0.00 (OPEN) 



 Orbital guess generated from atomic densities. Full valence occupancy:   14

 Molecular orbital dump at record        2100.2

 ITERATION    DDIFF          GRAD             ENERGY        2-EL.EN.            DIPOLE MOMENTS         DIIS
    1      0.000D+00      0.000D+00      -115.01433611    164.486263   -0.49033   -0.90043   -0.00000    0
    2      0.000D+00      0.109D-01      -115.04267763    162.261843   -0.31461   -0.53596    0.00000    1
    3      0.205D-01      0.528D-02      -115.04866021    163.288059   -0.39770   -0.61082    0.00000    2
    4      0.637D-02      0.112D-02      -115.04912392    163.131330   -0.38779   -0.59962    0.00000    3
    5      0.204D-02      0.202D-03      -115.04914491    163.137594   -0.39068   -0.59532    0.00000    4
    6      0.432D-03      0.355D-04      -115.04914571    163.137882   -0.39101   -0.59511    0.00000    5
    7      0.932D-04      0.749D-05      -115.04914574    163.136647   -0.39115   -0.59494    0.00000    6
    8      0.151D-04      0.242D-05      -115.04914574    163.137030   -0.39119   -0.59491    0.00000    7
    9      0.518D-05      0.493D-06      -115.04914574    163.136991   -0.39120   -0.59491    0.00000    6
   10      0.142D-05      0.892D-07      -115.04914574    163.136990   -0.39121   -0.59491    0.00000    6
   11      0.239D-06      0.332D-07      -115.04914574    163.136995   -0.39121   -0.59491    0.00000    6
   12      0.601D-07      0.140D-07      -115.04914574    163.136993   -0.39121   -0.59491    0.00000    7
   13      0.261D-07      0.308D-08      -115.04914574    163.136993   -0.39121   -0.59491    0.00000    7
   14      0.766D-08      0.649D-09      -115.04914574    163.136993   -0.39121   -0.59491    0.00000    7
   15      0.165D-08      0.150D-09      -115.04914574    163.136993   -0.39121   -0.59491    0.00000    7
   16      0.335D-09      0.455D-10      -115.04914574    163.136993   -0.39121   -0.59491    0.00000    7
   17      0.869D-10      0.150D-10      -115.04914574    163.136993   -0.39121   -0.59491    0.00000    0

 Final occupancy:   9

 !RHF STATE 1.1 Energy               -115.049145742532
 Nuclear energy                        40.35820966
 One-electron energy                 -236.97585213
 Two-electron energy                   81.56849673
 Virial quotient                       -1.00081437
 !RHF STATE 1.1 Dipole moment          -0.39120667    -0.59491328     0.00000207
 Dipole moment /Debye                  -0.99428306    -1.51201970     0.00000527

 Orbital energies:

         1.1          2.1          3.1          4.1          5.1          6.1          7.1          8.1          9.1         10.1
    -20.549894   -11.273699    -1.350347    -0.922088    -0.683325    -0.614195    -0.585754    -0.497080    -0.443046     0.184727

        11.1
      0.224412


 **********************************************************************************************************************************
 DATASETS  * FILE   NREC   LENGTH (MB)   RECORD NAMES
              1      19        8.05       500      610      700      900      950      970     1000      129      960     1100   
                                          VAR    BASINP    GEOM    SYMINP    ZMAT    AOBASIS   BASIS     P2S    ABASIS      S 
                                         1400     1410     1200     1210     1080     1600     1650     1300     1700   
                                           T        V       H0       H01     AOSYM     SMH    MOLCAS    ERIS     OPER   

              2       3        0.39       700     1000     2100   
                                         GEOM     BASIS     RHF  

 PROGRAMS   *        TOTAL       RHF       INT
 CPU TIMES  *         0.24      0.07      0.13
 REAL TIME  *         0.47 SEC
 DISK USED  *        23.63 MB      
 GA USED    *         0.00 MB       (max)       0.00 MB       (current)
 **********************************************************************************************************************************


1PROGRAM * CCSD (Closed-shell coupled cluster)     Authors: C. Hampel, H.-J. Werner, 1991, M. Deegan, P.J. Knowles, 1992


 Convergence thresholds:  THRVAR = 1.00D-08  THRDEN = 1.00D-12

 CCSD(T)     terms to be evaluated (factor= 1.000)


 Number of core orbitals:           2 (   2 )
 Number of closed-shell orbitals:   7 (   7 )
 Number of external orbitals:      39 (  39 )

 Molecular orbitals read from record     2100.2  Type=RHF/CANONICAL (state 1.1)

 Number of N-1 electron functions:               7
 Number of N-2 electron functions:              28
 Number of singly external CSFs:               273
 Number of doubly external CSFs:             37401
 Total number of CSFs:                       37675

 Length of J-op  integral file:               0.00 MB
 Length of K-op  integral file:               0.19 MB
 Length of 3-ext integral record:             0.00 MB

 Memory could be reduced to 0.96 Mwords without degradation in triples

 Integral transformation finished. Total CPU:   0.01 sec, npass=  1  Memory used:   0.66 MW

 Reference energy:                   -115.04914574

 MP2 singlet pair energy:              -0.21851313
 MP2 triplet pair energy:              -0.11982291
 MP2 correlation energy:               -0.33833604
 MP2 total energy:                   -115.38748178

 SCS-MP2 correlation energy:           -0.33677223   (PS=  1.200000  PT=  0.333333)
 SCS-MP2 total energy:               -115.38591797

 ITER.      SQ.NORM     CORR.ENERGY   TOTAL ENERGY   ENERGY CHANGE        DEN1      VAR(S)    VAR(P)  DIIS     TIME
   1      1.10714781    -0.36112084  -115.41026658    -0.02278480    -0.01412778  0.91D-03  0.17D-02  1  1     0.05
   2      1.11563657    -0.36305897  -115.41220472    -0.00193814    -0.00922877  0.20D-04  0.16D-03  2  2     0.08
   3      1.11750260    -0.36318499  -115.41233073    -0.00012601    -0.00119651  0.94D-05  0.85D-05  3  3     0.11
   4      1.11801323    -0.36318362  -115.41232936     0.00000137    -0.00025313  0.33D-06  0.67D-06  4  4     0.15
   5      1.11811041    -0.36318401  -115.41232975    -0.00000039    -0.00003576  0.99D-07  0.48D-07  5  5     0.18
   6      1.11812928    -0.36318266  -115.41232840     0.00000135    -0.00000432  0.16D-07  0.40D-08  6  6     0.21
   7      1.11813402    -0.36318224  -115.41232798     0.00000041    -0.00000035  0.20D-08  0.71D-09  6  1     0.24
   8      1.11813528    -0.36318234  -115.41232809    -0.00000010     0.00000075  0.25D-09  0.72D-10  6  3     0.27
   9      1.11813634    -0.36318222  -115.41232796     0.00000012    -0.00000038  0.13D-10  0.10D-10  6  2     0.30
  10      1.11813639    -0.36318222  -115.41232796     0.00000000     0.00000000  0.13D-11  0.12D-11  6  4     0.34
  11      1.11813635    -0.36318222  -115.41232796     0.00000000     0.00000003  0.33D-12  0.83D-13  6  5     0.37
  12      1.11813630    -0.36318222  -115.41232797    -0.00000000     0.00000003  0.32D-13  0.13D-13  6  6     0.40
  13      1.11813628    -0.36318222  -115.41232797    -0.00000000     0.00000001  0.37D-14  0.15D-14  6  3     0.44
  14      1.11813628    -0.36318222  -115.41232797    -0.00000000     0.00000000  0.28D-15  0.14D-15  6  1     0.47
  15      1.11813628    -0.36318222  -115.41232797     0.00000000    -0.00000000  0.35D-16  0.31D-16  6  2     0.50
  16      1.11813628    -0.36318222  -115.41232797     0.00000000    -0.00000000  0.30D-17  0.16D-17  6  5     0.54
  17      1.11813628    -0.36318222  -115.41232797    -0.00000000     0.00000000  0.13D-18  0.12D-18  6  4     0.57
  18      1.11813628    -0.36318222  -115.41232797     0.00000000    -0.00000000  0.26D-19  0.12D-19  6  3     0.60
  19      1.11813628    -0.36318222  -115.41232797     0.00000000    -0.00000000  0.25D-20  0.10D-20  6  6     0.63

 Norm of t1 vector:      0.04156399      S-energy:    -0.00000000      T1 diagnostic:  0.00785486
                                                                       D1 diagnostic:  0.01743697


 Total CPU time for triples:      0.17 sec


 RESULTS
 =======

  Reference energy                   -115.049145742532
  CCSD singlet pair energy             -0.254408895368
  CCSD triplet pair energy             -0.108773328340
  CCSD correlation energy              -0.363182223710

  Triples (T) contribution             -0.007718587671
  Total correlation energy             -0.370900811380

  CCSD total energy                  -115.412327966242
  CCSD[T] energy                     -115.420334698533
  CCSD-T energy                      -115.419897580295
 !CCSD(T) total energy               -115.420046553912

 Timing summary (sec):

 STEP                 CPU(USER)    SYS     CPU(TOT)    WALL
 Transformation          0.01      0.00      0.01      0.02
 CCSD iterations         0.62      0.05      0.67      0.68
 Triples                 0.17      0.00      0.17      0.17

 Program statistics:

 Available memory in ccsd:               999999704
 Min. memory needed in ccsd:                136801
 Max. memory used in ccsd:                  163198
 Max. memory used in cckext:                182024 (19 integral passes)



 **********************************************************************************************************************************
 DATASETS  * FILE   NREC   LENGTH (MB)   RECORD NAMES
              1      20       10.59       500      610      700      900      950      970     1000      129      960     1100   
                                          VAR    BASINP    GEOM    SYMINP    ZMAT    AOBASIS   BASIS     P2S    ABASIS      S 
                                         1400     1410     1200     1210     1080     1600     1650     1300     1700     1380   
                                           T        V       H0       H01     AOSYM     SMH    MOLCAS    ERIS     OPER     JKOP   

              2       3        0.39       700     1000     2100   
                                         GEOM     BASIS     RHF  

 PROGRAMS   *        TOTAL   CCSD(T)       RHF       INT
 CPU TIMES  *         1.05      0.81      0.07      0.13
 REAL TIME  *         1.36 SEC
 DISK USED  *        25.05 MB      
 GA USED    *         0.00 MB       (max)       0.00 MB       (current)
 **********************************************************************************************************************************

        CCSD(T)         RHF-SCF 
   -115.42004655   -115.04914574
 **********************************************************************************************************************************
 Variable memory released
