
 Working directory              : /scratch/mel64643/tmp/40073466/
 Global scratch directory       : /scratch/mel64643/tmp/40073466/
 Wavefunction directory         : /home/mel64643/wfu/
 Main file repository           : /scratch/mel64643/tmp/40073466/

 id        : ccgc

 Nodes     nprocs
 a1-8         3
 Distribution of processes:   nprocs(total)=    4   nprocs(compute)=    3   nprocs(helper)=    1
 GA implementation: MPI file
 GA implementation (serial work in mppx): MPI file

 Using customized tuning parameters: mindgm=1; mindgv=20; mindgc=4; mindgr=1; noblas=0; minvec=7
 default implementation of scratch files=sf  


 Variables initialized (1015), CPU time= 0.01 sec
 ***,Optimization of min3
 memory,1000,m
 gthresh,energy=1.0d-12,orbital=1.0d-10,oneint=1.0d-16,twoint=1.0d-16,optgrad=1.0d-6,compress=1.0d-13
 geomtyp=xyz
 
  bohr
  geometry = {
  6
  arbitrary comment
  C   -1.3732893462   -0.0242355883    0.0017503682
  O    1.3091081532    0.1217714494   -0.0034725297
  H   -2.0779241902    1.9197738561    0.0034953487
  H   -2.1241094437   -0.9811770062    1.6949298164
  H   -2.0967876047   -0.9892882933   -1.6879505184
  H    1.9392782716   -1.5769765378   -0.0087608952
 }
 
 basis=cc-pvdz
 {rhf;maxit,200}
 {ccsd(t);maxit,200}
 Commands initialized (818), CPU time= 0.01 sec, 672 directives.
 Default parameters read. Elapsed time= 0.10 sec

 Checking input...
 Passed
1


                                         ***  PROGRAM SYSTEM MOLPRO  ***
                                       Copyright, TTI GmbH Stuttgart, 2015
                                    Version 2022.1 linked Mar  4 2022 00:40:14


 **********************************************************************************************************************************
 LABEL *   Optimization of min3                                                          
  64 bit mpp version                                                                     DATE: 07-Aug-25          TIME: 21:27:36  
 **********************************************************************************************************************************

 SHA1:             31073afc4d8441e10870424e0d77336a33bc4286
 **********************************************************************************************************************************

 Memory per process:      1000 MW
 Total memory per node:   3000 MW

 GA preallocation disabled
 GA check disabled

 Variable memory set to 1000.0 MW


 THRESHOLDS:

 ZERO    =  1.00D-12  ONEINT  =  1.00D-16  TWOINT  =  1.00D-16  PREFAC  =  1.00D-14  XXXXXX  =  1.00D-09  EORDER  =  1.00D-04
 ENERGY  =  1.00D-12  ETEST   =  0.00D+00  EDENS   =  0.00D+00  THRDEDEF=  1.00D-06  GRADIENT=  1.00D-05  STEP    =  1.00D-03
 ORBITAL =  1.00D-10  CIVEC   =  1.00D-05  COEFF   =  1.00D-04  PRINTCI =  5.00D-02  PUNCHCI =  9.90D+01  OPTGRAD =  1.00D-06
 OPTENERG=  1.00D-06  OPTSTEP =  3.00D-04  THRGRAD =  1.00D-10  COMPRESS=  1.00D-13  VARMIN  =  1.00D-07  VARMAX  =  1.00D-03
 THRDOUB =  0.00D+00  THRDIV  =  1.00D-05  THRRED  =  1.00D-07  THRPSP  =  1.00D+00  THRDC   =  1.00D-10  THRCS   =  1.00D-10
 THRNRM  =  1.00D-08  THREQ   =  0.00D+00  THRDE   =  1.00D+00  THRREF  =  1.00D-05  SPARFAC =  1.00D+00  THRDLP  =  1.00D-07
 THRDIA  =  1.00D-10  THRDLS  =  1.00D-07  THRGPS  =  0.00D+00  THRKEX  =  0.00D+00  THRDIS  =  2.00D-01  THRVAR  =  1.00D-10
 THRLOC  =  1.00D-06  THRGAP  =  1.00D-06  THRLOCT = -1.00D+00  THRGAPT = -1.00D+00  THRORB  =  1.00D-06  THRMLTP =  0.00D+00
 THRCPQCI=  1.00D-10  KEXTA   =  0.00D+00  THRCOARS=  0.00D+00  SYMTOL  =  1.00D-06  GRADTOL =  1.00D-06  THROVL  =  1.00D-08
 THRORTH =  1.00D-08  THRDLOVL= -1.00D+00  GRID    =  1.00D-06  GRIDMAX =  1.00D-03  DTMAX   =  0.00D+00  THROCCDE=  1.00D-01
 THROCCDE=  1.00D-01  THRPRINT=  2.50D-01

 SETTING GEOMTYP        =    XYZ
 ZUNIT=BOHR

 SETTING BASIS          =    CC-PVDZ


 Recomputing integrals since basis changed


 Using spherical harmonics

 Library entry C      S cc-pVDZ              selected for orbital group  1
 Library entry C      P cc-pVDZ              selected for orbital group  1
 Library entry C      D cc-pVDZ              selected for orbital group  1
 Library entry O      S cc-pVDZ              selected for orbital group  2
 Library entry O      P cc-pVDZ              selected for orbital group  2
 Library entry O      D cc-pVDZ              selected for orbital group  2
 Library entry H      S cc-pVDZ              selected for orbital group  3
 Library entry H      P cc-pVDZ              selected for orbital group  3


 PROGRAM * SEWARD (Integral evaluation for generally contracted gaussian basis sets)     Author: Roland Lindh, 1990

 Geometry written to block  1 of record 700


 Point group  C1  



 ATOMIC COORDINATES

 NR  ATOM    CHARGE       X              Y              Z

   1  C       6.00   -1.373289346   -0.024235588    0.001750368
   2  O       8.00    1.309108153    0.121771449   -0.003472530
   3  H       1.00   -2.077924190    1.919773856    0.003495349
   4  H       1.00   -2.124109444   -0.981177006    1.694929816
   5  H       1.00   -2.096787605   -0.989288293   -1.687950518
   6  H       1.00    1.939278272   -1.576976538   -0.008760895

 Bond lengths in Bohr (Angstrom)

 1-2  2.686373332  1-3  2.067773205  1-4  2.084784003  1-5  2.076021565  2-6  1.811873911
     ( 1.421567547)     ( 1.094218458)     ( 1.103220184)     ( 1.098583302)     ( 0.958802383)

 Bond angles

  1-2-6  107.23752319   2-1-3  106.80823028   2-1-4  112.71432283   2-1-5  111.81861660

  3-1-4  107.94641998   3-1-5  108.60011318   4-1-5  108.79254269

 NUCLEAR CHARGE:                   18
 NUMBER OF PRIMITIVE AOS:          82
 NUMBER OF SYMMETRY AOS:           80
 NUMBER OF CONTRACTIONS:           48   (   48A   )
 NUMBER OF INNER CORE ORBITALS:     0   (    0A   )
 NUMBER OF OUTER CORE ORBITALS:     2   (    2A   )
 NUMBER OF VALENCE ORBITALS:       12   (   12A   )


 NUCLEAR REPULSION ENERGY   40.23711346

 Eigenvalues of metric

         1 0.970E-02 0.177E-01 0.374E-01 0.381E-01 0.383E-01 0.479E-01 0.489E-01 0.521E-01


 Contracted 2-electron integrals neglected if value below      1.0D-16
 AO integral compression algorithm  1   Integral accuracy      1.0D-16

     7.340 MB (compressed) written to integral file (100.0%)

     Node minimum: 2.359 MB, node maximum: 2.621 MB


 NUMBER OF SORTED TWO-ELECTRON INTEGRALS:     231084.     BUFFER LENGTH:  32768
 NUMBER OF SEGMENTS:   1  SEGMENT LENGTH:     231084      RECORD LENGTH: 524288

 Memory used in sort:       0.79 MW

 SORT1 READ      832256. AND WROTE      227683. INTEGRALS IN      1 RECORDS. CPU TIME:     0.01 SEC, REAL TIME:     0.02 SEC
 SORT2 READ      682150. AND WROTE      692076. INTEGRALS IN     27 RECORDS. CPU TIME:     0.02 SEC, REAL TIME:     0.02 SEC

 Node minimum:      230300.  Node maximum:      231084. integrals

 OPERATOR DM      FOR CENTER  0  COORDINATES:    0.000000    0.000000    0.000000


 **********************************************************************************************************************************
 DATASETS  * FILE   NREC   LENGTH (MB)   RECORD NAMES
              1      18       28.73       500      610      700      900      950      970     1000      129      960     1100   
                                          VAR    BASINP    GEOM    SYMINP    ZMAT    AOBASIS   BASIS     P2S    ABASIS      S 
                                         1400     1410     1200     1210     1080     1600     1650     1700   
                                           T        V       H0       H01     AOSYM     SMH    MOLCAS    OPER   

 PROGRAMS   *        TOTAL       INT
 CPU TIMES  *         0.48      0.33
 REAL TIME  *         1.61 SEC
 DISK USED  *        29.07 MB (local),      104.71 MB (total)
 GA USED    *         0.00 MB       (max)       0.00 MB       (current)
 **********************************************************************************************************************************


 Program * Restricted Hartree-Fock

 Orbital guess generated from atomic densities. Full valence occupancy:   14

 Initial occupancy:   9

 NELEC=   18   SYM=1   MS2= 0   THRE=1.0D-12   THRD=1.0D-10   THRG=1.0D-10  HFMA2=F  DIIS_START=2   DIIS_MAX=10   DIIS_INCORE=F

 Level shifts:    0.00 (CLOSED)    0.00 (OPEN)    0.30 (GAP_MIN)

 ITER           ETOT              DE          GRAD        DDIFF     DIIS  NEXP   TIME(IT)  TIME(TOT)  DIAG
   1     -115.01403640    -115.01403640     0.00D+00     0.16D+00     0     0       0.00      0.00    start
   2     -115.04241336      -0.02837696     0.10D-01     0.21D-01     1     0       0.00      0.00    diag
   3     -115.04850816      -0.00609480     0.49D-02     0.64D-02     2     0       0.01      0.01    diag
   4     -115.04897136      -0.00046320     0.10D-02     0.20D-02     3     0       0.00      0.01    diag
   5     -115.04899236      -0.00002100     0.18D-03     0.43D-03     4     0       0.00      0.01    diag
   6     -115.04899315      -0.00000079     0.32D-04     0.92D-04     5     0       0.01      0.02    diag
   7     -115.04899318      -0.00000003     0.65D-05     0.15D-04     6     0       0.00      0.02    diag
   8     -115.04899318      -0.00000000     0.21D-05     0.47D-05     7     0       0.00      0.02    fixocc
   9     -115.04899318      -0.00000000     0.44D-06     0.14D-05     8     0       0.01      0.03    diag
  10     -115.04899318      -0.00000000     0.69D-07     0.23D-06     9     0       0.00      0.03    diag/orth
  11     -115.04899318      -0.00000000     0.16D-07     0.44D-07     9     0       0.00      0.03    diag
  12     -115.04899318       0.00000000     0.42D-08     0.13D-07     9     0       0.00      0.03    diag
  13     -115.04899318       0.00000000     0.69D-09     0.19D-08     9     0       0.00      0.03    diag
  14     -115.04899318      -0.00000000     0.16D-09     0.41D-09     9     0       0.01      0.04    diag
  15     -115.04899318      -0.00000000     0.65D-10     0.12D-09     9     0       0.00      0.04    diag
  16     -115.04899318       0.00000000     0.18D-10     0.40D-10     9     0       0.00      0.04    diag
  17     -115.04899318       0.00000000     0.42D-11     0.68D-11     0     0       0.00      0.04    diag

 Final occupancy:   9

 !RHF STATE 1.1 Energy               -115.048993183306
  RHF One-electron energy            -236.740504195503
  RHF Two-electron energy              81.454397553644
  RHF Kinetic energy                  114.917682883855
  RHF Nuclear energy                   40.237113458553
  RHF Virial quotient                  -1.001142646598

 !RHF STATE 1.1 Dipole moment          -0.39192668    -0.59444250    -0.00166380
 Dipole moment /Debye                  -0.99617826    -1.51092214    -0.00422896

 Orbital energies:

           1.1          2.1          3.1          4.1          5.1          6.1          7.1          8.1          9.1         10.1
    -20.550389   -11.276851    -1.350221    -0.919436    -0.682520    -0.612575    -0.584201    -0.496787    -0.442874     0.184181

          11.1
      0.224128


 HOMO      9.1    -0.442874 =     -12.0512eV
 LUMO     10.1     0.184181 =       5.0118eV
 LUMO-HOMO         0.627055 =      17.0630eV

 Orbitals saved in record  2100.2


 **********************************************************************************************************************************
 DATASETS  * FILE   NREC   LENGTH (MB)   RECORD NAMES
              1      18       28.73       500      610      700      900      950      970     1000      129      960     1100   
                                          VAR    BASINP    GEOM    SYMINP    ZMAT    AOBASIS   BASIS     P2S    ABASIS      S 
                                         1400     1410     1200     1210     1080     1600     1650     1700   
                                           T        V       H0       H01     AOSYM     SMH    MOLCAS    OPER   

              2       4        0.47       700     1000      520     2100   
                                         GEOM     BASIS   MCVARS     RHF  

 PROGRAMS   *        TOTAL   RHF-SCF       INT
 CPU TIMES  *         0.52      0.04      0.33
 REAL TIME  *         2.29 SEC
 DISK USED  *        29.40 MB (local),      105.70 MB (total)
 GA USED    *         0.00 MB       (max)       0.00 MB       (current)
 **********************************************************************************************************************************


 PROGRAM * CCSD (Closed-shell coupled cluster)     Authors: C. Hampel, H.-J. Werner, 1991, M. Deegan, P.J. Knowles, 1992


 Convergence thresholds:  THRVAR = 1.00D-08  THRDEN = 1.00D-12

 CCSD(T)     terms to be evaluated (factor= 1.000)


 Number of core orbitals:           2 (   2 )
 Number of closed-shell orbitals:   7 (   7 )
 Number of external orbitals:      39 (  39 )

 Molecular orbitals read from record     2100.2  Type=RHF/CANONICAL  

 Number of N-1 electron functions:               7
 Number of N-2 electron functions:              28
 Number of singly external CSFs:               273
 Number of doubly external CSFs:             37401
 Total number of CSFs:                       37675

 Length of J-op  integral file:               0.00 MB
 Length of K-op  integral file:               0.16 MB
 Length of 3-ext integral record:             0.00 MB

 Memory could be reduced to 0.73 Mwords without degradation in triples

 Integral transformation finished. Total CPU:   0.02 sec, npass=  1  Memory used:   0.66 MW

 Reference energy:                   -115.04899318

 MP2 singlet pair energy:              -0.21890167
 MP2 triplet pair energy:              -0.11987715
 MP2 correlation energy:               -0.33877882
 MP2 total energy:                   -115.38777200

 SCS-MP2 correlation energy:           -0.33727223   (PS=  1.200000  PT=  0.333333)
 SCS-MP2 total energy:               -115.38626541

 ITER.      SQ.NORM     CORR.ENERGY   TOTAL ENERGY   ENERGY CHANGE        DEN1      VAR(S)    VAR(P)  DIIS     TIME  TIME/IT
   1      1.10770707    -0.36161371  -115.41060689    -0.02283489    -0.01410990  0.92D-03  0.18D-02  1  1     0.05     0.04
   2      1.11631030    -0.36357332  -115.41256650    -0.00195961    -0.00929304  0.20D-04  0.16D-03  2  2     0.08     0.05
   3      1.11822351    -0.36370342  -115.41269661    -0.00013010    -0.00121918  0.96D-05  0.88D-05  3  3     0.10     0.05
   4      1.11874812    -0.36370213  -115.41269531     0.00000129    -0.00025877  0.34D-06  0.69D-06  4  4     0.12     0.05
   5      1.11884833    -0.36370258  -115.41269576    -0.00000045    -0.00003667  0.10D-06  0.51D-07  5  5     0.14     0.05
   6      1.11886783    -0.36370121  -115.41269440     0.00000136    -0.00000448  0.16D-07  0.42D-08  6  6     0.16     0.05
   7      1.11887260    -0.36370079  -115.41269397     0.00000043    -0.00000035  0.20D-08  0.73D-09  6  1     0.18     0.05
   8      1.11887387    -0.36370089  -115.41269407    -0.00000010     0.00000075  0.26D-09  0.73D-10  6  3     0.20     0.05
   9      1.11887495    -0.36370076  -115.41269395     0.00000013    -0.00000039  0.13D-10  0.11D-10  6  2     0.22     0.05
  10      1.11887488    -0.36370077  -115.41269395    -0.00000000     0.00000007  0.11D-11  0.90D-12  6  5     0.24     0.05
  11      1.11887491    -0.36370076  -115.41269395     0.00000000    -0.00000000  0.19D-12  0.51D-13  6  4     0.26     0.05
  12      1.11887490    -0.36370077  -115.41269395    -0.00000000     0.00000001  0.19D-13  0.10D-13  6  1     0.28     0.05
  13      1.11887490    -0.36370077  -115.41269395    -0.00000000    -0.00000000  0.25D-14  0.95D-15  6  6     0.31     0.05
  14      1.11887490    -0.36370077  -115.41269395     0.00000000    -0.00000000  0.25D-15  0.13D-15  6  3     0.32     0.04
  15      1.11887490    -0.36370077  -115.41269395    -0.00000000    -0.00000000  0.29D-16  0.18D-16  6  2     0.34     0.04
  16      1.11887490    -0.36370077  -115.41269395    -0.00000000    -0.00000000  0.66D-17  0.18D-17  6  5     0.36     0.04
  17      1.11887490    -0.36370077  -115.41269395    -0.00000000    -0.00000000  0.77D-18  0.29D-18  6  4     0.38     0.04
  18      1.11887490    -0.36370077  -115.41269395     0.00000000    -0.00000000  0.14D-18  0.54D-19  6  1     0.40     0.04
  19      1.11887490    -0.36370077  -115.41269395    -0.00000000    -0.00000000  0.21D-19  0.59D-20  6  6     0.42     0.04
  20      1.11887490    -0.36370077  -115.41269395     0.00000000     0.00000000  0.40D-20  0.10D-20  6  3     0.44     0.04

 Norm of t1 vector:      0.04182896      S-energy:    -0.00000000      T1 diagnostic:  0.00790493
                                                                       D1 diagnostic:  0.01750995
                                                                       D2 diagnostic:  0.13469157 (internal)


 Total CPU time for triples:      0.08 sec


 RESULTS
 =======

  Reference energy                   -115.048993183306
  CCSD singlet pair energy             -0.254971934133
  CCSD triplet pair energy             -0.108728831390
  CCSD correlation energy              -0.363700765524

  Triples (T) contribution             -0.007775380529
  Total correlation energy             -0.371476146052

  CCSD total energy                  -115.412693948830
  CCSD[T] energy                     -115.420762933487
  CCSD-T energy                      -115.420317468971
 !CCSD(T) total energy               -115.420469329359

 Timing summary (sec):

 STEP                 CPU(USER)    SYS     CPU(TOT)    WALL
 Transformation          0.02      0.00      0.02      0.04
 CCSD iterations         0.42      0.07      0.49      0.83
 Triples                 0.08      0.00      0.08      0.08

 Program statistics:

 Available memory in ccsd:               999999795
 Min. memory needed in ccsd:                136177
 Max. memory used in ccsd:                  162910
 Max. memory used in cckext:                178997 (20 integral passes)



 **********************************************************************************************************************************
 DATASETS  * FILE   NREC   LENGTH (MB)   RECORD NAMES
              1      19       31.13       500      610      700      900      950      970     1000      129      960     1100   
                                          VAR    BASINP    GEOM    SYMINP    ZMAT    AOBASIS   BASIS     P2S    ABASIS      S 
                                         1400     1410     1200     1210     1080     1600     1650     1700     1380   
                                           T        V       H0       H01     AOSYM     SMH    MOLCAS    OPER     JKOP   

              2       4        0.47       700     1000      520     2100   
                                         GEOM     BASIS   MCVARS     RHF  

 PROGRAMS   *        TOTAL   CCSD(T)   RHF-SCF       INT
 CPU TIMES  *         1.07      0.54      0.04      0.33
 REAL TIME  *         3.30 SEC
 DISK USED  *        35.56 MB (local),      116.35 MB (total)
 SF USED    *         5.97 MB
 GA USED    *         0.00 MB       (max)       0.00 MB       (current)
 **********************************************************************************************************************************

 CCSD(T)/cc-pVDZ energy=   -115.420469329359

         CCSD(T)         RHF-SCF
   -115.42046933   -115.04899318
 **********************************************************************************************************************************
 Molpro calculation terminated
