
    -----------------------------------------------------------------------
          Psi4: An Open-Source Ab Initio Electronic Structure Package
                               Psi4 1.4a2.dev629 

                         Git: Rev {master} 2938fc2 dirty


    D. G. A. Smith, L. A. Burns, A. C. Simmonett, R. M. Parrish,
    M. C. Schieber, R. Galvelis, P. Kraus, H. Kruse, R. Di Remigio,
    A. Alenaizan, A. M. James, S. Lehtola, J. P. Misiewicz, M. Scheurer,
    R. A. Shaw, J. B. Schriber, Y. Xie, Z. L. Glick, D. A. Sirianni,
    J. S. O'Brien, J. M. Waldrop, A. Kumar, E. G. Hohenstein,
    B. P. Pritchard, B. R. Brooks, H. F. Schaefer III, A. Yu. Sokolov,
    K. Patkowski, A. E. DePrince III, U. Bozkaya, R. A. King,
    F. A. Evangelista, J. M. Turney, T. D. Crawford, C. D. Sherrill,
    J. Chem. Phys. 152(18) 184108 (2020). https://doi.org/10.1063/5.0006002

                            Additional Code Authors
    E. T. Seidl, C. L. Janssen, E. F. Valeev, M. L. Leininger,
    J. F. Gonthier, R. M. Richard, H. R. McAlexander, M. Saitow, X. Wang,
    P. Verma, and M. H. Lechner

             Previous Authors, Complete List of Code Contributors,
                       and Citations for Specific Modules
    https://github.com/psi4/psi4/blob/master/codemeta.json
    https://github.com/psi4/psi4/graphs/contributors
    http://psicode.org/psi4manual/master/introduction.html#citing-psifour

    -----------------------------------------------------------------------


    Psi4 started on: Wednesday, 21 September 2022 04:19PM

    Process ID: 215075
    Host:       n070
    PSIDATADIR: /opt/psi/4/master/share/psi4
    Memory:     500.0 MiB
    Threads:    1
    
  ==> Input File <==

--------------------------------------------------------------------------
# o-Benzyne preliminary computations

memory 14 gb

molecule {
  0 1
  units bohr
 C   -1.3785479283   -0.0244565090    0.0000003634
 O    1.3078967080    0.1179107291    0.0000002895
 H   -2.0777614086    1.9112709095   -0.0000799351
 H   -2.1152550133   -0.9786536814    1.6820061643
 H   -2.1152482328   -0.9787849372   -1.6819339738
 H    1.9551917150   -1.5774186310   -0.0000013183
  no_reorient
  no_com
}

set {
  basis 6-31g*
  reference rhf
  e_convergence 10 
  d_convergence 10
  r_convergence 8
  maxiter 300
  dft_spherical_points 1202
  dft_radial_points 99
  freeze_core True
}


#gradient('ccsd(t)')
gradient('b3lyp')
--------------------------------------------------------------------------

  Memory set to  13.039 GiB by Python driver.

Scratch directory: /tmp/
gradient() will perform analytic gradient computation.

*** tstart() called on n070
*** at Wed Sep 21 16:19:11 2022

   => Loading Basis Set <=

    Name: 6-31G*
    Role: ORBITAL
    Keyword: BASIS
    atoms 1   entry C          line   111 file /opt/psi/4/master/share/psi4/basis/6-31gs.gbs 
    atoms 2   entry O          line   145 file /opt/psi/4/master/share/psi4/basis/6-31gs.gbs 
    atoms 3-6 entry H          line    44 file /opt/psi/4/master/share/psi4/basis/6-31gs.gbs 


         ---------------------------------------------------------
                                   SCF
               by Justin Turney, Rob Parrish, Andy Simmonett
                          and Daniel G. A. Smith
                              RKS Reference
                        1 Threads,  13351 MiB Core
         ---------------------------------------------------------

  ==> Geometry <==

    Molecular point group: c1
    Full point group: C1

    Geometry (in Bohr), charge = 0, multiplicity = 1:

       Center              X                  Y                   Z               Mass       
    ------------   -----------------  -----------------  -----------------  -----------------
         C           -1.378547928300    -0.024456509000     0.000000363400    12.000000000000
         O            1.307896708000     0.117910729100     0.000000289500    15.994914619570
         H           -2.077761408600     1.911270909500    -0.000079935100     1.007825032230
         H           -2.115255013300    -0.978653681400     1.682006164300     1.007825032230
         H           -2.115248232800    -0.978784937200    -1.681933973800     1.007825032230
         H            1.955191715000    -1.577418631000    -0.000001318300     1.007825032230

  Running in c1 symmetry.

  Rotational constants: A =      4.28412  B =      0.82364  C =      0.79485 [cm^-1]
  Rotational constants: A = 128434.55436  B =  24692.00831  C =  23828.96555 [MHz]
  Nuclear repulsion =   40.248999062664588

  Charge       = 0
  Multiplicity = 1
  Electrons    = 18
  Nalpha       = 9
  Nbeta        = 9

  ==> Algorithm <==

  SCF Algorithm Type is DF.
  DIIS enabled.
  MOM disabled.
  Fractional occupation disabled.
  Guess Type is SAD.
  Energy threshold   = 1.00e-10
  Density threshold  = 1.00e-10
  Integral threshold = 0.00e+00

  ==> Primary Basis <==

  Basis Set: 6-31G*
    Blend: 6-31G*
    Number of shells: 20
    Number of basis function: 38
    Number of Cartesian functions: 38
    Spherical Harmonics?: false
    Max angular momentum: 2

  ==> DFT Potential <==

   => Composite Functional: B3LYP <= 

    B3LYP Hyb-GGA Exchange-Correlation Functional

    P. J. Stephens, F. J. Devlin, C. F. Chabalowski, and M. J. Frisch, J. Phys. Chem. 98, 11623 (1994)

    Deriv               =              1
    GGA                 =           TRUE
    Meta                =          FALSE

    Exchange Hybrid     =           TRUE
    MP2 Hybrid          =          FALSE

   => Exchange Functionals <=

    0.0800   Slater exchange
    0.7200         Becke 88

   => Exact (HF) Exchange <=

    0.2000               HF 

   => Correlation Functionals <=

    0.1900   Vosko, Wilk & Nusair (VWN5_RPA)
    0.8100   Lee, Yang & Parr

   => Molecular Quadrature <=

    Radial Scheme          =       TREUTLER
    Pruning Scheme         =           NONE
    Nuclear Scheme         =       TREUTLER

    BS radius alpha        =              1
    Pruning alpha          =              1
    Radial Points          =             99
    Spherical Points       =           1202
    Total Points           =         678876
    Total Blocks           =           4721
    Max Points             =            256
    Max Functions          =             38
    Weights Tolerance      =       1.00E-15

   => Loading Basis Set <=

    Name: (6-31G* AUX)
    Role: JKFIT
    Keyword: DF_BASIS_SCF
    atoms 1   entry C          line   121 file /opt/psi/4/master/share/psi4/basis/cc-pvdz-jkfit.gbs 
    atoms 2   entry O          line   221 file /opt/psi/4/master/share/psi4/basis/cc-pvdz-jkfit.gbs 
    atoms 3-6 entry H          line    51 file /opt/psi/4/master/share/psi4/basis/cc-pvdz-jkfit.gbs 

  ==> Integral Setup <==

  DFHelper Memory: AOs need 0.004 GiB; user supplied 9.070 GiB. Using in-core AOs.

  ==> MemDFJK: Density-Fitted J/K Matrices <==

    J tasked:                   Yes
    K tasked:                   Yes
    wK tasked:                   No
    OpenMP threads:               1
    Memory [MiB]:              9287
    Algorithm:                 Core
    Schwarz Cutoff:           1E-12
    Mask sparsity (%):       0.0000
    Fitting Condition:        1E-10

   => Auxiliary Basis Set <=

  Basis Set: (6-31G* AUX)
    Blend: CC-PVDZ-JKFIT
    Number of shells: 84
    Number of basis function: 262
    Number of Cartesian functions: 262
    Spherical Harmonics?: false
    Max angular momentum: 3

  Cached 100.0% of DFT collocation blocks in 0.709 [GiB].

  Minimum eigenvalue in the overlap matrix is 9.8005334835E-03.
  Reciprocal condition number of the overlap matrix is 1.6360400488E-03.
    Using symmetric orthogonalization.

  ==> Pre-Iterations <==

  SCF Guess: Superposition of Atomic Densities via on-the-fly atomic UHF (no occupation information).

   -------------------------
    Irrep   Nso     Nmo    
   -------------------------
     A         38      38 
   -------------------------
    Total      38      38
   -------------------------

  ==> Iterations <==

                           Total Energy        Delta E     RMS |[F,P]|

   @DF-RKS iter SAD:  -115.27134853729740   -1.15271e+02   0.00000e+00 
   @DF-RKS iter   1:  -115.54980075872821   -2.78452e-01   1.60747e-02 DIIS
   @DF-RKS iter   2:  -115.45073017730984    9.90706e-02   2.10599e-02 DIIS
   @DF-RKS iter   3:  -115.71155007549775   -2.60820e-01   2.14823e-03 DIIS
   @DF-RKS iter   4:  -115.71402605052215   -2.47598e-03   6.74328e-04 DIIS
   @DF-RKS iter   5:  -115.71429400607148   -2.67956e-04   8.14140e-05 DIIS
   @DF-RKS iter   6:  -115.71429791097918   -3.90491e-06   8.57607e-06 DIIS
   @DF-RKS iter   7:  -115.71429795757076   -4.65916e-08   7.77434e-07 DIIS
   @DF-RKS iter   8:  -115.71429795798922   -4.18453e-10   1.07121e-07 DIIS
   @DF-RKS iter   9:  -115.71429795799732   -8.10019e-12   2.06095e-08 DIIS
   @DF-RKS iter  10:  -115.71429795799773   -4.12115e-13   1.35553e-09 DIIS
   @DF-RKS iter  11:  -115.71429795799774   -1.42109e-14   1.18109e-10 DIIS
   @DF-RKS iter  12:  -115.71429795799766    8.52651e-14   2.23760e-11 DIIS
  Energy and wave function converged.


  ==> Post-Iterations <==

    Orbital Energies [Eh]
    ---------------------

    Doubly Occupied:                                                      

       1A    -19.138338     2A    -10.223378     3A     -1.009884  
       4A     -0.680326     5A     -0.502074     6A     -0.435091  
       7A     -0.419482     8A     -0.330184     9A     -0.264366  

    Virtual:                                                              

      10A      0.077142    11A      0.132032    12A      0.168214  
      13A      0.176444    14A      0.204662    15A      0.533047  
      16A      0.565629    17A      0.575511    18A      0.791855  
      19A      0.853429    20A      0.872449    21A      0.906471  
      22A      0.956386    23A      0.977052    24A      1.024830  
      25A      1.115694    26A      1.461502    27A      1.502208  
      28A      1.587284    29A      1.745246    30A      2.037956  
      31A      2.112860    32A      2.135685    33A      2.348710  
      34A      2.399497    35A      2.457102    36A      2.792281  
      37A      3.698531    38A      4.217127  

    Final Occupation by Irrep:
              A 
    DOCC [     9 ]

  @DF-RKS Final Energy:  -115.71429795799766

   => Energetics <=

    Nuclear Repulsion Energy =             40.2489990626645877
    One-Electron Energy =                -236.9036786516905693
    Two-Electron Energy =                  93.4910155779986951
    DFT Exchange-Correlation Energy =     -12.5506339469703665
    Empirical Dispersion Energy =           0.0000000000000000
    VV10 Nonlocal Energy =                  0.0000000000000000
    Total Energy =                       -115.7142979579976583

Computation Completed


Properties will be evaluated at   0.000000,   0.000000,   0.000000 [a0]

Properties computed using the SCF density matrix

  Nuclear Dipole Moment: [e a0]
     X:    -2.1612      Y:    -0.8270      Z:    -0.0000

  Electronic Dipole Moment: [e a0]
     X:     1.8286      Y:     0.2437      Z:     0.0000

  Dipole Moment: [e a0]
     X:    -0.3325      Y:    -0.5833      Z:    -0.0000     Total:     0.6715

  Dipole Moment: [D]
     X:    -0.8453      Y:    -1.4827      Z:    -0.0000     Total:     1.7067


*** tstop() called on n070 at Wed Sep 21 16:19:29 2022
Module time:
	user time   =      17.18 seconds =       0.29 minutes
	system time =       0.31 seconds =       0.01 minutes
	total time  =         18 seconds =       0.30 minutes
Total time:
	user time   =      17.18 seconds =       0.29 minutes
	system time =       0.31 seconds =       0.01 minutes
	total time  =         18 seconds =       0.30 minutes

*** tstart() called on n070
*** at Wed Sep 21 16:19:29 2022


         ------------------------------------------------------------
                                   SCF GRAD                          
                          Rob Parrish, Justin Turney,                
                       Andy Simmonett, and Alex Sokolov              
         ------------------------------------------------------------

  ==> Geometry <==

    Molecular point group: c1
    Full point group: C1

    Geometry (in Bohr), charge = 0, multiplicity = 1:

       Center              X                  Y                   Z               Mass       
    ------------   -----------------  -----------------  -----------------  -----------------
         C           -1.378547928300    -0.024456509000     0.000000363400    12.000000000000
         O            1.307896708000     0.117910729100     0.000000289500    15.994914619570
         H           -2.077761408600     1.911270909500    -0.000079935100     1.007825032230
         H           -2.115255013300    -0.978653681400     1.682006164300     1.007825032230
         H           -2.115248232800    -0.978784937200    -1.681933973800     1.007825032230
         H            1.955191715000    -1.577418631000    -0.000001318300     1.007825032230

  Nuclear repulsion =   40.248999062664588

  ==> Basis Set <==

  Basis Set: 6-31G*
    Blend: 6-31G*
    Number of shells: 20
    Number of basis function: 38
    Number of Cartesian functions: 38
    Spherical Harmonics?: false
    Max angular momentum: 2

  ==> DFJKGrad: Density-Fitted SCF Gradients <==

    Gradient:                    1
    J tasked:                  Yes
    K tasked:                  Yes
    wK tasked:                  No
    OpenMP threads:              1
    Integrals threads:           1
    Memory [MiB]:            10013
    Schwarz Cutoff:          0E+00
    Fitting Condition:       1E-10

   => Auxiliary Basis Set <=

  Basis Set: (6-31G* AUX)
    Blend: CC-PVDZ-JKFIT
    Number of shells: 84
    Number of basis function: 262
    Number of Cartesian functions: 262
    Spherical Harmonics?: false
    Max angular momentum: 3

  ==> DFT Potential <==

   => Composite Functional: B3LYP <= 

    B3LYP Hyb-GGA Exchange-Correlation Functional

    P. J. Stephens, F. J. Devlin, C. F. Chabalowski, and M. J. Frisch, J. Phys. Chem. 98, 11623 (1994)

    Deriv               =              1
    GGA                 =           TRUE
    Meta                =          FALSE

    Exchange Hybrid     =           TRUE
    MP2 Hybrid          =          FALSE

   => Exchange Functionals <=

    0.0800   Slater exchange
    0.7200         Becke 88

   => Exact (HF) Exchange <=

    0.2000               HF 

   => Correlation Functionals <=

    0.1900   Vosko, Wilk & Nusair (VWN5_RPA)
    0.8100   Lee, Yang & Parr

   => Molecular Quadrature <=

    Radial Scheme          =       TREUTLER
    Pruning Scheme         =           NONE
    Nuclear Scheme         =       TREUTLER

    BS radius alpha        =              1
    Pruning alpha          =              1
    Radial Points          =             99
    Spherical Points       =           1202
    Total Points           =         678876
    Total Blocks           =           4721
    Max Points             =            256
    Max Functions          =             38
    Weights Tolerance      =       1.00E-15


  -Total Gradient:
     Atom            X                  Y                   Z
    ------   -----------------  -----------------  -----------------
       1       -0.006652663996     0.000143780380     0.000000242903
       2        0.004916441288    -0.008697906817     0.000000250543
       3        0.000544578360    -0.002658044770    -0.000000096826
       4        0.001795379732     0.001697157855    -0.002784150169
       5        0.001795333901     0.001697354377     0.002783971333
       6       -0.002399152113     0.007817722706    -0.000000217788


*** tstop() called on n070 at Wed Sep 21 16:19:31 2022
Module time:
	user time   =       2.73 seconds =       0.05 minutes
	system time =       0.02 seconds =       0.00 minutes
	total time  =          2 seconds =       0.03 minutes
Total time:
	user time   =      19.91 seconds =       0.33 minutes
	system time =       0.33 seconds =       0.01 minutes
	total time  =         20 seconds =       0.33 minutes

    Psi4 stopped on: Wednesday, 21 September 2022 04:19PM
    Psi4 wall time for execution: 0:00:20.30

*** Psi4 exiting successfully. Buy a developer a beer!
