
 Working directory              : /scratch/mel64643/tmp/40073432/
 Global scratch directory       : /scratch/mel64643/tmp/40073432/
 Wavefunction directory         : /home/mel64643/wfu/
 Main file repository           : /scratch/mel64643/tmp/40073432/

 id        : ccgc

 Nodes     nprocs
 a1-8         3
 Distribution of processes:   nprocs(total)=    4   nprocs(compute)=    3   nprocs(helper)=    1
 GA implementation: MPI file
 GA implementation (serial work in mppx): MPI file

 Using customized tuning parameters: mindgm=1; mindgv=20; mindgc=4; mindgr=1; noblas=0; minvec=7
 default implementation of scratch files=sf  


 Variables initialized (1015), CPU time= 0.01 sec
 ***,Optimization of min3
 memory,1000,m
 gthresh,energy=1.0d-12,orbital=1.0d-10,oneint=1.0d-16,twoint=1.0d-16,optgrad=1.0d-6,compress=1.0d-13
 geomtyp=xyz
 
  bohr
  geometry = {
  6
  arbitrary comment
  C   -1.3763013804   -0.0222196494   -0.0028028734
  O    1.3101452431    0.1185690034   -0.0003643023
  H   -2.0952290315    1.9114955433   -0.0091003366
  H   -2.1056029431   -0.9833598537    1.6911439761
  H   -2.1018224631   -0.9664097039   -1.6782016483
  H    1.9450864149   -1.5882074597   -0.0006832256
 }
 
 basis=cc-pvdz
 {rhf;maxit,200}
 {ccsd(t);maxit,200}
 Commands initialized (818), CPU time= 0.00 sec, 672 directives.
 Default parameters read. Elapsed time= 0.08 sec

 Checking input...
 Passed
1


                                         ***  PROGRAM SYSTEM MOLPRO  ***
                                       Copyright, TTI GmbH Stuttgart, 2015
                                    Version 2022.1 linked Mar  4 2022 00:40:14


 **********************************************************************************************************************************
 LABEL *   Optimization of min3                                                          
  64 bit mpp version                                                                     DATE: 07-Aug-25          TIME: 21:27:04  
 **********************************************************************************************************************************

 SHA1:             31073afc4d8441e10870424e0d77336a33bc4286
 **********************************************************************************************************************************

 Memory per process:      1000 MW
 Total memory per node:   3000 MW

 GA preallocation disabled
 GA check disabled

 Variable memory set to 1000.0 MW


 THRESHOLDS:

 ZERO    =  1.00D-12  ONEINT  =  1.00D-16  TWOINT  =  1.00D-16  PREFAC  =  1.00D-14  XXXXXX  =  1.00D-09  EORDER  =  1.00D-04
 ENERGY  =  1.00D-12  ETEST   =  0.00D+00  EDENS   =  0.00D+00  THRDEDEF=  1.00D-06  GRADIENT=  1.00D-05  STEP    =  1.00D-03
 ORBITAL =  1.00D-10  CIVEC   =  1.00D-05  COEFF   =  1.00D-04  PRINTCI =  5.00D-02  PUNCHCI =  9.90D+01  OPTGRAD =  1.00D-06
 OPTENERG=  1.00D-06  OPTSTEP =  3.00D-04  THRGRAD =  1.00D-10  COMPRESS=  1.00D-13  VARMIN  =  1.00D-07  VARMAX  =  1.00D-03
 THRDOUB =  0.00D+00  THRDIV  =  1.00D-05  THRRED  =  1.00D-07  THRPSP  =  1.00D+00  THRDC   =  1.00D-10  THRCS   =  1.00D-10
 THRNRM  =  1.00D-08  THREQ   =  0.00D+00  THRDE   =  1.00D+00  THRREF  =  1.00D-05  SPARFAC =  1.00D+00  THRDLP  =  1.00D-07
 THRDIA  =  1.00D-10  THRDLS  =  1.00D-07  THRGPS  =  0.00D+00  THRKEX  =  0.00D+00  THRDIS  =  2.00D-01  THRVAR  =  1.00D-10
 THRLOC  =  1.00D-06  THRGAP  =  1.00D-06  THRLOCT = -1.00D+00  THRGAPT = -1.00D+00  THRORB  =  1.00D-06  THRMLTP =  0.00D+00
 THRCPQCI=  1.00D-10  KEXTA   =  0.00D+00  THRCOARS=  0.00D+00  SYMTOL  =  1.00D-06  GRADTOL =  1.00D-06  THROVL  =  1.00D-08
 THRORTH =  1.00D-08  THRDLOVL= -1.00D+00  GRID    =  1.00D-06  GRIDMAX =  1.00D-03  DTMAX   =  0.00D+00  THROCCDE=  1.00D-01
 THROCCDE=  1.00D-01  THRPRINT=  2.50D-01

 SETTING GEOMTYP        =    XYZ
 ZUNIT=BOHR

 SETTING BASIS          =    CC-PVDZ


 Recomputing integrals since basis changed


 Using spherical harmonics

 Library entry C      S cc-pVDZ              selected for orbital group  1
 Library entry C      P cc-pVDZ              selected for orbital group  1
 Library entry C      D cc-pVDZ              selected for orbital group  1
 Library entry O      S cc-pVDZ              selected for orbital group  2
 Library entry O      P cc-pVDZ              selected for orbital group  2
 Library entry O      D cc-pVDZ              selected for orbital group  2
 Library entry H      S cc-pVDZ              selected for orbital group  3
 Library entry H      P cc-pVDZ              selected for orbital group  3


 PROGRAM * SEWARD (Integral evaluation for generally contracted gaussian basis sets)     Author: Roland Lindh, 1990

 Geometry written to block  1 of record 700


 Point group  C1  



 ATOMIC COORDINATES

 NR  ATOM    CHARGE       X              Y              Z

   1  C       6.00   -1.376301380   -0.022219649   -0.002802873
   2  O       8.00    1.310145243    0.118569003   -0.000364302
   3  H       1.00   -2.095229032    1.911495543   -0.009100337
   4  H       1.00   -2.105602943   -0.983359854    1.691143976
   5  H       1.00   -2.101822463   -0.966409704   -1.678201648
   6  H       1.00    1.945086415   -1.588207460   -0.000683226

 Bond lengths in Bohr (Angstrom)

 1-2  2.690134356  1-3  2.063044128  1-4  2.079694014  1-5  2.055440769  2-6  1.821053620
     ( 1.423557795)     ( 1.091715937)     ( 1.100526678)     ( 1.087692413)     ( 0.963660076)

 Bond angles

  1-2-6  107.40582686   2-1-3  107.39453297   2-1-4  111.94060340   2-1-5  112.16478627

  3-1-4  108.26820272   3-1-5  107.76248972   4-1-5  109.13772640

 NUCLEAR CHARGE:                   18
 NUMBER OF PRIMITIVE AOS:          82
 NUMBER OF SYMMETRY AOS:           80
 NUMBER OF CONTRACTIONS:           48   (   48A   )
 NUMBER OF INNER CORE ORBITALS:     0   (    0A   )
 NUMBER OF OUTER CORE ORBITALS:     2   (    2A   )
 NUMBER OF VALENCE ORBITALS:       12   (   12A   )


 NUCLEAR REPULSION ENERGY   40.23470131

 Eigenvalues of metric

         1 0.969E-02 0.177E-01 0.366E-01 0.377E-01 0.386E-01 0.469E-01 0.482E-01 0.521E-01


 Contracted 2-electron integrals neglected if value below      1.0D-16
 AO integral compression algorithm  1   Integral accuracy      1.0D-16

     7.340 MB (compressed) written to integral file (100.0%)

     Node minimum: 2.359 MB, node maximum: 2.621 MB


 NUMBER OF SORTED TWO-ELECTRON INTEGRALS:     231084.     BUFFER LENGTH:  32768
 NUMBER OF SEGMENTS:   1  SEGMENT LENGTH:     231084      RECORD LENGTH: 524288

 Memory used in sort:       0.79 MW

 SORT1 READ      832256. AND WROTE      227683. INTEGRALS IN      1 RECORDS. CPU TIME:     0.01 SEC, REAL TIME:     0.09 SEC
 SORT2 READ      682150. AND WROTE      692076. INTEGRALS IN     30 RECORDS. CPU TIME:     0.01 SEC, REAL TIME:     0.01 SEC

 Node minimum:      230300.  Node maximum:      231084. integrals

 OPERATOR DM      FOR CENTER  0  COORDINATES:    0.000000    0.000000    0.000000


 **********************************************************************************************************************************
 DATASETS  * FILE   NREC   LENGTH (MB)   RECORD NAMES
              1      18       28.73       500      610      700      900      950      970     1000      129      960     1100   
                                          VAR    BASINP    GEOM    SYMINP    ZMAT    AOBASIS   BASIS     P2S    ABASIS      S 
                                         1400     1410     1200     1210     1080     1600     1650     1700   
                                           T        V       H0       H01     AOSYM     SMH    MOLCAS    OPER   

 PROGRAMS   *        TOTAL       INT
 CPU TIMES  *         0.36      0.24
 REAL TIME  *         1.10 SEC
 DISK USED  *        29.07 MB (local),      104.69 MB (total)
 GA USED    *         0.00 MB       (max)       0.00 MB       (current)
 **********************************************************************************************************************************


 Program * Restricted Hartree-Fock

 Orbital guess generated from atomic densities. Full valence occupancy:   14

 Initial occupancy:   9

 NELEC=   18   SYM=1   MS2= 0   THRE=1.0D-12   THRD=1.0D-10   THRG=1.0D-10  HFMA2=F  DIIS_START=2   DIIS_MAX=10   DIIS_INCORE=F

 Level shifts:    0.00 (CLOSED)    0.00 (OPEN)    0.30 (GAP_MIN)

 ITER           ETOT              DE          GRAD        DDIFF     DIIS  NEXP   TIME(IT)  TIME(TOT)  DIAG
   1     -115.01386660    -115.01386660     0.00D+00     0.16D+00     0     0       0.00      0.00    start
   2     -115.04225511      -0.02838851     0.10D-01     0.20D-01     1     0       0.01      0.01    diag
   3     -115.04833635      -0.00608124     0.49D-02     0.64D-02     2     0       0.00      0.01    diag
   4     -115.04880306      -0.00046671     0.10D-02     0.20D-02     3     0       0.00      0.01    diag
   5     -115.04882443      -0.00002137     0.19D-03     0.44D-03     4     0       0.00      0.01    diag
   6     -115.04882525      -0.00000082     0.33D-04     0.94D-04     5     0       0.01      0.02    diag
   7     -115.04882528      -0.00000003     0.68D-05     0.15D-04     6     0       0.00      0.02    diag
   8     -115.04882528      -0.00000000     0.22D-05     0.51D-05     7     0       0.00      0.02    fixocc
   9     -115.04882528      -0.00000000     0.46D-06     0.14D-05     8     0       0.01      0.03    diag
  10     -115.04882528      -0.00000000     0.76D-07     0.24D-06     9     0       0.00      0.03    diag/orth
  11     -115.04882528      -0.00000000     0.18D-07     0.51D-07     9     0       0.00      0.03    diag
  12     -115.04882528       0.00000000     0.47D-08     0.15D-07     9     0       0.00      0.03    diag
  13     -115.04882528      -0.00000000     0.72D-09     0.20D-08     9     0       0.01      0.04    diag
  14     -115.04882528       0.00000000     0.17D-09     0.43D-09     9     0       0.00      0.04    diag
  15     -115.04882528       0.00000000     0.71D-10     0.13D-09     9     0       0.00      0.04    diag
  16     -115.04882528       0.00000000     0.21D-10     0.49D-10     9     0       0.00      0.04    diag
  17     -115.04882528      -0.00000000     0.55D-11     0.90D-11     0     0       0.00      0.04    diag

 Final occupancy:   9

 !RHF STATE 1.1 Energy               -115.048825283295
  RHF One-electron energy            -236.741598899598
  RHF Two-electron energy              81.458072310756
  RHF Kinetic energy                  114.926426310196
  RHF Nuclear energy                   40.234701305547
  RHF Virial quotient                  -1.001065020266

 !RHF STATE 1.1 Dipole moment          -0.39822855    -0.59634653    -0.00580837
 Dipole moment /Debye                  -1.01219601    -1.51576168    -0.01476340

 Orbital energies:

           1.1          2.1          3.1          4.1          5.1          6.1          7.1          8.1          9.1         10.1
    -20.550217   -11.275141    -1.347884    -0.920854    -0.680810    -0.613901    -0.584381    -0.496180    -0.443360     0.184292

          11.1
      0.223631


 HOMO      9.1    -0.443360 =     -12.0644eV
 LUMO     10.1     0.184292 =       5.0148eV
 LUMO-HOMO         0.627652 =      17.0793eV

 Orbitals saved in record  2100.2


 **********************************************************************************************************************************
 DATASETS  * FILE   NREC   LENGTH (MB)   RECORD NAMES
              1      18       28.73       500      610      700      900      950      970     1000      129      960     1100   
                                          VAR    BASINP    GEOM    SYMINP    ZMAT    AOBASIS   BASIS     P2S    ABASIS      S 
                                         1400     1410     1200     1210     1080     1600     1650     1700   
                                           T        V       H0       H01     AOSYM     SMH    MOLCAS    OPER   

              2       4        0.47       700     1000      520     2100   
                                         GEOM     BASIS   MCVARS     RHF  

 PROGRAMS   *        TOTAL   RHF-SCF       INT
 CPU TIMES  *         0.40      0.04      0.24
 REAL TIME  *         1.48 SEC
 DISK USED  *        29.40 MB (local),      105.68 MB (total)
 GA USED    *         0.00 MB       (max)       0.00 MB       (current)
 **********************************************************************************************************************************


 PROGRAM * CCSD (Closed-shell coupled cluster)     Authors: C. Hampel, H.-J. Werner, 1991, M. Deegan, P.J. Knowles, 1992


 Convergence thresholds:  THRVAR = 1.00D-08  THRDEN = 1.00D-12

 CCSD(T)     terms to be evaluated (factor= 1.000)


 Number of core orbitals:           2 (   2 )
 Number of closed-shell orbitals:   7 (   7 )
 Number of external orbitals:      39 (  39 )

 Molecular orbitals read from record     2100.2  Type=RHF/CANONICAL  

 Number of N-1 electron functions:               7
 Number of N-2 electron functions:              28
 Number of singly external CSFs:               273
 Number of doubly external CSFs:             37401
 Total number of CSFs:                       37675

 Length of J-op  integral file:               0.00 MB
 Length of K-op  integral file:               0.16 MB
 Length of 3-ext integral record:             0.00 MB

 Memory could be reduced to 0.73 Mwords without degradation in triples

 Integral transformation finished. Total CPU:   0.02 sec, npass=  1  Memory used:   0.66 MW

 Reference energy:                   -115.04882528

 MP2 singlet pair energy:              -0.21883468
 MP2 triplet pair energy:              -0.11987764
 MP2 correlation energy:               -0.33871232
 MP2 total energy:                   -115.38753760

 SCS-MP2 correlation energy:           -0.33719215   (PS=  1.200000  PT=  0.333333)
 SCS-MP2 total energy:               -115.38601743

 ITER.      SQ.NORM     CORR.ENERGY   TOTAL ENERGY   ENERGY CHANGE        DEN1      VAR(S)    VAR(P)  DIIS     TIME  TIME/IT
   1      1.10755634    -0.36150979  -115.41033507    -0.02279747    -0.01408600  0.92D-03  0.18D-02  1  1     0.04     0.03
   2      1.11612696    -0.36346571  -115.41229099    -0.00195592    -0.00927966  0.20D-04  0.16D-03  2  2     0.06     0.03
   3      1.11802982    -0.36359451  -115.41241979    -0.00012880    -0.00121583  0.95D-05  0.87D-05  3  3     0.08     0.03
   4      1.11855139    -0.36359341  -115.41241870     0.00000110    -0.00025733  0.35D-06  0.68D-06  4  4     0.09     0.03
   5      1.11865112    -0.36359386  -115.41241914    -0.00000044    -0.00003655  0.10D-06  0.50D-07  5  5     0.11     0.03
   6      1.11867064    -0.36359248  -115.41241777     0.00000138    -0.00000443  0.17D-07  0.42D-08  6  6     0.13     0.03
   7      1.11867553    -0.36359206  -115.41241734     0.00000042    -0.00000036  0.21D-08  0.75D-09  6  1     0.15     0.03
   8      1.11867684    -0.36359217  -115.41241745    -0.00000011     0.00000077  0.26D-09  0.76D-10  6  3     0.17     0.03
   9      1.11867793    -0.36359204  -115.41241732     0.00000013    -0.00000039  0.14D-10  0.11D-10  6  2     0.19     0.03
  10      1.11867798    -0.36359204  -115.41241732     0.00000000     0.00000000  0.14D-11  0.13D-11  6  4     0.20     0.03
  11      1.11867794    -0.36359204  -115.41241732     0.00000000     0.00000003  0.35D-12  0.89D-13  6  5     0.22     0.03
  12      1.11867789    -0.36359204  -115.41241732    -0.00000000     0.00000003  0.36D-13  0.14D-13  6  6     0.24     0.03
  13      1.11867787    -0.36359204  -115.41241733    -0.00000000     0.00000001  0.43D-14  0.17D-14  6  3     0.25     0.03
  14      1.11867787    -0.36359204  -115.41241733    -0.00000000     0.00000000  0.40D-15  0.16D-15  6  1     0.27     0.03
  15      1.11867787    -0.36359204  -115.41241733     0.00000000    -0.00000000  0.74D-16  0.38D-16  6  2     0.29     0.03
  16      1.11867787    -0.36359204  -115.41241733     0.00000000    -0.00000000  0.11D-16  0.32D-17  6  4     0.31     0.03
  17      1.11867787    -0.36359204  -115.41241733    -0.00000000     0.00000000  0.24D-17  0.47D-18  6  5     0.33     0.03
  18      1.11867787    -0.36359204  -115.41241733    -0.00000000    -0.00000000  0.53D-18  0.12D-18  6  6     0.34     0.03
  19      1.11867787    -0.36359204  -115.41241733     0.00000000    -0.00000000  0.62D-19  0.16D-19  6  3     0.36     0.03

 Norm of t1 vector:      0.04180462      S-energy:    -0.00000000      T1 diagnostic:  0.00790033
                                                                       D1 diagnostic:  0.01767365
                                                                       D2 diagnostic:  0.13460307 (internal)


 Total CPU time for triples:      0.08 sec


 RESULTS
 =======

  Reference energy                   -115.048825283295
  CCSD singlet pair energy             -0.254860670287
  CCSD triplet pair energy             -0.108731371881
  CCSD correlation energy              -0.363592042171

  Triples (T) contribution             -0.007761520014
  Total correlation energy             -0.371353562185

  CCSD total energy                  -115.412417325466
  CCSD[T] energy                     -115.420470328473
  CCSD-T energy                      -115.420027953799
 !CCSD(T) total energy               -115.420178845480

 Timing summary (sec):

 STEP                 CPU(USER)    SYS     CPU(TOT)    WALL
 Transformation          0.02      0.00      0.02      0.03
 CCSD iterations         0.34      0.07      0.41      0.62
 Triples                 0.08      0.01      0.09      0.08

 Program statistics:

 Available memory in ccsd:               999999795
 Min. memory needed in ccsd:                136177
 Max. memory used in ccsd:                  162910
 Max. memory used in cckext:                178997 (19 integral passes)



 **********************************************************************************************************************************
 DATASETS  * FILE   NREC   LENGTH (MB)   RECORD NAMES
              1      19       31.13       500      610      700      900      950      970     1000      129      960     1100   
                                          VAR    BASINP    GEOM    SYMINP    ZMAT    AOBASIS   BASIS     P2S    ABASIS      S 
                                         1400     1410     1200     1210     1080     1600     1650     1700     1380   
                                           T        V       H0       H01     AOSYM     SMH    MOLCAS    OPER     JKOP   

              2       4        0.47       700     1000      520     2100   
                                         GEOM     BASIS   MCVARS     RHF  

 PROGRAMS   *        TOTAL   CCSD(T)   RHF-SCF       INT
 CPU TIMES  *         0.87      0.46      0.04      0.24
 REAL TIME  *         2.31 SEC
 DISK USED  *        35.56 MB (local),      116.33 MB (total)
 SF USED    *         5.97 MB
 GA USED    *         0.00 MB       (max)       0.00 MB       (current)
 **********************************************************************************************************************************

 CCSD(T)/cc-pVDZ energy=   -115.420178845480

         CCSD(T)         RHF-SCF
   -115.42017885   -115.04882528
 **********************************************************************************************************************************
 Molpro calculation terminated
