
 Working directory              : /scratch/mel64643/tmp/40073365/
 Global scratch directory       : /scratch/mel64643/tmp/40073365/
 Wavefunction directory         : /home/mel64643/wfu/
 Main file repository           : /scratch/mel64643/tmp/40073365/

 id        : ccgc

 Nodes     nprocs
 a1-8         3
 Distribution of processes:   nprocs(total)=    4   nprocs(compute)=    3   nprocs(helper)=    1
 GA implementation: MPI file
 GA implementation (serial work in mppx): MPI file

 Using customized tuning parameters: mindgm=1; mindgv=20; mindgc=4; mindgr=1; noblas=0; minvec=7
 default implementation of scratch files=sf  


 Variables initialized (1015), CPU time= 0.01 sec
 ***,Optimization of min3
 memory,1000,m
 gthresh,energy=1.0d-12,orbital=1.0d-10,oneint=1.0d-16,twoint=1.0d-16,optgrad=1.0d-6,compress=1.0d-13
 geomtyp=xyz
 
  bohr
  geometry = {
  6
  arbitrary comment
  C   -1.3763981029   -0.0237961465    0.0000002972
  O    1.3191890243    0.1253746614    0.0000002803
  H   -2.0790084960    1.9074050543   -0.0000798459
  H   -2.1123941830   -0.9802565869    1.6793817486
  H   -2.1123870686   -0.9803876453   -1.6793095302
  H    1.9372746663   -1.5784714570   -0.0000013600
 }
 
 basis=cc-pvdz
 {rhf;maxit,200}
 {ccsd(t);maxit,200}
 Commands initialized (818), CPU time= 0.01 sec, 672 directives.
 Default parameters read. Elapsed time= 0.10 sec

 Checking input...
 Passed
1


                                         ***  PROGRAM SYSTEM MOLPRO  ***
                                       Copyright, TTI GmbH Stuttgart, 2015
                                    Version 2022.1 linked Mar  4 2022 00:40:14


 **********************************************************************************************************************************
 LABEL *   Optimization of min3                                                          
  64 bit mpp version                                                                     DATE: 07-Aug-25          TIME: 21:26:35  
 **********************************************************************************************************************************

 SHA1:             31073afc4d8441e10870424e0d77336a33bc4286
 **********************************************************************************************************************************

 Memory per process:      1000 MW
 Total memory per node:   3000 MW

 GA preallocation disabled
 GA check disabled

 Variable memory set to 1000.0 MW


 THRESHOLDS:

 ZERO    =  1.00D-12  ONEINT  =  1.00D-16  TWOINT  =  1.00D-16  PREFAC  =  1.00D-14  XXXXXX  =  1.00D-09  EORDER  =  1.00D-04
 ENERGY  =  1.00D-12  ETEST   =  0.00D+00  EDENS   =  0.00D+00  THRDEDEF=  1.00D-06  GRADIENT=  1.00D-05  STEP    =  1.00D-03
 ORBITAL =  1.00D-10  CIVEC   =  1.00D-05  COEFF   =  1.00D-04  PRINTCI =  5.00D-02  PUNCHCI =  9.90D+01  OPTGRAD =  1.00D-06
 OPTENERG=  1.00D-06  OPTSTEP =  3.00D-04  THRGRAD =  1.00D-10  COMPRESS=  1.00D-13  VARMIN  =  1.00D-07  VARMAX  =  1.00D-03
 THRDOUB =  0.00D+00  THRDIV  =  1.00D-05  THRRED  =  1.00D-07  THRPSP  =  1.00D+00  THRDC   =  1.00D-10  THRCS   =  1.00D-10
 THRNRM  =  1.00D-08  THREQ   =  0.00D+00  THRDE   =  1.00D+00  THRREF  =  1.00D-05  SPARFAC =  1.00D+00  THRDLP  =  1.00D-07
 THRDIA  =  1.00D-10  THRDLS  =  1.00D-07  THRGPS  =  0.00D+00  THRKEX  =  0.00D+00  THRDIS  =  2.00D-01  THRVAR  =  1.00D-10
 THRLOC  =  1.00D-06  THRGAP  =  1.00D-06  THRLOCT = -1.00D+00  THRGAPT = -1.00D+00  THRORB  =  1.00D-06  THRMLTP =  0.00D+00
 THRCPQCI=  1.00D-10  KEXTA   =  0.00D+00  THRCOARS=  0.00D+00  SYMTOL  =  1.00D-06  GRADTOL =  1.00D-06  THROVL  =  1.00D-08
 THRORTH =  1.00D-08  THRDLOVL= -1.00D+00  GRID    =  1.00D-06  GRIDMAX =  1.00D-03  DTMAX   =  0.00D+00  THROCCDE=  1.00D-01
 THROCCDE=  1.00D-01  THRPRINT=  2.50D-01

 SETTING GEOMTYP        =    XYZ
 ZUNIT=BOHR

 SETTING BASIS          =    CC-PVDZ


 Recomputing integrals since basis changed


 Using spherical harmonics

 Library entry C      S cc-pVDZ              selected for orbital group  1
 Library entry C      P cc-pVDZ              selected for orbital group  1
 Library entry C      D cc-pVDZ              selected for orbital group  1
 Library entry O      S cc-pVDZ              selected for orbital group  2
 Library entry O      P cc-pVDZ              selected for orbital group  2
 Library entry O      D cc-pVDZ              selected for orbital group  2
 Library entry H      S cc-pVDZ              selected for orbital group  3
 Library entry H      P cc-pVDZ              selected for orbital group  3


 PROGRAM * SEWARD (Integral evaluation for generally contracted gaussian basis sets)     Author: Roland Lindh, 1990

 Geometry written to block  1 of record 700


 Point group  C1  



 ATOMIC COORDINATES

 NR  ATOM    CHARGE       X              Y              Z

   1  C       6.00   -1.376398103   -0.023796147    0.000000297
   2  O       8.00    1.319189024    0.125374661    0.000000280
   3  H       1.00   -2.079008496    1.907405054   -0.000079846
   4  H       1.00   -2.112394183   -0.980256587    1.679381749
   5  H       1.00   -2.112387069   -0.980387645   -1.679309530
   6  H       1.00    1.937274666   -1.578471457   -0.000001360

 Bond lengths in Bohr (Angstrom)

 1-2  2.699711446  1-3  2.055042445  1-4  2.068049531  1-5  2.068049455  2-6  1.812490402
     ( 1.428625773)     ( 1.087481629)     ( 1.094364683)     ( 1.094364643)     ( 0.959128616)

 Bond angles

  1-2-6  106.77124512   2-1-3  106.82496466   2-1-4  112.38944947   2-1-5  112.38945384

  3-1-4  108.23877910   3-1-5  108.23862255   4-1-5  108.59209196

 NUCLEAR CHARGE:                   18
 NUMBER OF PRIMITIVE AOS:          82
 NUMBER OF SYMMETRY AOS:           80
 NUMBER OF CONTRACTIONS:           48   (   48A   )
 NUMBER OF INNER CORE ORBITALS:     0   (    0A   )
 NUMBER OF OUTER CORE ORBITALS:     2   (    2A   )
 NUMBER OF VALENCE ORBITALS:       12   (   12A   )


 NUCLEAR REPULSION ENERGY   40.19918939

 Eigenvalues of metric

         1 0.969E-02 0.177E-01 0.368E-01 0.374E-01 0.382E-01 0.476E-01 0.477E-01 0.516E-01


 Contracted 2-electron integrals neglected if value below      1.0D-16
 AO integral compression algorithm  1   Integral accuracy      1.0D-16

     6.816 MB (compressed) written to integral file ( 98.0%)

     Node minimum: 2.097 MB, node maximum: 2.359 MB


 NUMBER OF SORTED TWO-ELECTRON INTEGRALS:     231084.     BUFFER LENGTH:  32768
 NUMBER OF SEGMENTS:   1  SEGMENT LENGTH:     231084      RECORD LENGTH: 524288

 Memory used in sort:       0.79 MW

 SORT1 READ      832256. AND WROTE      227681. INTEGRALS IN      1 RECORDS. CPU TIME:     0.01 SEC, REAL TIME:     0.03 SEC
 SORT2 READ      682144. AND WROTE      692076. INTEGRALS IN     27 RECORDS. CPU TIME:     0.01 SEC, REAL TIME:     0.02 SEC

 Node minimum:      230300.  Node maximum:      231084. integrals

 OPERATOR DM      FOR CENTER  0  COORDINATES:    0.000000    0.000000    0.000000


 **********************************************************************************************************************************
 DATASETS  * FILE   NREC   LENGTH (MB)   RECORD NAMES
              1      18       28.73       500      610      700      900      950      970     1000      129      960     1100   
                                          VAR    BASINP    GEOM    SYMINP    ZMAT    AOBASIS   BASIS     P2S    ABASIS      S 
                                         1400     1410     1200     1210     1080     1600     1650     1700   
                                           T        V       H0       H01     AOSYM     SMH    MOLCAS    OPER   

 PROGRAMS   *        TOTAL       INT
 CPU TIMES  *         0.48      0.34
 REAL TIME  *         1.43 SEC
 DISK USED  *        29.07 MB (local),      104.31 MB (total)
 GA USED    *         0.00 MB       (max)       0.00 MB       (current)
 **********************************************************************************************************************************


 Program * Restricted Hartree-Fock

 Orbital guess generated from atomic densities. Full valence occupancy:   14

 Initial occupancy:   9

 NELEC=   18   SYM=1   MS2= 0   THRE=1.0D-12   THRD=1.0D-10   THRG=1.0D-10  HFMA2=F  DIIS_START=2   DIIS_MAX=10   DIIS_INCORE=F

 Level shifts:    0.00 (CLOSED)    0.00 (OPEN)    0.30 (GAP_MIN)

 ITER           ETOT              DE          GRAD        DDIFF     DIIS  NEXP   TIME(IT)  TIME(TOT)  DIAG
   1     -115.01383546    -115.01383546     0.00D+00     0.16D+00     0     0       0.00      0.00    start
   2     -115.04220112      -0.02836566     0.10D-01     0.21D-01     1     0       0.01      0.01    diag
   3     -115.04830507      -0.00610396     0.49D-02     0.64D-02     2     0       0.00      0.01    diag
   4     -115.04877046      -0.00046539     0.10D-02     0.20D-02     3     0       0.00      0.01    diag
   5     -115.04879176      -0.00002130     0.19D-03     0.44D-03     4     0       0.00      0.01    diag
   6     -115.04879256      -0.00000081     0.33D-04     0.93D-04     5     0       0.02      0.03    diag
   7     -115.04879259      -0.00000003     0.68D-05     0.15D-04     6     0       0.00      0.03    diag
   8     -115.04879260      -0.00000000     0.22D-05     0.50D-05     7     0       0.00      0.03    fixocc
   9     -115.04879260      -0.00000000     0.45D-06     0.14D-05     8     0       0.00      0.03    diag
  10     -115.04879260      -0.00000000     0.70D-07     0.23D-06     9     0       0.01      0.04    diag/orth
  11     -115.04879260      -0.00000000     0.16D-07     0.44D-07     9     0       0.00      0.04    diag
  12     -115.04879260      -0.00000000     0.42D-08     0.13D-07     9     0       0.00      0.04    diag
  13     -115.04879260      -0.00000000     0.68D-09     0.19D-08     9     0       0.01      0.05    diag
  14     -115.04879260       0.00000000     0.15D-09     0.39D-09     9     0       0.00      0.05    diag
  15     -115.04879260      -0.00000000     0.61D-10     0.11D-09     9     0       0.00      0.05    diag
  16     -115.04879260       0.00000000     0.13D-10     0.32D-10     9     0       0.00      0.05    diag
  17     -115.04879260      -0.00000000     0.23D-11     0.47D-11     0     0       0.00      0.05    diag

 Final occupancy:   9

 !RHF STATE 1.1 Energy               -115.048792595487
  RHF One-electron energy            -236.665844610689
  RHF Two-electron energy              81.417862628034
  RHF Kinetic energy                  114.931263699450
  RHF Nuclear energy                   40.199189387169
  RHF Virial quotient                  -1.001022601616

 !RHF STATE 1.1 Dipole moment          -0.40891362    -0.59689310    -0.00000276
 Dipole moment /Debye                  -1.03935474    -1.51715093    -0.00000703

 Orbital energies:

           1.1          2.1          3.1          4.1          5.1          6.1          7.1          8.1          9.1         10.1
    -20.550422   -11.275192    -1.347729    -0.921800    -0.681533    -0.612502    -0.582995    -0.498877    -0.444010     0.184475

          11.1
      0.224397


 HOMO      9.1    -0.444010 =     -12.0821eV
 LUMO     10.1     0.184475 =       5.0198eV
 LUMO-HOMO         0.628484 =      17.1019eV

 Orbitals saved in record  2100.2


 **********************************************************************************************************************************
 DATASETS  * FILE   NREC   LENGTH (MB)   RECORD NAMES
              1      18       28.73       500      610      700      900      950      970     1000      129      960     1100   
                                          VAR    BASINP    GEOM    SYMINP    ZMAT    AOBASIS   BASIS     P2S    ABASIS      S 
                                         1400     1410     1200     1210     1080     1600     1650     1700   
                                           T        V       H0       H01     AOSYM     SMH    MOLCAS    OPER   

              2       4        0.47       700     1000      520     2100   
                                         GEOM     BASIS   MCVARS     RHF  

 PROGRAMS   *        TOTAL   RHF-SCF       INT
 CPU TIMES  *         0.54      0.06      0.34
 REAL TIME  *         1.71 SEC
 DISK USED  *        29.40 MB (local),      105.30 MB (total)
 GA USED    *         0.00 MB       (max)       0.00 MB       (current)
 **********************************************************************************************************************************


 PROGRAM * CCSD (Closed-shell coupled cluster)     Authors: C. Hampel, H.-J. Werner, 1991, M. Deegan, P.J. Knowles, 1992


 Convergence thresholds:  THRVAR = 1.00D-08  THRDEN = 1.00D-12

 CCSD(T)     terms to be evaluated (factor= 1.000)


 Number of core orbitals:           2 (   2 )
 Number of closed-shell orbitals:   7 (   7 )
 Number of external orbitals:      39 (  39 )

 Molecular orbitals read from record     2100.2  Type=RHF/CANONICAL  

 Number of N-1 electron functions:               7
 Number of N-2 electron functions:              28
 Number of singly external CSFs:               273
 Number of doubly external CSFs:             37401
 Total number of CSFs:                       37675

 Length of J-op  integral file:               0.00 MB
 Length of K-op  integral file:               0.16 MB
 Length of 3-ext integral record:             0.00 MB

 Memory could be reduced to 0.73 Mwords without degradation in triples

 Integral transformation finished. Total CPU:   0.02 sec, npass=  1  Memory used:   0.66 MW

 Reference energy:                   -115.04879260

 MP2 singlet pair energy:              -0.21884785
 MP2 triplet pair energy:              -0.11990427
 MP2 correlation energy:               -0.33875212
 MP2 total energy:                   -115.38754472

 SCS-MP2 correlation energy:           -0.33722452   (PS=  1.200000  PT=  0.333333)
 SCS-MP2 total energy:               -115.38601712

 ITER.      SQ.NORM     CORR.ENERGY   TOTAL ENERGY   ENERGY CHANGE        DEN1      VAR(S)    VAR(P)  DIIS     TIME  TIME/IT
   1      1.10756184    -0.36152803  -115.41032063    -0.02277591    -0.01405651  0.93D-03  0.17D-02  1  1     0.05     0.04
   2      1.11612745    -0.36347742  -115.41227002    -0.00194939    -0.00927745  0.20D-04  0.16D-03  2  2     0.07     0.04
   3      1.11803467    -0.36360647  -115.41239907    -0.00012905    -0.00121788  0.97D-05  0.87D-05  3  3     0.09     0.04
   4      1.11855832    -0.36360491  -115.41239751     0.00000156    -0.00025834  0.34D-06  0.69D-06  4  4     0.11     0.04
   5      1.11865870    -0.36360529  -115.41239789    -0.00000038    -0.00003680  0.10D-06  0.50D-07  5  5     0.13     0.04
   6      1.11867822    -0.36360390  -115.41239649     0.00000140    -0.00000444  0.16D-07  0.42D-08  6  6     0.15     0.04
   7      1.11868307    -0.36360347  -115.41239606     0.00000043    -0.00000035  0.20D-08  0.74D-09  6  1     0.17     0.04
   8      1.11868437    -0.36360357  -115.41239617    -0.00000010     0.00000076  0.26D-09  0.74D-10  6  3     0.20     0.03
   9      1.11868545    -0.36360344  -115.41239604     0.00000013    -0.00000039  0.13D-10  0.11D-10  6  2     0.22     0.03
  10      1.11868538    -0.36360345  -115.41239604    -0.00000000     0.00000007  0.11D-11  0.89D-12  6  5     0.24     0.03
  11      1.11868541    -0.36360344  -115.41239604     0.00000000    -0.00000000  0.19D-12  0.51D-13  6  4     0.26     0.03
  12      1.11868540    -0.36360345  -115.41239604    -0.00000000     0.00000001  0.19D-13  0.10D-13  6  1     0.28     0.03
  13      1.11868540    -0.36360345  -115.41239604    -0.00000000    -0.00000000  0.24D-14  0.94D-15  6  6     0.30     0.03
  14      1.11868540    -0.36360345  -115.41239604     0.00000000    -0.00000000  0.23D-15  0.12D-15  6  3     0.32     0.03
  15      1.11868540    -0.36360345  -115.41239604    -0.00000000    -0.00000000  0.25D-16  0.17D-16  6  2     0.34     0.03
  16      1.11868540    -0.36360345  -115.41239604    -0.00000000    -0.00000000  0.57D-17  0.16D-17  6  5     0.36     0.03
  17      1.11868540    -0.36360345  -115.41239604    -0.00000000    -0.00000000  0.53D-18  0.26D-18  6  4     0.38     0.03
  18      1.11868540    -0.36360345  -115.41239604     0.00000000    -0.00000000  0.83D-19  0.43D-19  6  1     0.40     0.03
  19      1.11868540    -0.36360345  -115.41239604    -0.00000000    -0.00000000  0.93D-20  0.43D-20  6  6     0.42     0.03
  20      1.11868540    -0.36360345  -115.41239604     0.00000000     0.00000000  0.13D-20  0.56D-21  6  3     0.44     0.03

 Norm of t1 vector:      0.04198998      S-energy:    -0.00000000      T1 diagnostic:  0.00793536
                                                                       D1 diagnostic:  0.01785467
                                                                       D2 diagnostic:  0.13493971 (internal)


 Total CPU time for triples:      0.09 sec


 RESULTS
 =======

  Reference energy                   -115.048792595487
  CCSD singlet pair energy             -0.254854694354
  CCSD triplet pair energy             -0.108748750694
  CCSD correlation energy              -0.363603445048

  Triples (T) contribution             -0.007776898837
  Total correlation energy             -0.371380343885

  CCSD total energy                  -115.412396040535
  CCSD[T] energy                     -115.420466973042
  CCSD-T energy                      -115.420020966592
 !CCSD(T) total energy               -115.420172939371

 Timing summary (sec):

 STEP                 CPU(USER)    SYS     CPU(TOT)    WALL
 Transformation          0.02      0.01      0.03      0.06
 CCSD iterations         0.43      0.08      0.51      0.66
 Triples                 0.09      0.00      0.09      0.10

 Program statistics:

 Available memory in ccsd:               999999795
 Min. memory needed in ccsd:                136177
 Max. memory used in ccsd:                  162910
 Max. memory used in cckext:                178997 (20 integral passes)



 **********************************************************************************************************************************
 DATASETS  * FILE   NREC   LENGTH (MB)   RECORD NAMES
              1      19       31.13       500      610      700      900      950      970     1000      129      960     1100   
                                          VAR    BASINP    GEOM    SYMINP    ZMAT    AOBASIS   BASIS     P2S    ABASIS      S 
                                         1400     1410     1200     1210     1080     1600     1650     1700     1380   
                                           T        V       H0       H01     AOSYM     SMH    MOLCAS    OPER     JKOP   

              2       4        0.47       700     1000      520     2100   
                                         GEOM     BASIS   MCVARS     RHF  

 PROGRAMS   *        TOTAL   CCSD(T)   RHF-SCF       INT
 CPU TIMES  *         1.12      0.58      0.06      0.34
 REAL TIME  *         2.61 SEC
 DISK USED  *        35.56 MB (local),      115.95 MB (total)
 SF USED    *         5.97 MB
 GA USED    *         0.00 MB       (max)       0.00 MB       (current)
 **********************************************************************************************************************************

 CCSD(T)/cc-pVDZ energy=   -115.420172939371

         CCSD(T)         RHF-SCF
   -115.42017294   -115.04879260
 **********************************************************************************************************************************
 Molpro calculation terminated
