
 Working directory              : /scratch/mel64643/tmp/40073370/
 Global scratch directory       : /scratch/mel64643/tmp/40073370/
 Wavefunction directory         : /home/mel64643/wfu/
 Main file repository           : /scratch/mel64643/tmp/40073370/

 id        : ccgc

 Nodes     nprocs
 a1-8         3
 Distribution of processes:   nprocs(total)=    4   nprocs(compute)=    3   nprocs(helper)=    1
 GA implementation: MPI file
 GA implementation (serial work in mppx): MPI file

 Using customized tuning parameters: mindgm=1; mindgv=20; mindgc=4; mindgr=1; noblas=0; minvec=7
 default implementation of scratch files=sf  


 Variables initialized (1015), CPU time= 0.01 sec
 ***,Optimization of min3
 memory,1000,m
 gthresh,energy=1.0d-12,orbital=1.0d-10,oneint=1.0d-16,twoint=1.0d-16,optgrad=1.0d-6,compress=1.0d-13
 geomtyp=xyz
 
  bohr
  geometry = {
  6
  arbitrary comment
  C   -1.3735732275   -0.0274893389    0.0000005196
  O    1.2916921560    0.1158492478    0.0000003567
  H   -2.0787935201    1.9237208331   -0.0000804683
  H   -2.1041659145   -0.9821778941    1.6762742752
  H   -2.1041589592   -0.9823086428   -1.6762018320
  H    1.9452753053   -1.5777263250   -0.0000012614
 }
 
 basis=cc-pvdz
 {rhf;maxit,200}
 {ccsd(t);maxit,200}
 Commands initialized (818), CPU time= 0.01 sec, 672 directives.
 Default parameters read. Elapsed time= 0.12 sec

 Checking input...
 Passed
1


                                         ***  PROGRAM SYSTEM MOLPRO  ***
                                       Copyright, TTI GmbH Stuttgart, 2015
                                    Version 2022.1 linked Mar  4 2022 00:40:14


 **********************************************************************************************************************************
 LABEL *   Optimization of min3                                                          
  64 bit mpp version                                                                     DATE: 07-Aug-25          TIME: 21:26:36  
 **********************************************************************************************************************************

 SHA1:             31073afc4d8441e10870424e0d77336a33bc4286
 **********************************************************************************************************************************

 Memory per process:      1000 MW
 Total memory per node:   3000 MW

 GA preallocation disabled
 GA check disabled

 Variable memory set to 1000.0 MW


 THRESHOLDS:

 ZERO    =  1.00D-12  ONEINT  =  1.00D-16  TWOINT  =  1.00D-16  PREFAC  =  1.00D-14  XXXXXX  =  1.00D-09  EORDER  =  1.00D-04
 ENERGY  =  1.00D-12  ETEST   =  0.00D+00  EDENS   =  0.00D+00  THRDEDEF=  1.00D-06  GRADIENT=  1.00D-05  STEP    =  1.00D-03
 ORBITAL =  1.00D-10  CIVEC   =  1.00D-05  COEFF   =  1.00D-04  PRINTCI =  5.00D-02  PUNCHCI =  9.90D+01  OPTGRAD =  1.00D-06
 OPTENERG=  1.00D-06  OPTSTEP =  3.00D-04  THRGRAD =  1.00D-10  COMPRESS=  1.00D-13  VARMIN  =  1.00D-07  VARMAX  =  1.00D-03
 THRDOUB =  0.00D+00  THRDIV  =  1.00D-05  THRRED  =  1.00D-07  THRPSP  =  1.00D+00  THRDC   =  1.00D-10  THRCS   =  1.00D-10
 THRNRM  =  1.00D-08  THREQ   =  0.00D+00  THRDE   =  1.00D+00  THRREF  =  1.00D-05  SPARFAC =  1.00D+00  THRDLP  =  1.00D-07
 THRDIA  =  1.00D-10  THRDLS  =  1.00D-07  THRGPS  =  0.00D+00  THRKEX  =  0.00D+00  THRDIS  =  2.00D-01  THRVAR  =  1.00D-10
 THRLOC  =  1.00D-06  THRGAP  =  1.00D-06  THRLOCT = -1.00D+00  THRGAPT = -1.00D+00  THRORB  =  1.00D-06  THRMLTP =  0.00D+00
 THRCPQCI=  1.00D-10  KEXTA   =  0.00D+00  THRCOARS=  0.00D+00  SYMTOL  =  1.00D-06  GRADTOL =  1.00D-06  THROVL  =  1.00D-08
 THRORTH =  1.00D-08  THRDLOVL= -1.00D+00  GRID    =  1.00D-06  GRIDMAX =  1.00D-03  DTMAX   =  0.00D+00  THROCCDE=  1.00D-01
 THROCCDE=  1.00D-01  THRPRINT=  2.50D-01

 SETTING GEOMTYP        =    XYZ
 ZUNIT=BOHR

 SETTING BASIS          =    CC-PVDZ


 Recomputing integrals since basis changed


 Using spherical harmonics

 Library entry C      S cc-pVDZ              selected for orbital group  1
 Library entry C      P cc-pVDZ              selected for orbital group  1
 Library entry C      D cc-pVDZ              selected for orbital group  1
 Library entry O      S cc-pVDZ              selected for orbital group  2
 Library entry O      P cc-pVDZ              selected for orbital group  2
 Library entry O      D cc-pVDZ              selected for orbital group  2
 Library entry H      S cc-pVDZ              selected for orbital group  3
 Library entry H      P cc-pVDZ              selected for orbital group  3


 PROGRAM * SEWARD (Integral evaluation for generally contracted gaussian basis sets)     Author: Roland Lindh, 1990

 Geometry written to block  1 of record 700


 Point group  C1  



 ATOMIC COORDINATES

 NR  ATOM    CHARGE       X              Y              Z

   1  C       6.00   -1.373573228   -0.027489339    0.000000520
   2  O       8.00    1.291692156    0.115849248    0.000000357
   3  H       1.00   -2.078793520    1.923720833   -0.000080468
   4  H       1.00   -2.104165914   -0.982177894    1.676274275
   5  H       1.00   -2.104158959   -0.982308643   -1.676201832
   6  H       1.00    1.945275305   -1.577726325   -0.000001261

 Bond lengths in Bohr (Angstrom)

 1-2  2.669116992  1-3  2.074742587  1-4  2.062786857  1-5  2.062786886  2-6  1.815315167
     ( 1.412435885)     ( 1.097906496)     ( 1.091579795)     ( 1.091579811)     ( 0.960623417)

 Bond angles

  1-2-6  108.02413908   2-1-3  106.79281595   2-1-4  112.24208988   2-1-5  112.24208569

  3-1-4  108.35493450   3-1-5  108.35477220   4-1-5  108.70314639

 NUCLEAR CHARGE:                   18
 NUMBER OF PRIMITIVE AOS:          82
 NUMBER OF SYMMETRY AOS:           80
 NUMBER OF CONTRACTIONS:           48   (   48A   )
 NUMBER OF INNER CORE ORBITALS:     0   (    0A   )
 NUMBER OF OUTER CORE ORBITALS:     2   (    2A   )
 NUMBER OF VALENCE ORBITALS:       12   (   12A   )


 NUCLEAR REPULSION ENERGY   40.42124822

 Eigenvalues of metric

         1 0.963E-02 0.176E-01 0.370E-01 0.370E-01 0.385E-01 0.470E-01 0.476E-01 0.525E-01


 Contracted 2-electron integrals neglected if value below      1.0D-16
 AO integral compression algorithm  1   Integral accuracy      1.0D-16

     6.554 MB (compressed) written to integral file (100.0%)

     Node minimum: 2.097 MB, node maximum: 2.359 MB


 NUMBER OF SORTED TWO-ELECTRON INTEGRALS:     231084.     BUFFER LENGTH:  32768
 NUMBER OF SEGMENTS:   1  SEGMENT LENGTH:     231084      RECORD LENGTH: 524288

 Memory used in sort:       0.79 MW

 SORT1 READ      832256. AND WROTE      227682. INTEGRALS IN      1 RECORDS. CPU TIME:     0.01 SEC, REAL TIME:     0.02 SEC
 SORT2 READ      682149. AND WROTE      692076. INTEGRALS IN     24 RECORDS. CPU TIME:     0.01 SEC, REAL TIME:     0.02 SEC

 Node minimum:      230300.  Node maximum:      231084. integrals

 OPERATOR DM      FOR CENTER  0  COORDINATES:    0.000000    0.000000    0.000000


 **********************************************************************************************************************************
 DATASETS  * FILE   NREC   LENGTH (MB)   RECORD NAMES
              1      18       28.73       500      610      700      900      950      970     1000      129      960     1100   
                                          VAR    BASINP    GEOM    SYMINP    ZMAT    AOBASIS   BASIS     P2S    ABASIS      S 
                                         1400     1410     1200     1210     1080     1600     1650     1700   
                                           T        V       H0       H01     AOSYM     SMH    MOLCAS    OPER   

 PROGRAMS   *        TOTAL       INT
 CPU TIMES  *         0.48      0.33
 REAL TIME  *         1.84 SEC
 DISK USED  *        29.07 MB (local),      104.32 MB (total)
 GA USED    *         0.00 MB       (max)       0.00 MB       (current)
 **********************************************************************************************************************************


 Program * Restricted Hartree-Fock

 Orbital guess generated from atomic densities. Full valence occupancy:   14

 Initial occupancy:   9

 NELEC=   18   SYM=1   MS2= 0   THRE=1.0D-12   THRD=1.0D-10   THRG=1.0D-10  HFMA2=F  DIIS_START=2   DIIS_MAX=10   DIIS_INCORE=F

 Level shifts:    0.00 (CLOSED)    0.00 (OPEN)    0.30 (GAP_MIN)

 ITER           ETOT              DE          GRAD        DDIFF     DIIS  NEXP   TIME(IT)  TIME(TOT)  DIAG
   1     -115.01445036    -115.01445036     0.00D+00     0.16D+00     0     0       0.01      0.01    start
   2     -115.04279677      -0.02834641     0.10D-01     0.20D-01     1     0       0.00      0.01    diag
   3     -115.04875972      -0.00596295     0.48D-02     0.64D-02     2     0       0.00      0.01    diag
   4     -115.04922237      -0.00046265     0.10D-02     0.20D-02     3     0       0.00      0.01    diag
   5     -115.04924319      -0.00002081     0.18D-03     0.43D-03     4     0       0.01      0.02    diag
   6     -115.04924398      -0.00000080     0.32D-04     0.93D-04     5     0       0.01      0.03    diag
   7     -115.04924402      -0.00000003     0.68D-05     0.15D-04     6     0       0.00      0.03    diag
   8     -115.04924402      -0.00000000     0.22D-05     0.52D-05     7     0       0.00      0.03    fixocc
   9     -115.04924402      -0.00000000     0.46D-06     0.14D-05     8     0       0.00      0.03    diag
  10     -115.04924402      -0.00000000     0.78D-07     0.25D-06     9     0       0.01      0.04    diag/orth
  11     -115.04924402      -0.00000000     0.19D-07     0.52D-07     9     0       0.00      0.04    diag
  12     -115.04924402       0.00000000     0.47D-08     0.15D-07     9     0       0.00      0.04    diag
  13     -115.04924402      -0.00000000     0.67D-09     0.19D-08     9     0       0.00      0.04    diag
  14     -115.04924402       0.00000000     0.15D-09     0.40D-09     9     0       0.00      0.04    diag
  15     -115.04924402       0.00000000     0.62D-10     0.11D-09     9     0       0.01      0.05    diag
  16     -115.04924402       0.00000000     0.13D-10     0.32D-10     9     0       0.00      0.05    diag
  17     -115.04924402       0.00000000     0.23D-11     0.46D-11     0     0       0.00      0.05    diag

 Final occupancy:   9

 !RHF STATE 1.1 Energy               -115.049244019073
  RHF One-electron energy            -237.101666121848
  RHF Two-electron energy              81.631173885290
  RHF Kinetic energy                  114.953740986853
  RHF Nuclear energy                   40.421248217485
  RHF Virial quotient                  -1.000830795339

 !RHF STATE 1.1 Dipole moment          -0.37611152    -0.59767677    -0.00000265
 Dipole moment /Debye                  -0.95598014    -1.51914281    -0.00000675

 Orbital energies:

           1.1          2.1          3.1          4.1          5.1          6.1          7.1          8.1          9.1         10.1
    -20.549549   -11.274198    -1.352175    -0.920534    -0.684601    -0.615504    -0.585697    -0.495052    -0.442350     0.184569

          11.1
      0.224260


 HOMO      9.1    -0.442350 =     -12.0370eV
 LUMO     10.1     0.184569 =       5.0224eV
 LUMO-HOMO         0.626919 =      17.0593eV

 Orbitals saved in record  2100.2


 **********************************************************************************************************************************
 DATASETS  * FILE   NREC   LENGTH (MB)   RECORD NAMES
              1      18       28.73       500      610      700      900      950      970     1000      129      960     1100   
                                          VAR    BASINP    GEOM    SYMINP    ZMAT    AOBASIS   BASIS     P2S    ABASIS      S 
                                         1400     1410     1200     1210     1080     1600     1650     1700   
                                           T        V       H0       H01     AOSYM     SMH    MOLCAS    OPER   

              2       4        0.47       700     1000      520     2100   
                                         GEOM     BASIS   MCVARS     RHF  

 PROGRAMS   *        TOTAL   RHF-SCF       INT
 CPU TIMES  *         0.53      0.05      0.33
 REAL TIME  *         2.05 SEC
 DISK USED  *        29.40 MB (local),      105.31 MB (total)
 GA USED    *         0.00 MB       (max)       0.00 MB       (current)
 **********************************************************************************************************************************


 PROGRAM * CCSD (Closed-shell coupled cluster)     Authors: C. Hampel, H.-J. Werner, 1991, M. Deegan, P.J. Knowles, 1992


 Convergence thresholds:  THRVAR = 1.00D-08  THRDEN = 1.00D-12

 CCSD(T)     terms to be evaluated (factor= 1.000)


 Number of core orbitals:           2 (   2 )
 Number of closed-shell orbitals:   7 (   7 )
 Number of external orbitals:      39 (  39 )

 Molecular orbitals read from record     2100.2  Type=RHF/CANONICAL  

 Number of N-1 electron functions:               7
 Number of N-2 electron functions:              28
 Number of singly external CSFs:               273
 Number of doubly external CSFs:             37401
 Total number of CSFs:                       37675

 Length of J-op  integral file:               0.00 MB
 Length of K-op  integral file:               0.16 MB
 Length of 3-ext integral record:             0.00 MB

 Memory could be reduced to 0.73 Mwords without degradation in triples

 Integral transformation finished. Total CPU:   0.02 sec, npass=  1  Memory used:   0.66 MW

 Reference energy:                   -115.04924402

 MP2 singlet pair energy:              -0.21847209
 MP2 triplet pair energy:              -0.11978217
 MP2 correlation energy:               -0.33825426
 MP2 total energy:                   -115.38749828

 SCS-MP2 correlation energy:           -0.33669764   (PS=  1.200000  PT=  0.333333)
 SCS-MP2 total energy:               -115.38594166

 ITER.      SQ.NORM     CORR.ENERGY   TOTAL ENERGY   ENERGY CHANGE        DEN1      VAR(S)    VAR(P)  DIIS     TIME  TIME/IT
   1      1.10713651    -0.36107616  -115.41032017    -0.02282190    -0.01417560  0.90D-03  0.17D-02  1  1     0.06     0.04
   2      1.11563144    -0.36301924  -115.41226326    -0.00194309    -0.00922834  0.19D-04  0.16D-03  2  2     0.08     0.04
   3      1.11749242    -0.36314525  -115.41238927    -0.00012601    -0.00119312  0.93D-05  0.85D-05  3  3     0.10     0.04
   4      1.11800070    -0.36314421  -115.41238823     0.00000104    -0.00025200  0.33D-06  0.66D-06  4  4     0.12     0.03
   5      1.11809691    -0.36314466  -115.41238868    -0.00000045    -0.00003538  0.97D-07  0.48D-07  5  5     0.14     0.03
   6      1.11811555    -0.36314334  -115.41238736     0.00000132    -0.00000428  0.16D-07  0.40D-08  6  6     0.16     0.03
   7      1.11812023    -0.36314294  -115.41238695     0.00000041    -0.00000036  0.20D-08  0.70D-09  6  1     0.18     0.03
   8      1.11812147    -0.36314304  -115.41238706    -0.00000010     0.00000074  0.25D-09  0.71D-10  6  3     0.20     0.03
   9      1.11812251    -0.36314292  -115.41238693     0.00000012    -0.00000038  0.13D-10  0.10D-10  6  2     0.23     0.03
  10      1.11812257    -0.36314291  -115.41238693     0.00000000     0.00000000  0.13D-11  0.12D-11  6  4     0.24     0.03
  11      1.11812253    -0.36314291  -115.41238693     0.00000000     0.00000003  0.33D-12  0.83D-13  6  5     0.27     0.03
  12      1.11812248    -0.36314292  -115.41238694    -0.00000000     0.00000003  0.33D-13  0.13D-13  6  6     0.28     0.03
  13      1.11812246    -0.36314292  -115.41238694    -0.00000000     0.00000001  0.37D-14  0.15D-14  6  3     0.31     0.03
  14      1.11812246    -0.36314292  -115.41238694    -0.00000000     0.00000000  0.28D-15  0.14D-15  6  1     0.32     0.03
  15      1.11812246    -0.36314292  -115.41238694     0.00000000    -0.00000000  0.35D-16  0.31D-16  6  2     0.35     0.03
  16      1.11812246    -0.36314292  -115.41238694     0.00000000    -0.00000000  0.41D-17  0.20D-17  6  4     0.37     0.03
  17      1.11812246    -0.36314292  -115.41238694    -0.00000000     0.00000000  0.42D-18  0.22D-18  6  5     0.39     0.03
  18      1.11812246    -0.36314292  -115.41238694    -0.00000000    -0.00000000  0.10D-18  0.32D-19  6  6     0.41     0.03
  19      1.11812246    -0.36314292  -115.41238694     0.00000000    -0.00000000  0.12D-19  0.43D-20  6  3     0.43     0.03

 Norm of t1 vector:      0.04134628      S-energy:    -0.00000000      T1 diagnostic:  0.00781371
                                                                       D1 diagnostic:  0.01719134
                                                                       D2 diagnostic:  0.13453438 (internal)


 Total CPU time for triples:      0.09 sec


 RESULTS
 =======

  Reference energy                   -115.049244019073
  CCSD singlet pair energy             -0.254384787861
  CCSD triplet pair energy             -0.108758129703
  CCSD correlation energy              -0.363142917565

  Triples (T) contribution             -0.007701914728
  Total correlation energy             -0.370844832293

  CCSD total energy                  -115.412386936637
  CCSD[T] energy                     -115.420374918806
  CCSD-T energy                      -115.419940839098
 !CCSD(T) total energy               -115.420088851365

 Timing summary (sec):

 STEP                 CPU(USER)    SYS     CPU(TOT)    WALL
 Transformation          0.03      0.01      0.04      0.05
 CCSD iterations         0.40      0.06      0.46      0.64
 Triples                 0.09      0.00      0.09      0.09

 Program statistics:

 Available memory in ccsd:               999999795
 Min. memory needed in ccsd:                136177
 Max. memory used in ccsd:                  162910
 Max. memory used in cckext:                178997 (19 integral passes)



 **********************************************************************************************************************************
 DATASETS  * FILE   NREC   LENGTH (MB)   RECORD NAMES
              1      19       31.13       500      610      700      900      950      970     1000      129      960     1100   
                                          VAR    BASINP    GEOM    SYMINP    ZMAT    AOBASIS   BASIS     P2S    ABASIS      S 
                                         1400     1410     1200     1210     1080     1600     1650     1700     1380   
                                           T        V       H0       H01     AOSYM     SMH    MOLCAS    OPER     JKOP   

              2       4        0.47       700     1000      520     2100   
                                         GEOM     BASIS   MCVARS     RHF  

 PROGRAMS   *        TOTAL   CCSD(T)   RHF-SCF       INT
 CPU TIMES  *         1.08      0.54      0.05      0.33
 REAL TIME  *         2.90 SEC
 DISK USED  *        35.56 MB (local),      115.96 MB (total)
 SF USED    *         5.97 MB
 GA USED    *         0.00 MB       (max)       0.00 MB       (current)
 **********************************************************************************************************************************

 CCSD(T)/cc-pVDZ energy=   -115.420088851365

         CCSD(T)         RHF-SCF
   -115.42008885   -115.04924402
 **********************************************************************************************************************************
 Molpro calculation terminated
