
 Primary working directories    : /tmp/601555.99.gen6.q
 Secondary working directories  : /tmp/601555.99.gen6.q
 Wavefunction directory         : /home/vulcan/mel64643/wfu/
 Main file repository           : /tmp/601555.99.gen6.q/

 ARCHNAME  : Linux/x86_64
 FC        : /opt/intel/compilers_and_libraries_2016.1.150/linux/bin/intel64/ifort
 FCVERSION : 16.0.1
 BLASLIB   : -mkl
 id        : ccgc

 Nodes     nprocs
 n091         1
 ga_uses_ma=false, calling ma_init with nominal heap.
 GA-space will be limited to   8.0 MW (determined by -G option)

 Using customized tuning parameters: mindgm=10; mindgv=16; mindgc=4; mindgr=1; noblas=0; mincuda=1000; minvec=7
 default implementation of scratch files=df  

 ***,Optimization of min3
 memory,1000,m
 gthresh,energy=1.0d-12,orbital=1.0d-10,oneint=1.0d-16,twoint=1.0d-16,optgrad=1.0d-6,compress=1.0d-13
 geomtyp=xyz
 
  bohr
  geometry = {
  6
  arbitrary comment
  C   -1.3756669564   -0.0244804610    0.0000003511
  O    1.3098176342    0.1155376784    0.0000003143
  H   -2.0874645185    1.9116999994   -0.0000798994
  H   -2.1060660336   -0.9768058433    1.6830532322
  H   -2.1060584948   -0.9769371818   -1.6829811178
  H    1.9417142090   -1.5791463117   -0.0000012904
 }
 
 basis=cc-pvdz
 {rhf;maxit,200}
 {ccsd(t);maxit,200}

 Variables initialized (661), CPU time= 0.00 sec
 Commands  initialized (458), CPU time= 0.01 sec, 486 directives.
 Default parameters read. Elapsed time= 0.04 sec

 Checking input...
 Passed
1


                                         ***  PROGRAM SYSTEM MOLPRO  ***
                         Copyright, University College Cardiff Consultants Limited, 2008

                                    Version 2010.1 linked May 16 2016 07:17:05


 **********************************************************************************************************************************
 LABEL *   Optimization of min3                                                          
 Linux-4.4.3/n091(x86_64) 64 bit mpp version                                             DATE: 06-Nov-21          TIME: 15:39:45  
 **********************************************************************************************************************************

 SHA1:             9e8077add272b0f3cad6f7df79ec5211205f459d
 **********************************************************************************************************************************

 THRESHOLDS:

 ZERO    =  1.00D-12  ONEINT  =  1.00D-16  TWOINT  =  1.00D-16  PREFAC  =  1.00D-14  LOCALI  =  1.00D-09  EORDER  =  1.00D-04
 ENERGY  =  1.00D-12  ETEST   =  0.00D+00  EDENS   =  0.00D+00  THRDEDEF=  1.00D-06  GRADIENT=  1.00D-02  STEP    =  1.00D-03
 ORBITAL =  1.00D-10  CIVEC   =  1.00D-05  COEFF   =  1.00D-04  PRINTCI =  5.00D-02  PUNCHCI =  9.90D+01  OPTGRAD =  1.00D-06
 OPTENERG=  1.00D-06  OPTSTEP =  3.00D-04  THRGRAD =  1.00D-10  COMPRESS=  1.00D-13  VARMIN  =  1.00D-07  VARMAX  =  1.00D-03
 THRDOUB =  0.00D+00  THRDIV  =  1.00D-05  THRRED  =  1.00D-07  THRPSP  =  1.00D+00  THRDC   =  1.00D-10  THRCS   =  1.00D-10
 THRNRM  =  1.00D-08  THREQ   =  0.00D+00  THRDE   =  1.00D+00  THRREF  =  1.00D-05  SPARFAC =  1.00D+00  THRDLP  =  1.00D-07
 THRDIA  =  1.00D-10  THRDLS  =  1.00D-07  THRGPS  =  0.00D+00  THRKEX  =  0.00D+00  THRDIS  =  2.00D-01  THRVAR  =  1.00D-10
 THRLOC  =  1.00D-06  THRGAP  =  1.00D-06  THRLOCT = -1.00D+00  THRGAPT = -1.00D+00  THRORB  =  1.00D-06  THRMLTP =  0.00D+00
 THRCPQCI=  1.00D-10  KEXTA   =  0.00D+00  THRCOARS=  0.00D+00  SYMTOL  =  1.00D-06  GRADTOL =  1.00D-06  THROVL  =  1.00D-08
 THRORTH =  1.00D-08  GRID    =  1.00D-06  GRIDMAX =  1.00D-03  DTMAX   =  0.00D+00

 SETTING GEOMTYP        =    XYZ
 ZUNIT=BOHR
 

 Variable memory set to 1000000000 words,  buffer space   230000 words

 SETTING BASIS          =    CC-PVDZ


 Recomputing integrals since basis changed


 Using spherical harmonics

 Library entry C      S cc-pVDZ              selected for orbital group  1
 Library entry C      P cc-pVDZ              selected for orbital group  1
 Library entry C      D cc-pVDZ              selected for orbital group  1
 Library entry O      S cc-pVDZ              selected for orbital group  2
 Library entry O      P cc-pVDZ              selected for orbital group  2
 Library entry O      D cc-pVDZ              selected for orbital group  2
 Library entry H      S cc-pVDZ              selected for orbital group  3
 Library entry H      P cc-pVDZ              selected for orbital group  3

1PROGRAM * SEWARD (Integral evaluation for generally contracted gaussian basis sets)     Author: Roland Lindh, 1990

 Geometry written to block  1 of record 700


 Point group  C1  



 ATOMIC COORDINATES

 NR  ATOM    CHARGE       X              Y              Z

   1  C       6.00   -1.375666956   -0.024480461    0.000000351
   2  O       8.00    1.309817634    0.115537678    0.000000314
   3  H       1.00   -2.087464519    1.911699999   -0.000079899
   4  H       1.00   -2.106066034   -0.976805843    1.683053232
   5  H       1.00   -2.106058495   -0.976937182   -1.682981118
   6  H       1.00    1.941714209   -1.579146312   -0.000001290

 Bond lengths in Bohr (Angstrom)

 1-2  2.689132307  1-3  2.062874342  1-4  2.067141371  1-5  2.067141076  2-6  1.808658925
     ( 1.423027529)     ( 1.091626087)     ( 1.093884101)     ( 1.093883945)     ( 0.957101082)

 Bond angles

  1-2-6  107.46433435   2-1-3  107.20029519   2-1-4  112.13845896   2-1-5  112.13844025

  3-1-4  108.09024256   3-1-5  108.09009730   4-1-5  109.01197439

 NUCLEAR CHARGE:                   18
 NUMBER OF PRIMITIVE AOS:          82
 NUMBER OF SYMMETRY AOS:           80
 NUMBER OF CONTRACTIONS:           48   (  48A   )
 NUMBER OF CORE ORBITALS:           2   (   2A   )
 NUMBER OF VALENCE ORBITALS:       12   (  12A   )


 NUCLEAR REPULSION ENERGY   40.27965304


 Eigenvalues of metric

         1 0.968E-02 0.177E-01 0.369E-01 0.374E-01 0.381E-01 0.473E-01 0.478E-01 0.518E-01


 Contracted 2-electron integrals neglected if value below      1.0D-16
 AO integral compression algorithm  1   Integral accuracy      1.0D-16

     6.291 MB (compressed) written to integral file ( 98.2%)

     Node minimum: 6.291 MB, node maximum: 6.291 MB


 NUMBER OF SORTED TWO-ELECTRON INTEGRALS:     692076.     BUFFER LENGTH:  32768
 NUMBER OF SEGMENTS:   1  SEGMENT LENGTH:     692076      RECORD LENGTH: 524288

 Memory used in sort:       1.25 MW

 SORT1 READ      832256. AND WROTE      682148. INTEGRALS IN      2 RECORDS. CPU TIME:     0.01 SEC, REAL TIME:     0.02 SEC
 SORT2 READ      682148. AND WROTE      692076. INTEGRALS IN     24 RECORDS. CPU TIME:     0.02 SEC, REAL TIME:     0.02 SEC

 FILE SIZES:   FILE 1:     8.0 MBYTE,  FILE 4:     8.4 MBYTE,   TOTAL:     16.4 MBYTE

 OPERATOR DM      FOR CENTER  0  COORDINATES:    0.000000    0.000000    0.000000


 **********************************************************************************************************************************
 DATASETS  * FILE   NREC   LENGTH (MB)   RECORD NAMES
              1      19        8.03       500      610      700      900      950      970     1000      129      960     1100   
                                          VAR    BASINP    GEOM    SYMINP    ZMAT    AOBASIS   BASIS     P2S    ABASIS      S 
                                         1400     1410     1200     1210     1080     1600     1650     1300     1700   
                                           T        V       H0       H01     AOSYM     SMH    MOLCAS    ERIS     OPER   

 PROGRAMS   *        TOTAL       INT
 CPU TIMES  *         0.19      0.15
 REAL TIME  *         0.36 SEC
 DISK USED  *        23.34 MB      
 GA USED    *         0.00 MB       (max)       0.00 MB       (current)
 **********************************************************************************************************************************

1PROGRAM * RHF-SCF (CLOSED SHELL)       Authors: W. Meyer, H.-J. Werner


 NUMBER OF ELECTRONS:       9+    9-    SPACE SYMMETRY=1    SPIN SYMMETRY: Singlet 
 CONVERGENCE THRESHOLDS:    1.00E-10 (Density)    1.00E-13 (Energy)
 MAX. NUMBER OF ITERATIONS:      200
 INTERPOLATION TYPE:            DIIS
 INTERPOLATION STEPS:              2 (START)      1 (STEP)
 LEVEL SHIFTS:                  0.00 (CLOSED)  0.00 (OPEN) 



 Orbital guess generated from atomic densities. Full valence occupancy:   14

 Molecular orbital dump at record        2100.2

 ITERATION    DDIFF          GRAD             ENERGY        2-EL.EN.            DIPOLE MOMENTS         DIIS
    1      0.000D+00      0.000D+00      -115.01427369    164.328873   -0.50270   -0.89511   -0.00000    0
    2      0.000D+00      0.110D-01      -115.04259388    162.118410   -0.32140   -0.53485   -0.00000    1
    3      0.205D-01      0.530D-02      -115.04862925    163.139431   -0.40529   -0.60942   -0.00000    2
    4      0.639D-02      0.112D-02      -115.04909096    162.984262   -0.39486   -0.59876   -0.00000    3
    5      0.204D-02      0.201D-03      -115.04911172    162.990583   -0.39757   -0.59459   -0.00000    4
    6      0.431D-03      0.351D-04      -115.04911250    162.990708   -0.39783   -0.59441   -0.00000    5
    7      0.923D-04      0.725D-05      -115.04911253    162.989534   -0.39796   -0.59425   -0.00000    6
    8      0.148D-04      0.233D-05      -115.04911253    162.989910   -0.39799   -0.59422   -0.00000    7
    9      0.495D-05      0.482D-06      -115.04911253    162.989869   -0.39800   -0.59422   -0.00000    6
   10      0.138D-05      0.841D-07      -115.04911253    162.989868   -0.39800   -0.59422   -0.00000    6
   11      0.228D-06      0.315D-07      -115.04911253    162.989873   -0.39800   -0.59422   -0.00000    6
   12      0.568D-07      0.129D-07      -115.04911253    162.989871   -0.39800   -0.59422   -0.00000    7
   13      0.237D-07      0.290D-08      -115.04911253    162.989872   -0.39800   -0.59422   -0.00000    7
   14      0.719D-08      0.632D-09      -115.04911253    162.989872   -0.39800   -0.59422   -0.00000    7
   15      0.162D-08      0.144D-09      -115.04911253    162.989872   -0.39800   -0.59422   -0.00000    7
   16      0.321D-09      0.430D-10      -115.04911253    162.989872   -0.39800   -0.59422   -0.00000    7
   17      0.835D-10      0.154D-10      -115.04911253    162.989872   -0.39800   -0.59422   -0.00000    7
   18      0.395D-10      0.280D-11      -115.04911253    162.989872   -0.39800   -0.59422   -0.00000    7
   19      0.654D-11      0.564D-12      -115.04911253    162.989872   -0.39800   -0.59422   -0.00000    0

 Final occupancy:   9

 !RHF STATE 1.1 Energy               -115.049112531703
 Nuclear energy                        40.27965304
 One-electron energy                 -236.82370135
 Two-electron energy                   81.49493578
 Virial quotient                       -1.00094351
 !RHF STATE 1.1 Dipole moment          -0.39800378    -0.59422402    -0.00000278
 Dipole moment /Debye                  -1.01155845    -1.51026790    -0.00000707

 Orbital energies:

         1.1          2.1          3.1          4.1          5.1          6.1          7.1          8.1          9.1         10.1
    -20.549620   -11.275080    -1.349540    -0.921500    -0.682437    -0.613946    -0.584533    -0.496773    -0.443487     0.184739

        11.1
      0.224359


 **********************************************************************************************************************************
 DATASETS  * FILE   NREC   LENGTH (MB)   RECORD NAMES
              1      19        8.03       500      610      700      900      950      970     1000      129      960     1100   
                                          VAR    BASINP    GEOM    SYMINP    ZMAT    AOBASIS   BASIS     P2S    ABASIS      S 
                                         1400     1410     1200     1210     1080     1600     1650     1300     1700   
                                           T        V       H0       H01     AOSYM     SMH    MOLCAS    ERIS     OPER   

              2       3        0.39       700     1000     2100   
                                         GEOM     BASIS     RHF  

 PROGRAMS   *        TOTAL       RHF       INT
 CPU TIMES  *         0.27      0.08      0.15
 REAL TIME  *         0.47 SEC
 DISK USED  *        23.34 MB      
 GA USED    *         0.00 MB       (max)       0.00 MB       (current)
 **********************************************************************************************************************************


1PROGRAM * CCSD (Closed-shell coupled cluster)     Authors: C. Hampel, H.-J. Werner, 1991, M. Deegan, P.J. Knowles, 1992


 Convergence thresholds:  THRVAR = 1.00D-08  THRDEN = 1.00D-12

 CCSD(T)     terms to be evaluated (factor= 1.000)


 Number of core orbitals:           2 (   2 )
 Number of closed-shell orbitals:   7 (   7 )
 Number of external orbitals:      39 (  39 )

 Molecular orbitals read from record     2100.2  Type=RHF/CANONICAL (state 1.1)

 Number of N-1 electron functions:               7
 Number of N-2 electron functions:              28
 Number of singly external CSFs:               273
 Number of doubly external CSFs:             37401
 Total number of CSFs:                       37675

 Length of J-op  integral file:               0.00 MB
 Length of K-op  integral file:               0.19 MB
 Length of 3-ext integral record:             0.00 MB

 Memory could be reduced to 0.96 Mwords without degradation in triples

 Integral transformation finished. Total CPU:   0.02 sec, npass=  1  Memory used:   0.66 MW

 Reference energy:                   -115.04911253

 MP2 singlet pair energy:              -0.21863053
 MP2 triplet pair energy:              -0.11980014
 MP2 correlation energy:               -0.33843068
 MP2 total energy:                   -115.38754321

 SCS-MP2 correlation energy:           -0.33689895   (PS=  1.200000  PT=  0.333333)
 SCS-MP2 total energy:               -115.38601148

 ITER.      SQ.NORM     CORR.ENERGY   TOTAL ENERGY   ENERGY CHANGE        DEN1      VAR(S)    VAR(P)  DIIS     TIME
   1      1.10733848    -0.36124472  -115.41035726    -0.02281405    -0.01413357  0.91D-03  0.17D-02  1  1     0.05
   2      1.11586751    -0.36319035  -115.41230288    -0.00194562    -0.00925120  0.20D-04  0.16D-03  2  2     0.08
   3      1.11774974    -0.36331802  -115.41243055    -0.00012767    -0.00120446  0.95D-05  0.86D-05  3  3     0.11
   4      1.11826515    -0.36331668  -115.41242921     0.00000134    -0.00025498  0.33D-06  0.68D-06  4  4     0.14
   5      1.11836341    -0.36331709  -115.41242962    -0.00000041    -0.00003613  0.99D-07  0.49D-07  5  5     0.17
   6      1.11838246    -0.36331573  -115.41242827     0.00000135    -0.00000436  0.16D-07  0.41D-08  6  6     0.21
   7      1.11838719    -0.36331532  -115.41242785     0.00000042    -0.00000035  0.20D-08  0.72D-09  6  1     0.24
   8      1.11838845    -0.36331542  -115.41242795    -0.00000010     0.00000075  0.26D-09  0.72D-10  6  3     0.27
   9      1.11838952    -0.36331529  -115.41242783     0.00000012    -0.00000038  0.13D-10  0.10D-10  6  2     0.30
  10      1.11838944    -0.36331530  -115.41242783    -0.00000000     0.00000007  0.11D-11  0.88D-12  6  5     0.34
  11      1.11838947    -0.36331529  -115.41242783     0.00000000    -0.00000000  0.19D-12  0.51D-13  6  4     0.37
  12      1.11838946    -0.36331530  -115.41242783    -0.00000000     0.00000001  0.19D-13  0.10D-13  6  1     0.40
  13      1.11838946    -0.36331530  -115.41242783    -0.00000000    -0.00000000  0.24D-14  0.94D-15  6  6     0.44
  14      1.11838946    -0.36331530  -115.41242783     0.00000000    -0.00000000  0.22D-15  0.12D-15  6  3     0.47
  15      1.11838946    -0.36331530  -115.41242783    -0.00000000    -0.00000000  0.25D-16  0.16D-16  6  2     0.50
  16      1.11838946    -0.36331530  -115.41242783    -0.00000000    -0.00000000  0.56D-17  0.16D-17  6  5     0.54
  17      1.11838946    -0.36331530  -115.41242783    -0.00000000    -0.00000000  0.53D-18  0.25D-18  6  4     0.57
  18      1.11838946    -0.36331530  -115.41242783     0.00000000    -0.00000000  0.83D-19  0.42D-19  6  1     0.60
  19      1.11838946    -0.36331530  -115.41242783    -0.00000000    -0.00000000  0.93D-20  0.43D-20  6  6     0.63
  20      1.11838946    -0.36331530  -115.41242783     0.00000000     0.00000000  0.13D-20  0.55D-21  6  3     0.67

 Norm of t1 vector:      0.04163542      S-energy:    -0.00000000      T1 diagnostic:  0.00786835
                                                                       D1 diagnostic:  0.01759368


 Total CPU time for triples:      0.16 sec


 RESULTS
 =======

  Reference energy                   -115.049112531703
  CCSD singlet pair energy             -0.254594075280
  CCSD triplet pair energy             -0.108721221672
  CCSD correlation energy              -0.363315296952

  Triples (T) contribution             -0.007737923826
  Total correlation energy             -0.371053220779

  CCSD total energy                  -115.412427828656
  CCSD[T] energy                     -115.420455833521
  CCSD-T energy                      -115.420015600294
 !CCSD(T) total energy               -115.420165752482

 Timing summary (sec):

 STEP                 CPU(USER)    SYS     CPU(TOT)    WALL
 Transformation          0.02      0.00      0.02      0.02
 CCSD iterations         0.65      0.05      0.70      0.72
 Triples                 0.16      0.00      0.16      0.17

 Program statistics:

 Available memory in ccsd:               999999704
 Min. memory needed in ccsd:                136801
 Max. memory used in ccsd:                  163198
 Max. memory used in cckext:                182024 (20 integral passes)



 **********************************************************************************************************************************
 DATASETS  * FILE   NREC   LENGTH (MB)   RECORD NAMES
              1      20       10.56       500      610      700      900      950      970     1000      129      960     1100   
                                          VAR    BASINP    GEOM    SYMINP    ZMAT    AOBASIS   BASIS     P2S    ABASIS      S 
                                         1400     1410     1200     1210     1080     1600     1650     1300     1700     1380   
                                           T        V       H0       H01     AOSYM     SMH    MOLCAS    ERIS     OPER     JKOP   

              2       3        0.39       700     1000     2100   
                                         GEOM     BASIS     RHF  

 PROGRAMS   *        TOTAL   CCSD(T)       RHF       INT
 CPU TIMES  *         1.11      0.84      0.08      0.15
 REAL TIME  *         1.40 SEC
 DISK USED  *        24.76 MB      
 GA USED    *         0.00 MB       (max)       0.00 MB       (current)
 **********************************************************************************************************************************

        CCSD(T)         RHF-SCF 
   -115.42016575   -115.04911253
 **********************************************************************************************************************************
 Variable memory released
