
    -----------------------------------------------------------------------
          Psi4: An Open-Source Ab Initio Electronic Structure Package
                               Psi4 1.4a2.dev629 

                         Git: Rev {master} 2938fc2 dirty


    D. G. A. Smith, L. A. Burns, A. C. Simmonett, R. M. Parrish,
    M. C. Schieber, R. Galvelis, P. Kraus, H. Kruse, R. Di Remigio,
    A. Alenaizan, A. M. James, S. Lehtola, J. P. Misiewicz, M. Scheurer,
    R. A. Shaw, J. B. Schriber, Y. Xie, Z. L. Glick, D. A. Sirianni,
    J. S. O'Brien, J. M. Waldrop, A. Kumar, E. G. Hohenstein,
    B. P. Pritchard, B. R. Brooks, H. F. Schaefer III, A. Yu. Sokolov,
    K. Patkowski, A. E. DePrince III, U. Bozkaya, R. A. King,
    F. A. Evangelista, J. M. Turney, T. D. Crawford, C. D. Sherrill,
    J. Chem. Phys. 152(18) 184108 (2020). https://doi.org/10.1063/5.0006002

                            Additional Code Authors
    E. T. Seidl, C. L. Janssen, E. F. Valeev, M. L. Leininger,
    J. F. Gonthier, R. M. Richard, H. R. McAlexander, M. Saitow, X. Wang,
    P. Verma, and M. H. Lechner

             Previous Authors, Complete List of Code Contributors,
                       and Citations for Specific Modules
    https://github.com/psi4/psi4/blob/master/codemeta.json
    https://github.com/psi4/psi4/graphs/contributors
    http://psicode.org/psi4manual/master/introduction.html#citing-psifour

    -----------------------------------------------------------------------


    Psi4 started on: Monday, 06 September 2021 06:16PM

    Process ID: 8402
    Host:       n013
    PSIDATADIR: /opt/psi/4/master/share/psi4
    Memory:     500.0 MiB
    Threads:    1
    
  ==> Input File <==

--------------------------------------------------------------------------
# o-Benzyne preliminary computations

memory 14 gb

molecule {
  0 1
  units bohr
 H    0.0000000000   -1.4192896310    0.9988688684
 O    0.0000000000    0.0049809420   -0.1274732469
 H    0.0000000000    1.4143086889    0.9949479985
}

set {
  basis cc-pvdz
  reference rhf
  e_convergence 10 
  d_convergence 10
  r_convergence 8
  maxiter 300
  freeze_core True
}

e, wfn = energy('ccsd(t)', return_wfn = True)
psi4.print_out('Giraffe The Energy is %.12f \n'%(e))
--------------------------------------------------------------------------

  Memory set to  13.039 GiB by Python driver.

Scratch directory: /tmp/

*** tstart() called on n013
*** at Mon Sep  6 18:16:38 2021

   => Loading Basis Set <=

    Name: CC-PVDZ
    Role: ORBITAL
    Keyword: BASIS
    atoms 1, 3 entry H          line    22 file /opt/psi/4/master/share/psi4/basis/cc-pvdz.gbs 
    atoms 2    entry O          line   198 file /opt/psi/4/master/share/psi4/basis/cc-pvdz.gbs 


         ---------------------------------------------------------
                                   SCF
               by Justin Turney, Rob Parrish, Andy Simmonett
                          and Daniel G. A. Smith
                              RHF Reference
                        1 Threads,  13351 MiB Core
         ---------------------------------------------------------

  ==> Geometry <==

    Molecular point group: cs
    Full point group: Cs

    Geometry (in Bohr), charge = 0, multiplicity = 1:

       Center              X                  Y                   Z               Mass       
    ------------   -----------------  -----------------  -----------------  -----------------
         H            1.423434410755    -1.000507082016     0.000000000000     1.007825032230
         O           -0.000836162245     0.125835033284     0.000000000000    15.994914619570
         H           -1.410163909145    -0.996586212116     0.000000000000     1.007825032230

  Running in cs symmetry.

  Rotational constants: A =     26.60366  B =     14.87737  C =      9.54153 [cm^-1]
  Rotational constants: A = 797557.53326  B = 446012.32376  C = 286047.85387 [MHz]
  Nuclear repulsion =    9.198948478547386

  Charge       = 0
  Multiplicity = 1
  Electrons    = 10
  Nalpha       = 5
  Nbeta        = 5

  ==> Algorithm <==

  SCF Algorithm Type is PK.
  DIIS enabled.
  MOM disabled.
  Fractional occupation disabled.
  Guess Type is SAD.
  Energy threshold   = 1.00e-10
  Density threshold  = 1.00e-10
  Integral threshold = 0.00e+00

  ==> Primary Basis <==

  Basis Set: CC-PVDZ
    Blend: CC-PVDZ
    Number of shells: 12
    Number of basis function: 24
    Number of Cartesian functions: 25
    Spherical Harmonics?: true
    Max angular momentum: 2

  ==> Integral Setup <==

  Using in-core PK algorithm.
   Calculation information:
      Number of atoms:                   3
      Number of AO shells:              12
      Number of primitives:             32
      Number of atomic orbitals:        25
      Number of basis functions:        24

      Integral cutoff                 1.00e-12
      Number of threads:                 1

  Performing in-core PK
  Using 90300 doubles for integral storage.
  We computed 3081 shell quartets total.
  Whereas there are 3081 unique shell quartets.

  ==> DiskJK: Disk-Based J/K Matrices <==

    J tasked:                  Yes
    K tasked:                  Yes
    wK tasked:                  No
    Memory [MiB]:            10013
    Schwarz Cutoff:          1E-12

    OpenMP threads:              1

  Minimum eigenvalue in the overlap matrix is 3.3982016502E-02.
  Reciprocal condition number of the overlap matrix is 9.1328521308E-03.
    Using symmetric orthogonalization.

  ==> Pre-Iterations <==

  SCF Guess: Superposition of Atomic Densities via on-the-fly atomic UHF (no occupation information).

   -------------------------
    Irrep   Nso     Nmo    
   -------------------------
     A'        18      18 
     A"         6       6 
   -------------------------
    Total      24      24
   -------------------------

  ==> Iterations <==

                        Total Energy        Delta E     RMS |[F,P]|

   @RHF iter SAD:   -75.51328231442788   -7.55133e+01   0.00000e+00 
   @RHF iter   1:   -75.95379684949822   -4.40515e-01   2.20378e-02 DIIS
   @RHF iter   2:   -76.00721534253198   -5.34185e-02   1.26044e-02 DIIS
   @RHF iter   3:   -76.02633828859442   -1.91229e-02   1.14796e-03 DIIS
   @RHF iter   4:   -76.02672101420153   -3.82726e-04   2.63640e-04 DIIS
   @RHF iter   5:   -76.02674016604207   -1.91518e-05   4.81766e-05 DIIS
   @RHF iter   6:   -76.02674106032454   -8.94282e-07   7.49977e-06 DIIS
   @RHF iter   7:   -76.02674108387539   -2.35509e-08   9.78563e-07 DIIS
   @RHF iter   8:   -76.02674108427955   -4.04157e-10   2.26738e-07 DIIS
   @RHF iter   9:   -76.02674108430577   -2.62190e-11   4.27223e-08 DIIS
   @RHF iter  10:   -76.02674108430666   -8.95284e-13   3.53623e-09 DIIS
   @RHF iter  11:   -76.02674108430666    0.00000e+00   6.44718e-10 DIIS
   @RHF iter  12:   -76.02674108430675   -8.52651e-14   8.02664e-11 DIIS
  Energy and wave function converged.


  ==> Post-Iterations <==

    Orbital Energies [Eh]
    ---------------------

    Doubly Occupied:                                                      

       1Ap   -20.551161     2Ap    -1.337872     3Ap    -0.696695  
       4Ap    -0.569436     1App   -0.493658  

    Virtual:                                                              

       5Ap     0.185284     6Ap     0.256439     7Ap     0.784562  
       8Ap     0.860851     9Ap     1.164670     2App    1.200011  
      10Ap     1.254768    11Ap     1.431714     3App    1.480939  
       4App    1.666870    12Ap     1.864268    13Ap     1.943258  
      14Ap     2.447679    15Ap     2.495244     5App    3.292665  
       6App    3.334107    16Ap     3.516058    17Ap     3.855563  
      18Ap     4.155601  

    Final Occupation by Irrep:
             Ap   App 
    DOCC [     4,    1 ]

  @RHF Final Energy:   -76.02674108430675

   => Energetics <=

    Nuclear Repulsion Energy =              9.1989484785473863
    One-Electron Energy =                -123.1537349013809575
    Two-Electron Energy =                  37.9280453385268217
    Total Energy =                        -76.0267410843067353

Computation Completed


Properties will be evaluated at   0.000000,   0.000000,   0.000000 [a0]

Properties computed using the SCF density matrix

  Nuclear Dipole Moment: [e a0]
     X:     0.0066      Y:    -0.9904      Z:     0.0000

  Electronic Dipole Moment: [e a0]
     X:    -0.0031      Y:     0.1732      Z:     0.0000

  Dipole Moment: [e a0]
     X:     0.0035      Y:    -0.8172      Z:     0.0000     Total:     0.8172

  Dipole Moment: [D]
     X:     0.0088      Y:    -2.0771      Z:     0.0000     Total:     2.0772


*** tstop() called on n013 at Mon Sep  6 18:16:40 2021
Module time:
	user time   =       1.29 seconds =       0.02 minutes
	system time =       0.01 seconds =       0.00 minutes
	total time  =          2 seconds =       0.03 minutes
Total time:
	user time   =       1.29 seconds =       0.02 minutes
	system time =       0.01 seconds =       0.00 minutes
	total time  =          2 seconds =       0.03 minutes
 MINTS: Wrapper to libmints.
   by Justin Turney

   Calculation information:
      Number of threads:                 1
      Number of atoms:                   3
      Number of AO shells:              12
      Number of SO shells:              12
      Number of primitives:             32
      Number of atomic orbitals:        25
      Number of basis functions:        24

      Number of irreps:                  2
      Integral cutoff                 0.00e+00
      Number of functions per irrep: [  18    6 ]

 OEINTS: Overlap, kinetic, potential, dipole, and quadrupole integrals
         stored in file 35.

      Computing two-electron integrals...done
      Computed 22660 non-zero two-electron integrals.
        Stored in file 33.


*** tstart() called on n013
*** at Mon Sep  6 18:16:40 2021


	Wfn Parameters:
	--------------------
	Wavefunction         = CCSD_T
	Number of irreps     = 2
	Number of MOs        = 24
	Number of active MOs = 23
	AO-Basis             = NONE
	Semicanonical        = false
	Reference            = RHF
	Print Level          = 1

	IRREP	# MOs	# FZDC	# DOCC	# SOCC	# VIRT	# FZVR
	-----	-----	------	------	------	------	------
	 Ap	   18	    1	    3	    0	    14	    0
	 App	   6	    0	    1	    0	    5	    0
	Transforming integrals...
	IWL integrals will be deleted.
	(OO|OO)...
	Presorting SO-basis two-electron integrals.
	Sorting File: SO Ints (nn|nn) nbuckets = 1
	Transforming the one-electron integrals and constructing Fock matrices
	Starting first half-transformation.
	Sorting half-transformed integrals.
	First half integral transformation complete.
	Starting second half-transformation.
	Two-electron integral transformation complete.
	(OO|OV)...
	Starting second half-transformation.
	Two-electron integral transformation complete.
	(OO|VV)...
	Starting second half-transformation.
	Two-electron integral transformation complete.
	(OV|OO)...
	Starting first half-transformation.
	Sorting half-transformed integrals.
	First half integral transformation complete.
	Starting second half-transformation.
	Two-electron integral transformation complete.
	(OV|OV)...
	Starting second half-transformation.
	Two-electron integral transformation complete.
	(OV|VV)...
	Starting second half-transformation.
	Two-electron integral transformation complete.
	(VV|OO)...
	Starting first half-transformation.
	Sorting half-transformed integrals.
	First half integral transformation complete.
	Starting second half-transformation.
	Two-electron integral transformation complete.
	(VV|OV)...
	Starting second half-transformation.
	Two-electron integral transformation complete.
	(VV|VV)...
	Starting second half-transformation.
	Two-electron integral transformation complete.
	Frozen core energy     =    -61.31657230603042

	Size of irrep 0 of <ab|cd> integrals:      0.049 (MW) /      0.391 (MB)
	Size of irrep 1 of <ab|cd> integrals:      0.020 (MW) /      0.157 (MB)
	Total:                                     0.068 (MW) /      0.548 (MB)

	Size of irrep 0 of <ia|bc> integrals:      0.010 (MW) /      0.083 (MB)
	Size of irrep 1 of <ia|bc> integrals:      0.004 (MW) /      0.032 (MB)
	Total:                                     0.014 (MW) /      0.116 (MB)

	Size of irrep 0 of tijab amplitudes:       0.002 (MW) /      0.018 (MB)
	Size of irrep 1 of tijab amplitudes:       0.001 (MW) /      0.007 (MB)
	Total:                                     0.003 (MW) /      0.024 (MB)

	Nuclear Rep. energy          =      9.19894847854739
	SCF energy                   =    -76.02674108430675
	One-electron energy          =    -41.62291319097192
	Two-electron energy          =     17.71379593414822
	Reference energy             =    -76.02674108430674

*** tstop() called on n013 at Mon Sep  6 18:16:40 2021
Module time:
	user time   =       0.03 seconds =       0.00 minutes
	system time =       0.03 seconds =       0.00 minutes
	total time  =          0 seconds =       0.00 minutes
Total time:
	user time   =       1.39 seconds =       0.02 minutes
	system time =       0.05 seconds =       0.00 minutes
	total time  =          2 seconds =       0.03 minutes
            **************************
            *                        *
            *        CCENERGY        *
            *                        *
            **************************

    Nuclear Rep. energy (wfn)     =    9.198948478547386
    SCF energy          (wfn)     =  -76.026741084306749
    Reference energy    (file100) =  -76.026741084306735

    Input parameters:
    -----------------
    Wave function   =     CCSD_T
    Reference wfn   =     RHF
    Brueckner       =     No
    Memory (Mbytes) =     14000.0
    Maxiter         =    300
    R_Convergence   =     1.0e-08
    E_Convergence   =     1.0e-10
    Restart         =     Yes
    DIIS            =     Yes
    AO Basis        =     NONE
    ABCD            =     NEW
    Cache Level     =     2
    Cache Type      =     LOW
    Print Level     =     1
    Num. of threads =     1
    # Amps to Print =     10
    Print MP2 Amps? =     No
    Analyze T2 Amps =     No
    Print Pair Ener =     No
    Local CC        =     No
    SCS-MP2         =     False
    SCSN-MP2        =     False
    SCS-CCSD        =     False

MP2 correlation energy -0.2017608323280882
                Solving CC Amplitude Equations
                ------------------------------
  Iter             Energy              RMS        T1Diag      D1Diag    New D1Diag    D2Diag
  ----     ---------------------    ---------   ----------  ----------  ----------   --------
     0        -0.201760832328088    0.000e+00    0.000000    0.000000    0.000000    0.109595
     1        -0.206931898891416    2.662e-02    0.004509    0.008650    0.008650    0.116554
     2        -0.210880180740025    9.370e-03    0.005336    0.009970    0.009970    0.121898
     3        -0.211291154865448    2.426e-03    0.005815    0.010779    0.010779    0.123109
     4        -0.211302199001732    5.556e-04    0.005860    0.010929    0.010929    0.123308
     5        -0.211313285413508    1.632e-04    0.005885    0.011028    0.011028    0.123343
     6        -0.211311500395771    5.386e-05    0.005894    0.011069    0.011069    0.123336
     7        -0.211311285967882    1.464e-05    0.005897    0.011083    0.011083    0.123335
     8        -0.211311163101345    2.540e-06    0.005898    0.011085    0.011085    0.123334
     9        -0.211311117232777    6.134e-07    0.005898    0.011085    0.011085    0.123334
    10        -0.211311131433050    1.241e-07    0.005898    0.011085    0.011085    0.123334
    11        -0.211311130136914    2.637e-08    0.005898    0.011085    0.011085    0.123334
    12        -0.211311130550980    4.404e-09    0.005898    0.011085    0.011085    0.123334
    13        -0.211311130438617    9.641e-10    0.005898    0.011085    0.011085    0.123334
    14        -0.211311130431192    1.984e-10    0.005898    0.011085    0.011085    0.123334
    15        -0.211311130428460    5.713e-11    0.005898    0.011085    0.011085    0.123334

    Iterations converged.


    Largest TIA Amplitudes:
              2   0         0.0074269571
              1   9        -0.0071995670
              1   1         0.0060373270
              2  10        -0.0048990663
              1   5         0.0046049583
              0   4         0.0041958181
              0   0         0.0037171726
              3  16         0.0033101177
              3  14         0.0030619929
              2   3         0.0030075847

    Largest TIjAb Amplitudes:
      3   3  14  14        -0.0513910854
      1   1   2   2        -0.0361416282
      2   2   4   4        -0.0348305738
      1   1   1   1        -0.0295045271
      2   3   4  14         0.0283267898
      3   2  14   4         0.0283267898
      1   1   3   3        -0.0278355206
      2   2   2   2        -0.0258009814
      1   3   5  14         0.0229093953
      3   1  14   5         0.0229093953

    SCF energy       (wfn)                    =  -76.026741084306749
    Reference energy (file100)                =  -76.026741084306735

    Opposite-spin MP2 correlation energy      =   -0.151011032912471
    Same-spin MP2 correlation energy          =   -0.050749799415617
    Singles MP2 correlation energy            =   -0.000000000000000
    MP2 correlation energy                    =   -0.201760832328088
      * MP2 total energy                      =  -76.228501916634826

    Opposite-spin CCSD correlation energy     =   -0.165978018581476
    Same-spin CCSD correlation energy         =   -0.045333111846985
    Singles CCSD correlation energy           =    0.000000000000000
    CCSD correlation energy                   =   -0.211311130428460
      * CCSD total energy                     =  -76.238052214735191

            **************************
            *                        *
            *        CCTRIPLES       *
            *                        *
            **************************


    Wave function   =    CCSD_T
    Reference wfn   =      RHF

    Nuclear Rep. energy (wfn)                =    9.198948478547386
    SCF energy          (wfn)                =  -76.026741084306749
    Reference energy    (file100)            =  -76.026741084306735
    CCSD energy         (file100)            =   -0.211311130428460
    Total CCSD energy   (file100)            =  -76.238052214735191

    Number of ijk index combinations:               20
    Memory available in words        :      1750000000
    ~Words needed per explicit thread:           10976
    Number of threads for explicit ijk threading:    1

    MKL num_threads set to 1 for explicit threading.

    (T) energy                                =   -0.003047619805197
      * CCSD(T) total energy                  =  -76.241099834540393

Giraffe The Energy is -76.241099834540 

    Psi4 stopped on: Monday, 06 September 2021 06:16PM
    Psi4 wall time for execution: 0:00:06.21

*** Psi4 exiting successfully. Buy a developer a beer!
