
    -----------------------------------------------------------------------
          Psi4: An Open-Source Ab Initio Electronic Structure Package
                               Psi4 1.4a2.dev629 

                         Git: Rev {master} 2938fc2 dirty


    D. G. A. Smith, L. A. Burns, A. C. Simmonett, R. M. Parrish,
    M. C. Schieber, R. Galvelis, P. Kraus, H. Kruse, R. Di Remigio,
    A. Alenaizan, A. M. James, S. Lehtola, J. P. Misiewicz, M. Scheurer,
    R. A. Shaw, J. B. Schriber, Y. Xie, Z. L. Glick, D. A. Sirianni,
    J. S. O'Brien, J. M. Waldrop, A. Kumar, E. G. Hohenstein,
    B. P. Pritchard, B. R. Brooks, H. F. Schaefer III, A. Yu. Sokolov,
    K. Patkowski, A. E. DePrince III, U. Bozkaya, R. A. King,
    F. A. Evangelista, J. M. Turney, T. D. Crawford, C. D. Sherrill,
    J. Chem. Phys. 152(18) 184108 (2020). https://doi.org/10.1063/5.0006002

                            Additional Code Authors
    E. T. Seidl, C. L. Janssen, E. F. Valeev, M. L. Leininger,
    J. F. Gonthier, R. M. Richard, H. R. McAlexander, M. Saitow, X. Wang,
    P. Verma, and M. H. Lechner

             Previous Authors, Complete List of Code Contributors,
                       and Citations for Specific Modules
    https://github.com/psi4/psi4/blob/master/codemeta.json
    https://github.com/psi4/psi4/graphs/contributors
    http://psicode.org/psi4manual/master/introduction.html#citing-psifour

    -----------------------------------------------------------------------


    Psi4 started on: Monday, 24 October 2022 12:09PM

    Process ID: 54687
    Host:       n072
    PSIDATADIR: /opt/psi/4/master/share/psi4
    Memory:     500.0 MiB
    Threads:    4
    
  ==> Input File <==

--------------------------------------------------------------------------
# o-Benzyne preliminary computations

memory 14 gb

molecule {
  0 1
  units bohr
 H   -0.0000000000   -1.4194737794    0.9984168683
 O    0.0000000000    0.0000000000   -0.1304901165
 H    0.0000000000    1.4194737794    0.9984168683
}

set {
  basis cc-pvtz
  reference rhf
  e_convergence 10 
  d_convergence 10
  r_convergence 8
  maxiter 300
  freeze_core True
}

e, wfn = energy('ccsd(t)', return_wfn = True)
psi4.print_out('Giraffe The Energy is %.12f \n'%(e))
--------------------------------------------------------------------------

  Memory set to  13.039 GiB by Python driver.

Scratch directory: /tmp/795444.2.gen5.q/

*** tstart() called on n072
*** at Mon Oct 24 12:09:40 2022

   => Loading Basis Set <=

    Name: CC-PVTZ
    Role: ORBITAL
    Keyword: BASIS
    atoms 1, 3 entry H          line    23 file /opt/psi/4/master/share/psi4/basis/cc-pvtz.gbs 
    atoms 2    entry O          line   262 file /opt/psi/4/master/share/psi4/basis/cc-pvtz.gbs 


         ---------------------------------------------------------
                                   SCF
               by Justin Turney, Rob Parrish, Andy Simmonett
                          and Daniel G. A. Smith
                              RHF Reference
                        4 Threads,  13351 MiB Core
         ---------------------------------------------------------

  ==> Geometry <==

    Molecular point group: c2v
    Full point group: C2v

    Geometry (in Bohr), charge = 0, multiplicity = 1:

       Center              X                  Y                   Z               Mass       
    ------------   -----------------  -----------------  -----------------  -----------------
         H            0.000000000000    -1.419473779400     1.002565502642     1.007825032230
         O            0.000000000000     0.000000000000    -0.126341482158    15.994914619570
         H           -0.000000000000     1.419473779400     1.002565502642     1.007825032230

  Running in c2v symmetry.

  Rotational constants: A =     26.38810  B =     14.82260  C =      9.49123 [cm^-1]
  Rotational constants: A = 791095.43793  B = 444370.32365  C = 284539.92553 [MHz]
  Nuclear repulsion =    9.174217978808883

  Charge       = 0
  Multiplicity = 1
  Electrons    = 10
  Nalpha       = 5
  Nbeta        = 5

  ==> Algorithm <==

  SCF Algorithm Type is PK.
  DIIS enabled.
  MOM disabled.
  Fractional occupation disabled.
  Guess Type is SAD.
  Energy threshold   = 1.00e-10
  Density threshold  = 1.00e-10
  Integral threshold = 0.00e+00

  ==> Primary Basis <==

  Basis Set: CC-PVTZ
    Blend: CC-PVTZ
    Number of shells: 22
    Number of basis function: 58
    Number of Cartesian functions: 65
    Spherical Harmonics?: true
    Max angular momentum: 3

  ==> Integral Setup <==

  Using in-core PK algorithm.
   Calculation information:
      Number of atoms:                   3
      Number of AO shells:              22
      Number of primitives:             42
      Number of atomic orbitals:        65
      Number of basis functions:        58

      Integral cutoff                 1.00e-12
      Number of threads:                 4

  Performing in-core PK
  Using 2929232 doubles for integral storage.
  We computed 43467 shell quartets total.
  Whereas there are 32131 unique shell quartets.
    35.28 percent of shell quartets recomputed by reordering.

  ==> DiskJK: Disk-Based J/K Matrices <==

    J tasked:                  Yes
    K tasked:                  Yes
    wK tasked:                  No
    Memory [MiB]:            10013
    Schwarz Cutoff:          1E-12

    OpenMP threads:              4

  Minimum eigenvalue in the overlap matrix is 2.2568899777E-03.
  Reciprocal condition number of the overlap matrix is 5.1752168210E-04.
    Using symmetric orthogonalization.

  ==> Pre-Iterations <==

  SCF Guess: Superposition of Atomic Densities via on-the-fly atomic UHF (no occupation information).

   -------------------------
    Irrep   Nso     Nmo    
   -------------------------
     A1        23      23 
     A2         7       7 
     B1        11      11 
     B2        17      17 
   -------------------------
    Total      58      58
   -------------------------

  ==> Iterations <==

                        Total Energy        Delta E     RMS |[F,P]|

   @RHF iter SAD:   -75.50010501014280   -7.55001e+01   0.00000e+00 
   @RHF iter   1:   -75.97820447784002   -4.78099e-01   1.43658e-02 DIIS
   @RHF iter   2:   -76.03081385714975   -5.26094e-02   9.30085e-03 DIIS
   @RHF iter   3:   -76.05644452786879   -2.56307e-02   6.94478e-04 DIIS
   @RHF iter   4:   -76.05683426598061   -3.89738e-04   1.70159e-04 DIIS
   @RHF iter   5:   -76.05685907632838   -2.48103e-05   3.52761e-05 DIIS
   @RHF iter   6:   -76.05686063840629   -1.56208e-06   6.78498e-06 DIIS
   @RHF iter   7:   -76.05686069706466   -5.86584e-08   1.06352e-06 DIIS
   @RHF iter   8:   -76.05686069823041   -1.16574e-09   1.59691e-07 DIIS
   @RHF iter   9:   -76.05686069825728   -2.68727e-11   4.45235e-08 DIIS
   @RHF iter  10:   -76.05686069825950   -2.21689e-12   5.97452e-09 DIIS
   @RHF iter  11:   -76.05686069825950    0.00000e+00   8.40660e-10 DIIS
   @RHF iter  12:   -76.05686069825958   -8.52651e-14   1.36416e-10 DIIS
   @RHF iter  13:   -76.05686069825951    7.10543e-14   1.61791e-11 DIIS
  Energy and wave function converged.


  ==> Post-Iterations <==

    Orbital Energies [Eh]
    ---------------------

    Doubly Occupied:                                                      

       1A1   -20.555922     2A1    -1.345516     1B2    -0.705525  
       3A1    -0.580237     1B1    -0.504772  

    Virtual:                                                              

       4A1     0.141717     2B2     0.204136     3B2     0.540672  
       5A1     0.606208     6A1     0.667659     2B1     0.787102  
       7A1     0.793005     4B2     0.806092     1A2     0.863816  
       3B1     0.948668     8A1     1.135341     5B2     1.200017  
       6B2     1.521114     9A1     1.565753     4B1     2.042755  
       7B2     2.054945     2A2     2.061778    10A1     2.173114  
      11A1     2.232890    12A1     2.581885     8B2     2.966122  
       5B1     3.341458    13A1     3.482306     3A2     3.592677  
       9B2     3.662074     6B1     3.796409    10B2     3.876282  
      14A1     3.888360     4A2     3.965032     7B1     4.015509  
      11B2     4.070844    15A1     4.191388     5A2     4.302798  
      16A1     4.368024    12B2     4.602385     8B1     4.681007  
      13B2     4.862116    17A1     5.159480    18A1     5.249574  
      14B2     5.521793     9B1     6.053128    19A1     6.580430  
      10B1     6.910586     6A2     6.936062    11B1     7.005839  
      20A1     7.017382    15B2     7.023418    21A1     7.182195  
       7A2     7.235767    22A1     7.445756    16B2     7.794680  
      17B2     8.289326    23A1    12.828595  

    Final Occupation by Irrep:
             A1    A2    B1    B2 
    DOCC [     3,    0,    1,    1 ]

  @RHF Final Energy:   -76.05686069825951

   => Energetics <=

    Nuclear Repulsion Energy =              9.1742179788088833
    One-Electron Energy =                -123.0782129519480037
    Two-Electron Energy =                  37.8471342748796076
    Total Energy =                        -76.0568606982595128

Computation Completed


Properties will be evaluated at   0.000000,   0.000000,   0.000000 [a0]

Properties computed using the SCF density matrix

  Nuclear Dipole Moment: [e a0]
     X:     0.0000      Y:     0.0000      Z:     0.9944

  Electronic Dipole Moment: [e a0]
     X:     0.0000      Y:     0.0000      Z:    -0.1875

  Dipole Moment: [e a0]
     X:     0.0000      Y:     0.0000      Z:     0.8069     Total:     0.8069

  Dipole Moment: [D]
     X:     0.0000      Y:     0.0000      Z:     2.0509     Total:     2.0509


*** tstop() called on n072 at Mon Oct 24 12:09:41 2022
Module time:
	user time   =       2.05 seconds =       0.03 minutes
	system time =       0.06 seconds =       0.00 minutes
	total time  =          1 seconds =       0.02 minutes
Total time:
	user time   =       2.05 seconds =       0.03 minutes
	system time =       0.06 seconds =       0.00 minutes
	total time  =          1 seconds =       0.02 minutes
 MINTS: Wrapper to libmints.
   by Justin Turney

   Calculation information:
      Number of threads:                 4
      Number of atoms:                   3
      Number of AO shells:              22
      Number of SO shells:              16
      Number of primitives:             42
      Number of atomic orbitals:        65
      Number of basis functions:        58

      Number of irreps:                  4
      Integral cutoff                 0.00e+00
      Number of functions per irrep: [  23    7   11   17 ]

 OEINTS: Overlap, kinetic, potential, dipole, and quadrupole integrals
         stored in file 35.

      Computing two-electron integrals...done
      Computed 356558 non-zero two-electron integrals.
        Stored in file 33.


*** tstart() called on n072
*** at Mon Oct 24 12:09:41 2022


	Wfn Parameters:
	--------------------
	Wavefunction         = CCSD_T
	Number of irreps     = 4
	Number of MOs        = 58
	Number of active MOs = 57
	AO-Basis             = NONE
	Semicanonical        = false
	Reference            = RHF
	Print Level          = 1

	IRREP	# MOs	# FZDC	# DOCC	# SOCC	# VIRT	# FZVR
	-----	-----	------	------	------	------	------
	 A1	   23	    1	    2	    0	    20	    0
	 A2	   7	    0	    0	    0	    7	    0
	 B1	   11	    0	    1	    0	    10	    0
	 B2	   17	    0	    1	    0	    16	    0
	Transforming integrals...
	IWL integrals will be deleted.
	(OO|OO)...
	Presorting SO-basis two-electron integrals.
	Sorting File: SO Ints (nn|nn) nbuckets = 1
	Transforming the one-electron integrals and constructing Fock matrices
	Starting first half-transformation.
	Sorting half-transformed integrals.
	First half integral transformation complete.
	Starting second half-transformation.
	Two-electron integral transformation complete.
	(OO|OV)...
	Starting second half-transformation.
	Two-electron integral transformation complete.
	(OO|VV)...
	Starting second half-transformation.
	Two-electron integral transformation complete.
	(OV|OO)...
	Starting first half-transformation.
	Sorting half-transformed integrals.
	First half integral transformation complete.
	Starting second half-transformation.
	Two-electron integral transformation complete.
	(OV|OV)...
	Starting second half-transformation.
	Two-electron integral transformation complete.
	(OV|VV)...
	Starting second half-transformation.
	Two-electron integral transformation complete.
	(VV|OO)...
	Starting first half-transformation.
	Sorting half-transformed integrals.
	First half integral transformation complete.
	Starting second half-transformation.
	Two-electron integral transformation complete.
	(VV|OV)...
	Starting second half-transformation.
	Two-electron integral transformation complete.
	(VV|VV)...
	Starting second half-transformation.
	Two-electron integral transformation complete.
	Frozen core energy     =    -61.31093859738448

	Size of irrep 0 of <ab|cd> integrals:      0.648 (MW) /      5.184 (MB)
	Size of irrep 1 of <ab|cd> integrals:      0.360 (MW) /      2.880 (MB)
	Size of irrep 2 of <ab|cd> integrals:      0.389 (MW) /      3.115 (MB)
	Size of irrep 3 of <ab|cd> integrals:      0.608 (MW) /      4.867 (MB)
	Total:                                     2.006 (MW) /     16.046 (MB)

	Size of irrep 0 of <ia|bc> integrals:      0.053 (MW) /      0.425 (MB)
	Size of irrep 1 of <ia|bc> integrals:      0.024 (MW) /      0.192 (MB)
	Size of irrep 2 of <ia|bc> integrals:      0.029 (MW) /      0.235 (MB)
	Size of irrep 3 of <ia|bc> integrals:      0.046 (MW) /      0.368 (MB)
	Total:                                     0.152 (MW) /      1.220 (MB)

	Size of irrep 0 of tijab amplitudes:       0.005 (MW) /      0.039 (MB)
	Size of irrep 1 of tijab amplitudes:       0.001 (MW) /      0.010 (MB)
	Size of irrep 2 of tijab amplitudes:       0.002 (MW) /      0.020 (MB)
	Size of irrep 3 of tijab amplitudes:       0.003 (MW) /      0.025 (MB)
	Total:                                     0.012 (MW) /      0.093 (MB)

	Nuclear Rep. energy          =      9.17421797880888
	SCF energy                   =    -76.05686069825951
	One-electron energy          =    -41.56817991001842
	Two-electron energy          =     17.64803983033452
	Reference energy             =    -76.05686069825950

*** tstop() called on n072 at Mon Oct 24 12:09:42 2022
Module time:
	user time   =       0.32 seconds =       0.01 minutes
	system time =       0.06 seconds =       0.00 minutes
	total time  =          1 seconds =       0.02 minutes
Total time:
	user time   =       2.93 seconds =       0.05 minutes
	system time =       0.14 seconds =       0.00 minutes
	total time  =          2 seconds =       0.03 minutes
            **************************
            *                        *
            *        CCENERGY        *
            *                        *
            **************************

    Nuclear Rep. energy (wfn)     =    9.174217978808883
    SCF energy          (wfn)     =  -76.056860698259513
    Reference energy    (file100) =  -76.056860698259499

    Input parameters:
    -----------------
    Wave function   =     CCSD_T
    Reference wfn   =     RHF
    Brueckner       =     No
    Memory (Mbytes) =     14000.0
    Maxiter         =    300
    R_Convergence   =     1.0e-08
    E_Convergence   =     1.0e-10
    Restart         =     Yes
    DIIS            =     Yes
    AO Basis        =     NONE
    ABCD            =     NEW
    Cache Level     =     2
    Cache Type      =     LOW
    Print Level     =     1
    Num. of threads =     4
    # Amps to Print =     10
    Print MP2 Amps? =     No
    Analyze T2 Amps =     No
    Print Pair Ener =     No
    Local CC        =     No
    SCS-MP2         =     False
    SCSN-MP2        =     False
    SCS-CCSD        =     False

MP2 correlation energy -0.2617905022694013
                Solving CC Amplitude Equations
                ------------------------------
  Iter             Energy              RMS        T1Diag      D1Diag    New D1Diag    D2Diag
  ----     ---------------------    ---------   ----------  ----------  ----------   --------
     0        -0.261790502269401    0.000e+00    0.000000    0.000000    0.000000    0.116311
     1        -0.262086406267519    2.916e-02    0.005722    0.009316    0.009316    0.119964
     2        -0.266939472882540    1.006e-02    0.005919    0.009471    0.009471    0.124658
     3        -0.267653324615859    3.235e-03    0.006510    0.010614    0.010614    0.126319
     4        -0.267645276743064    6.572e-04    0.006548    0.010705    0.010705    0.126528
     5        -0.267667297516589    2.072e-04    0.006569    0.010795    0.010795    0.126577
     6        -0.267667848647161    6.153e-05    0.006574    0.010831    0.010831    0.126573
     7        -0.267667939935750    1.976e-05    0.006577    0.010847    0.010847    0.126572
     8        -0.267667631012280    5.105e-06    0.006578    0.010851    0.010851    0.126571
     9        -0.267667541762472    1.047e-06    0.006578    0.010852    0.010852    0.126571
    10        -0.267667554501899    2.345e-07    0.006578    0.010852    0.010852    0.126571
    11        -0.267667553195347    4.543e-08    0.006578    0.010852    0.010852    0.126571
    12        -0.267667554813792    1.005e-08    0.006578    0.010852    0.010852    0.126571
    13        -0.267667554854463    2.406e-09    0.006578    0.010852    0.010852    0.126571
    14        -0.267667554864011    6.002e-10    0.006578    0.010852    0.010852    0.126571

    Iterations converged.


    Largest TIA Amplitudes:
              2  27        -0.0075530255
              1   0         0.0058685039
              3  41        -0.0058292120
              2  28        -0.0049646303
              1   3        -0.0045854660
              1   5        -0.0041958841
              0   2        -0.0040411424
              3  46        -0.0038588283
              1   2         0.0038368614
              1  11        -0.0038000510

    Largest TIjAb Amplitudes:
      2   2  27  27        -0.0476616410
      1   1   2   2        -0.0295026283
      3   3  38  38        -0.0272044243
      1   2   2  27         0.0258889378
      2   1  27   2         0.0258889378
      3   3   1   1        -0.0251820058
      3   3  39  39        -0.0226697714
      2   3  27  39         0.0222739740
      3   2  39  27         0.0222739740
      1   1  38  38        -0.0222103908

    SCF energy       (wfn)                    =  -76.056860698259513
    Reference energy (file100)                =  -76.056860698259499

    Opposite-spin MP2 correlation energy      =   -0.198206429192672
    Same-spin MP2 correlation energy          =   -0.063584073076729
    Singles MP2 correlation energy            =   -0.000000000000000
    MP2 correlation energy                    =   -0.261790502269401
      * MP2 total energy                      =  -76.318651200528905

    Opposite-spin CCSD correlation energy     =   -0.210982587178942
    Same-spin CCSD correlation energy         =   -0.056684967685069
    Singles CCSD correlation energy           =    0.000000000000000
    CCSD correlation energy                   =   -0.267667554864011
      * CCSD total energy                     =  -76.324528253123503

            **************************
            *                        *
            *        CCTRIPLES       *
            *                        *
            **************************


    Wave function   =    CCSD_T
    Reference wfn   =      RHF

    Nuclear Rep. energy (wfn)                =    9.174217978808883
    SCF energy          (wfn)                =  -76.056860698259513
    Reference energy    (file100)            =  -76.056860698259499
    CCSD energy         (file100)            =   -0.267667554864011
    Total CCSD energy   (file100)            =  -76.324528253123503

    Number of ijk index combinations:               20
    Memory available in words        :      1750000000
    ~Words needed per explicit thread:           32000
    Number of threads for explicit ijk threading:    4

    MKL num_threads set to 1 for explicit threading.

    (T) energy                                =   -0.007680151155059
      * CCSD(T) total energy                  =  -76.332208404278575

Giraffe The Energy is -76.332208404279 

    Psi4 stopped on: Monday, 24 October 2022 12:09PM
    Psi4 wall time for execution: 0:00:03.92

*** Psi4 exiting successfully. Buy a developer a beer!
