
 Working directory              : /scratch/mel64643/tmp/40073434/
 Global scratch directory       : /scratch/mel64643/tmp/40073434/
 Wavefunction directory         : /home/mel64643/wfu/
 Main file repository           : /scratch/mel64643/tmp/40073434/

 id        : ccgc

 Nodes     nprocs
 a1-8         3
 Distribution of processes:   nprocs(total)=    4   nprocs(compute)=    3   nprocs(helper)=    1
 GA implementation: MPI file
 GA implementation (serial work in mppx): MPI file

 Using customized tuning parameters: mindgm=1; mindgv=20; mindgc=4; mindgr=1; noblas=0; minvec=7
 default implementation of scratch files=sf  


 Variables initialized (1015), CPU time= 0.00 sec
 ***,Optimization of min3
 memory,1000,m
 gthresh,energy=1.0d-12,orbital=1.0d-10,oneint=1.0d-16,twoint=1.0d-16,optgrad=1.0d-6,compress=1.0d-13
 geomtyp=xyz
 
  bohr
  geometry = {
  6
  arbitrary comment
  C   -1.3820408040   -0.0247640963   -0.0027876086
  O    1.3096112374    0.1152914999   -0.0004155986
  H   -2.0768153602    1.9130201489   -0.0090658834
  H   -2.1237471313   -0.9868422650    1.6883018022
  H   -2.1198241280   -0.9699334150   -1.6753382320
  H    1.9690920261   -1.5769039924   -0.0007028896
 }
 
 basis=cc-pvdz
 {rhf;maxit,200}
 {ccsd(t);maxit,200}
 Commands initialized (818), CPU time= 0.01 sec, 672 directives.
 Default parameters read. Elapsed time= 0.09 sec

 Checking input...
 Passed
1


                                         ***  PROGRAM SYSTEM MOLPRO  ***
                                       Copyright, TTI GmbH Stuttgart, 2015
                                    Version 2022.1 linked Mar  4 2022 00:40:14


 **********************************************************************************************************************************
 LABEL *   Optimization of min3                                                          
  64 bit mpp version                                                                     DATE: 07-Aug-25          TIME: 21:27:04  
 **********************************************************************************************************************************

 SHA1:             31073afc4d8441e10870424e0d77336a33bc4286
 **********************************************************************************************************************************

 Memory per process:      1000 MW
 Total memory per node:   3000 MW

 GA preallocation disabled
 GA check disabled

 Variable memory set to 1000.0 MW


 THRESHOLDS:

 ZERO    =  1.00D-12  ONEINT  =  1.00D-16  TWOINT  =  1.00D-16  PREFAC  =  1.00D-14  XXXXXX  =  1.00D-09  EORDER  =  1.00D-04
 ENERGY  =  1.00D-12  ETEST   =  0.00D+00  EDENS   =  0.00D+00  THRDEDEF=  1.00D-06  GRADIENT=  1.00D-05  STEP    =  1.00D-03
 ORBITAL =  1.00D-10  CIVEC   =  1.00D-05  COEFF   =  1.00D-04  PRINTCI =  5.00D-02  PUNCHCI =  9.90D+01  OPTGRAD =  1.00D-06
 OPTENERG=  1.00D-06  OPTSTEP =  3.00D-04  THRGRAD =  1.00D-10  COMPRESS=  1.00D-13  VARMIN  =  1.00D-07  VARMAX  =  1.00D-03
 THRDOUB =  0.00D+00  THRDIV  =  1.00D-05  THRRED  =  1.00D-07  THRPSP  =  1.00D+00  THRDC   =  1.00D-10  THRCS   =  1.00D-10
 THRNRM  =  1.00D-08  THREQ   =  0.00D+00  THRDE   =  1.00D+00  THRREF  =  1.00D-05  SPARFAC =  1.00D+00  THRDLP  =  1.00D-07
 THRDIA  =  1.00D-10  THRDLS  =  1.00D-07  THRGPS  =  0.00D+00  THRKEX  =  0.00D+00  THRDIS  =  2.00D-01  THRVAR  =  1.00D-10
 THRLOC  =  1.00D-06  THRGAP  =  1.00D-06  THRLOCT = -1.00D+00  THRGAPT = -1.00D+00  THRORB  =  1.00D-06  THRMLTP =  0.00D+00
 THRCPQCI=  1.00D-10  KEXTA   =  0.00D+00  THRCOARS=  0.00D+00  SYMTOL  =  1.00D-06  GRADTOL =  1.00D-06  THROVL  =  1.00D-08
 THRORTH =  1.00D-08  THRDLOVL= -1.00D+00  GRID    =  1.00D-06  GRIDMAX =  1.00D-03  DTMAX   =  0.00D+00  THROCCDE=  1.00D-01
 THROCCDE=  1.00D-01  THRPRINT=  2.50D-01

 SETTING GEOMTYP        =    XYZ
 ZUNIT=BOHR

 SETTING BASIS          =    CC-PVDZ


 Recomputing integrals since basis changed


 Using spherical harmonics

 Library entry C      S cc-pVDZ              selected for orbital group  1
 Library entry C      P cc-pVDZ              selected for orbital group  1
 Library entry C      D cc-pVDZ              selected for orbital group  1
 Library entry O      S cc-pVDZ              selected for orbital group  2
 Library entry O      P cc-pVDZ              selected for orbital group  2
 Library entry O      D cc-pVDZ              selected for orbital group  2
 Library entry H      S cc-pVDZ              selected for orbital group  3
 Library entry H      P cc-pVDZ              selected for orbital group  3


 PROGRAM * SEWARD (Integral evaluation for generally contracted gaussian basis sets)     Author: Roland Lindh, 1990

 Geometry written to block  1 of record 700


 Point group  C1  



 ATOMIC COORDINATES

 NR  ATOM    CHARGE       X              Y              Z

   1  C       6.00   -1.382040804   -0.024764096   -0.002787609
   2  O       8.00    1.309611237    0.115291500   -0.000415599
   3  H       1.00   -2.076815360    1.913020149   -0.009065883
   4  H       1.00   -2.123747131   -0.986842265    1.688301802
   5  H       1.00   -2.119824128   -0.969933415   -1.675338232
   6  H       1.00    1.969092026   -1.576903992   -0.000702890

 Bond lengths in Bohr (Angstrom)

 1-2  2.695294401  1-3  2.058581765  1-4  2.082187809  1-5  2.057934611  2-6  1.816160945
     ( 1.426288374)     ( 1.089354557)     ( 1.101846338)     ( 1.089012098)     ( 0.961070983)

 Bond angles

  1-2-6  108.31318980   2-1-3  106.74629427   2-1-4  112.27350975   2-1-5  112.49501559

  3-1-4  108.49321066   3-1-5  107.99022459   4-1-5  108.67259684

 NUCLEAR CHARGE:                   18
 NUMBER OF PRIMITIVE AOS:          82
 NUMBER OF SYMMETRY AOS:           80
 NUMBER OF CONTRACTIONS:           48   (   48A   )
 NUMBER OF INNER CORE ORBITALS:     0   (    0A   )
 NUMBER OF OUTER CORE ORBITALS:     2   (    2A   )
 NUMBER OF VALENCE ORBITALS:       12   (   12A   )


 NUCLEAR REPULSION ENERGY   40.19243808

 Eigenvalues of metric

         1 0.970E-02 0.178E-01 0.366E-01 0.377E-01 0.381E-01 0.472E-01 0.484E-01 0.520E-01


 Contracted 2-electron integrals neglected if value below      1.0D-16
 AO integral compression algorithm  1   Integral accuracy      1.0D-16

     7.340 MB (compressed) written to integral file (100.0%)

     Node minimum: 2.359 MB, node maximum: 2.621 MB


 NUMBER OF SORTED TWO-ELECTRON INTEGRALS:     231084.     BUFFER LENGTH:  32768
 NUMBER OF SEGMENTS:   1  SEGMENT LENGTH:     231084      RECORD LENGTH: 524288

 Memory used in sort:       0.79 MW

 SORT1 READ      832256. AND WROTE      227683. INTEGRALS IN      1 RECORDS. CPU TIME:     0.01 SEC, REAL TIME:     0.09 SEC
 SORT2 READ      682150. AND WROTE      692076. INTEGRALS IN     27 RECORDS. CPU TIME:     0.01 SEC, REAL TIME:     0.02 SEC

 Node minimum:      230300.  Node maximum:      231084. integrals

 OPERATOR DM      FOR CENTER  0  COORDINATES:    0.000000    0.000000    0.000000


 **********************************************************************************************************************************
 DATASETS  * FILE   NREC   LENGTH (MB)   RECORD NAMES
              1      18       28.73       500      610      700      900      950      970     1000      129      960     1100   
                                          VAR    BASINP    GEOM    SYMINP    ZMAT    AOBASIS   BASIS     P2S    ABASIS      S 
                                         1400     1410     1200     1210     1080     1600     1650     1700   
                                           T        V       H0       H01     AOSYM     SMH    MOLCAS    OPER   

 PROGRAMS   *        TOTAL       INT
 CPU TIMES  *         0.38      0.25
 REAL TIME  *         1.11 SEC
 DISK USED  *        29.07 MB (local),      104.69 MB (total)
 GA USED    *         0.00 MB       (max)       0.00 MB       (current)
 **********************************************************************************************************************************


 Program * Restricted Hartree-Fock

 Orbital guess generated from atomic densities. Full valence occupancy:   14

 Initial occupancy:   9

 NELEC=   18   SYM=1   MS2= 0   THRE=1.0D-12   THRD=1.0D-10   THRG=1.0D-10  HFMA2=F  DIIS_START=2   DIIS_MAX=10   DIIS_INCORE=F

 Level shifts:    0.00 (CLOSED)    0.00 (OPEN)    0.30 (GAP_MIN)

 ITER           ETOT              DE          GRAD        DDIFF     DIIS  NEXP   TIME(IT)  TIME(TOT)  DIAG
   1     -115.01400415    -115.01400415     0.00D+00     0.16D+00     0     0       0.00      0.00    start
   2     -115.04228636      -0.02828221     0.10D-01     0.20D-01     1     0       0.00      0.00    diag
   3     -115.04835695      -0.00607059     0.49D-02     0.64D-02     2     0       0.01      0.01    diag
   4     -115.04882082      -0.00046387     0.10D-02     0.20D-02     3     0       0.00      0.01    diag
   5     -115.04884177      -0.00002095     0.18D-03     0.43D-03     4     0       0.00      0.01    diag
   6     -115.04884256      -0.00000079     0.32D-04     0.93D-04     5     0       0.01      0.02    diag
   7     -115.04884259      -0.00000003     0.67D-05     0.15D-04     6     0       0.00      0.02    diag
   8     -115.04884259      -0.00000000     0.22D-05     0.51D-05     7     0       0.01      0.03    fixocc
   9     -115.04884259      -0.00000000     0.45D-06     0.14D-05     8     0       0.00      0.03    diag
  10     -115.04884259      -0.00000000     0.72D-07     0.24D-06     9     0       0.00      0.03    diag/orth
  11     -115.04884259      -0.00000000     0.17D-07     0.48D-07     9     0       0.00      0.03    diag
  12     -115.04884259      -0.00000000     0.45D-08     0.14D-07     9     0       0.00      0.03    diag
  13     -115.04884259       0.00000000     0.71D-09     0.20D-08     9     0       0.00      0.03    diag
  14     -115.04884259       0.00000000     0.16D-09     0.42D-09     9     0       0.01      0.04    diag
  15     -115.04884259      -0.00000000     0.68D-10     0.13D-09     9     0       0.00      0.04    diag
  16     -115.04884259       0.00000000     0.21D-10     0.48D-10     9     0       0.00      0.04    diag
  17     -115.04884259      -0.00000000     0.52D-11     0.86D-11     0     0       0.00      0.04    diag

 Final occupancy:   9

 !RHF STATE 1.1 Energy               -115.048842593709
  RHF One-electron energy            -236.660770915806
  RHF Two-electron energy              81.419490243667
  RHF Kinetic energy                  114.922984658897
  RHF Nuclear energy                   40.192438078430
  RHF Virial quotient                  -1.001095150245

 !RHF STATE 1.1 Dipole moment          -0.39387437    -0.59402956    -0.00579554
 Dipole moment /Debye                  -1.00112879    -1.50987255    -0.01473078

 Orbital energies:

           1.1          2.1          3.1          4.1          5.1          6.1          7.1          8.1          9.1         10.1
    -20.549749   -11.275503    -1.346885    -0.921580    -0.681250    -0.612244    -0.583836    -0.496565    -0.443283     0.184762

          11.1
      0.223594


 HOMO      9.1    -0.443283 =     -12.0624eV
 LUMO     10.1     0.184762 =       5.0276eV
 LUMO-HOMO         0.628045 =      17.0900eV

 Orbitals saved in record  2100.2


 **********************************************************************************************************************************
 DATASETS  * FILE   NREC   LENGTH (MB)   RECORD NAMES
              1      18       28.73       500      610      700      900      950      970     1000      129      960     1100   
                                          VAR    BASINP    GEOM    SYMINP    ZMAT    AOBASIS   BASIS     P2S    ABASIS      S 
                                         1400     1410     1200     1210     1080     1600     1650     1700   
                                           T        V       H0       H01     AOSYM     SMH    MOLCAS    OPER   

              2       4        0.47       700     1000      520     2100   
                                         GEOM     BASIS   MCVARS     RHF  

 PROGRAMS   *        TOTAL   RHF-SCF       INT
 CPU TIMES  *         0.42      0.04      0.25
 REAL TIME  *         1.53 SEC
 DISK USED  *        29.40 MB (local),      105.68 MB (total)
 GA USED    *         0.00 MB       (max)       0.00 MB       (current)
 **********************************************************************************************************************************


 PROGRAM * CCSD (Closed-shell coupled cluster)     Authors: C. Hampel, H.-J. Werner, 1991, M. Deegan, P.J. Knowles, 1992


 Convergence thresholds:  THRVAR = 1.00D-08  THRDEN = 1.00D-12

 CCSD(T)     terms to be evaluated (factor= 1.000)


 Number of core orbitals:           2 (   2 )
 Number of closed-shell orbitals:   7 (   7 )
 Number of external orbitals:      39 (  39 )

 Molecular orbitals read from record     2100.2  Type=RHF/CANONICAL  

 Number of N-1 electron functions:               7
 Number of N-2 electron functions:              28
 Number of singly external CSFs:               273
 Number of doubly external CSFs:             37401
 Total number of CSFs:                       37675

 Length of J-op  integral file:               0.00 MB
 Length of K-op  integral file:               0.16 MB
 Length of 3-ext integral record:             0.00 MB

 Memory could be reduced to 0.73 Mwords without degradation in triples

 Integral transformation finished. Total CPU:   0.02 sec, npass=  1  Memory used:   0.66 MW

 Reference energy:                   -115.04884259

 MP2 singlet pair energy:              -0.21879359
 MP2 triplet pair energy:              -0.11982726
 MP2 correlation energy:               -0.33862084
 MP2 total energy:                   -115.38746344

 SCS-MP2 correlation energy:           -0.33711149   (PS=  1.200000  PT=  0.333333)
 SCS-MP2 total energy:               -115.38595408

 ITER.      SQ.NORM     CORR.ENERGY   TOTAL ENERGY   ENERGY CHANGE        DEN1      VAR(S)    VAR(P)  DIIS     TIME  TIME/IT
   1      1.10754701    -0.36142854  -115.41027113    -0.02280769    -0.01409399  0.92D-03  0.18D-02  1  1     0.04     0.04
   2      1.11612303    -0.36338448  -115.41222708    -0.00195595    -0.00928008  0.20D-04  0.16D-03  2  2     0.06     0.03
   3      1.11803027    -0.36351398  -115.41235657    -0.00012949    -0.00121685  0.97D-05  0.87D-05  3  3     0.08     0.03
   4      1.11855447    -0.36351268  -115.41235527     0.00000130    -0.00025813  0.36D-06  0.69D-06  4  4     0.10     0.03
   5      1.11865565    -0.36351306  -115.41235566    -0.00000038    -0.00003687  0.11D-06  0.51D-07  5  5     0.12     0.03
   6      1.11867567    -0.36351166  -115.41235425     0.00000141    -0.00000451  0.17D-07  0.43D-08  6  6     0.13     0.03
   7      1.11868071    -0.36351122  -115.41235381     0.00000044    -0.00000037  0.21D-08  0.77D-09  6  1     0.15     0.03
   8      1.11868205    -0.36351133  -115.41235392    -0.00000011     0.00000078  0.27D-09  0.78D-10  6  3     0.17     0.03
   9      1.11868316    -0.36351120  -115.41235379     0.00000013    -0.00000040  0.14D-10  0.11D-10  6  2     0.19     0.03
  10      1.11868308    -0.36351120  -115.41235379    -0.00000000     0.00000008  0.12D-11  0.95D-12  6  5     0.20     0.03
  11      1.11868311    -0.36351120  -115.41235379     0.00000000    -0.00000000  0.22D-12  0.55D-13  6  4     0.22     0.03
  12      1.11868309    -0.36351120  -115.41235379    -0.00000000     0.00000001  0.22D-13  0.11D-13  6  1     0.24     0.03
  13      1.11868310    -0.36351120  -115.41235379    -0.00000000    -0.00000000  0.28D-14  0.11D-14  6  6     0.26     0.03
  14      1.11868310    -0.36351120  -115.41235379     0.00000000    -0.00000000  0.31D-15  0.14D-15  6  3     0.28     0.03
  15      1.11868310    -0.36351120  -115.41235379    -0.00000000    -0.00000000  0.51D-16  0.21D-16  6  2     0.30     0.03
  16      1.11868310    -0.36351120  -115.41235379    -0.00000000    -0.00000000  0.75D-17  0.20D-17  6  4     0.31     0.03
  17      1.11868310    -0.36351120  -115.41235379    -0.00000000    -0.00000000  0.17D-17  0.27D-18  6  5     0.33     0.03
  18      1.11868310    -0.36351120  -115.41235379     0.00000000    -0.00000000  0.45D-18  0.92D-19  6  1     0.35     0.03
  19      1.11868310    -0.36351120  -115.41235379     0.00000000    -0.00000000  0.43D-19  0.11D-19  6  6     0.37     0.03
  20      1.11868310    -0.36351120  -115.41235379     0.00000000     0.00000000  0.34D-20  0.16D-20  6  3     0.39     0.03

 Norm of t1 vector:      0.04193560      S-energy:    -0.00000000      T1 diagnostic:  0.00792508
                                                                       D1 diagnostic:  0.01780593
                                                                       D2 diagnostic:  0.13465490 (internal)


 Total CPU time for triples:      0.08 sec


 RESULTS
 =======

  Reference energy                   -115.048842593710
  CCSD singlet pair energy             -0.254823234363
  CCSD triplet pair energy             -0.108687964625
  CCSD correlation energy              -0.363511198989

  Triples (T) contribution             -0.007759783433
  Total correlation energy             -0.371270982422

  CCSD total energy                  -115.412353792699
  CCSD[T] energy                     -115.420406303800
  CCSD-T energy                      -115.419962248483
 !CCSD(T) total energy               -115.420113576132

 Timing summary (sec):

 STEP                 CPU(USER)    SYS     CPU(TOT)    WALL
 Transformation          0.02      0.01      0.03      0.04
 CCSD iterations         0.37      0.05      0.42      0.66
 Triples                 0.08      0.01      0.09      0.08

 Program statistics:

 Available memory in ccsd:               999999795
 Min. memory needed in ccsd:                136177
 Max. memory used in ccsd:                  162910
 Max. memory used in cckext:                178997 (20 integral passes)



 **********************************************************************************************************************************
 DATASETS  * FILE   NREC   LENGTH (MB)   RECORD NAMES
              1      19       31.13       500      610      700      900      950      970     1000      129      960     1100   
                                          VAR    BASINP    GEOM    SYMINP    ZMAT    AOBASIS   BASIS     P2S    ABASIS      S 
                                         1400     1410     1200     1210     1080     1600     1650     1700     1380   
                                           T        V       H0       H01     AOSYM     SMH    MOLCAS    OPER     JKOP   

              2       4        0.47       700     1000      520     2100   
                                         GEOM     BASIS   MCVARS     RHF  

 PROGRAMS   *        TOTAL   CCSD(T)   RHF-SCF       INT
 CPU TIMES  *         0.92      0.50      0.04      0.25
 REAL TIME  *         2.37 SEC
 DISK USED  *        35.56 MB (local),      116.33 MB (total)
 SF USED    *         5.97 MB
 GA USED    *         0.00 MB       (max)       0.00 MB       (current)
 **********************************************************************************************************************************

 CCSD(T)/cc-pVDZ energy=   -115.420113576132

         CCSD(T)         RHF-SCF
   -115.42011358   -115.04884259
 **********************************************************************************************************************************
 Molpro calculation terminated
