
 Primary working directories    : /tmp/601555.78.gen4.q
 Secondary working directories  : /tmp/601555.78.gen4.q
 Wavefunction directory         : /home/vulcan/mel64643/wfu/
 Main file repository           : /tmp/601555.78.gen4.q/

 ARCHNAME  : Linux/x86_64
 FC        : /opt/intel/compilers_and_libraries_2016.1.150/linux/bin/intel64/ifort
 FCVERSION : 16.0.1
 BLASLIB   : -mkl
 id        : ccgc

 Nodes     nprocs
 n032         1
 ga_uses_ma=false, calling ma_init with nominal heap.
 GA-space will be limited to   8.0 MW (determined by -G option)

 Using customized tuning parameters: mindgm=10; mindgv=16; mindgc=4; mindgr=1; noblas=0; mincuda=1000; minvec=7
 default implementation of scratch files=df  

 ***,Optimization of min3
 memory,1000,m
 gthresh,energy=1.0d-12,orbital=1.0d-10,oneint=1.0d-16,twoint=1.0d-16,optgrad=1.0d-6,compress=1.0d-13
 geomtyp=xyz
 
  bohr
  geometry = {
  6
  arbitrary comment
  C   -1.3759704161   -0.0243227496    0.0011345075
  O    1.3045716749    0.1202043286    0.0042786629
  H   -2.0781481596    1.9048078462   -0.0021030612
  H   -2.1075472824   -0.9757921519    1.6769963049
  H   -2.1087632458   -0.9770596774   -1.6770240141
  H    1.9421332689   -1.5779697159   -0.0032908100
 }
 
 basis=cc-pvdz
 {rhf;maxit,200}
 {ccsd(t);maxit,200}

 Variables initialized (661), CPU time= 0.01 sec
 Commands  initialized (458), CPU time= 0.00 sec, 486 directives.
 Default parameters read. Elapsed time= 0.06 sec

 Checking input...
 Passed
1


                                         ***  PROGRAM SYSTEM MOLPRO  ***
                         Copyright, University College Cardiff Consultants Limited, 2008

                                    Version 2010.1 linked May 16 2016 07:17:05


 **********************************************************************************************************************************
 LABEL *   Optimization of min3                                                          
 Linux-4.4.3/n032(x86_64) 64 bit mpp version                                             DATE: 06-Nov-21          TIME: 15:39:31  
 **********************************************************************************************************************************

 SHA1:             9e8077add272b0f3cad6f7df79ec5211205f459d
 **********************************************************************************************************************************

 THRESHOLDS:

 ZERO    =  1.00D-12  ONEINT  =  1.00D-16  TWOINT  =  1.00D-16  PREFAC  =  1.00D-14  LOCALI  =  1.00D-09  EORDER  =  1.00D-04
 ENERGY  =  1.00D-12  ETEST   =  0.00D+00  EDENS   =  0.00D+00  THRDEDEF=  1.00D-06  GRADIENT=  1.00D-02  STEP    =  1.00D-03
 ORBITAL =  1.00D-10  CIVEC   =  1.00D-05  COEFF   =  1.00D-04  PRINTCI =  5.00D-02  PUNCHCI =  9.90D+01  OPTGRAD =  1.00D-06
 OPTENERG=  1.00D-06  OPTSTEP =  3.00D-04  THRGRAD =  1.00D-10  COMPRESS=  1.00D-13  VARMIN  =  1.00D-07  VARMAX  =  1.00D-03
 THRDOUB =  0.00D+00  THRDIV  =  1.00D-05  THRRED  =  1.00D-07  THRPSP  =  1.00D+00  THRDC   =  1.00D-10  THRCS   =  1.00D-10
 THRNRM  =  1.00D-08  THREQ   =  0.00D+00  THRDE   =  1.00D+00  THRREF  =  1.00D-05  SPARFAC =  1.00D+00  THRDLP  =  1.00D-07
 THRDIA  =  1.00D-10  THRDLS  =  1.00D-07  THRGPS  =  0.00D+00  THRKEX  =  0.00D+00  THRDIS  =  2.00D-01  THRVAR  =  1.00D-10
 THRLOC  =  1.00D-06  THRGAP  =  1.00D-06  THRLOCT = -1.00D+00  THRGAPT = -1.00D+00  THRORB  =  1.00D-06  THRMLTP =  0.00D+00
 THRCPQCI=  1.00D-10  KEXTA   =  0.00D+00  THRCOARS=  0.00D+00  SYMTOL  =  1.00D-06  GRADTOL =  1.00D-06  THROVL  =  1.00D-08
 THRORTH =  1.00D-08  GRID    =  1.00D-06  GRIDMAX =  1.00D-03  DTMAX   =  0.00D+00

 SETTING GEOMTYP        =    XYZ
 ZUNIT=BOHR
 

 Variable memory set to 1000000000 words,  buffer space   230000 words

 SETTING BASIS          =    CC-PVDZ


 Recomputing integrals since basis changed


 Using spherical harmonics

 Library entry C      S cc-pVDZ              selected for orbital group  1
 Library entry C      P cc-pVDZ              selected for orbital group  1
 Library entry C      D cc-pVDZ              selected for orbital group  1
 Library entry O      S cc-pVDZ              selected for orbital group  2
 Library entry O      P cc-pVDZ              selected for orbital group  2
 Library entry O      D cc-pVDZ              selected for orbital group  2
 Library entry H      S cc-pVDZ              selected for orbital group  3
 Library entry H      P cc-pVDZ              selected for orbital group  3

1PROGRAM * SEWARD (Integral evaluation for generally contracted gaussian basis sets)     Author: Roland Lindh, 1990

 Geometry written to block  1 of record 700


 Point group  C1  



 ATOMIC COORDINATES

 NR  ATOM    CHARGE       X              Y              Z

   1  C       6.00   -1.375970416   -0.024322750    0.001134508
   2  O       8.00    1.304571675    0.120204329    0.004278663
   3  H       1.00   -2.078148160    1.904807846   -0.002103061
   4  H       1.00   -2.107547282   -0.975792152    1.676996305
   5  H       1.00   -2.108763246   -0.977059677   -1.677024014
   6  H       1.00    1.942133269   -1.577969716   -0.003290810

 Bond lengths in Bohr (Angstrom)

 1-2  2.684437346  1-3  2.052951271  1-4  2.061313052  1-5  2.064196940  2-6  1.813928656
     ( 1.420543062)     ( 1.086375024)     ( 1.090799888)     ( 1.092325976)     ( 0.959889703)

 Bond angles

  1-2-6  107.49142070   2-1-3  106.91467204   2-1-4  112.22793292   2-1-5  112.35152359

  3-1-4  108.27849565   3-1-5  108.12016861   4-1-5  108.77924845

 NUCLEAR CHARGE:                   18
 NUMBER OF PRIMITIVE AOS:          82
 NUMBER OF SYMMETRY AOS:           80
 NUMBER OF CONTRACTIONS:           48   (  48A   )
 NUMBER OF CORE ORBITALS:           2   (   2A   )
 NUMBER OF VALENCE ORBITALS:       12   (  12A   )


 NUCLEAR REPULSION ENERGY   40.34161656


 Eigenvalues of metric

         1 0.964E-02 0.176E-01 0.365E-01 0.371E-01 0.381E-01 0.471E-01 0.473E-01 0.515E-01


 Contracted 2-electron integrals neglected if value below      1.0D-16
 AO integral compression algorithm  1   Integral accuracy      1.0D-16

     6.816 MB (compressed) written to integral file (100.0%)

     Node minimum: 6.816 MB, node maximum: 6.816 MB


 NUMBER OF SORTED TWO-ELECTRON INTEGRALS:     692076.     BUFFER LENGTH:  32768
 NUMBER OF SEGMENTS:   1  SEGMENT LENGTH:     692076      RECORD LENGTH: 524288

 Memory used in sort:       1.25 MW

 SORT1 READ      832256. AND WROTE      682150. INTEGRALS IN      2 RECORDS. CPU TIME:     0.01 SEC, REAL TIME:     0.02 SEC
 SORT2 READ      682150. AND WROTE      692076. INTEGRALS IN     26 RECORDS. CPU TIME:     0.02 SEC, REAL TIME:     0.02 SEC

 FILE SIZES:   FILE 1:     8.4 MBYTE,  FILE 4:     8.4 MBYTE,   TOTAL:     16.8 MBYTE

 OPERATOR DM      FOR CENTER  0  COORDINATES:    0.000000    0.000000    0.000000


 **********************************************************************************************************************************
 DATASETS  * FILE   NREC   LENGTH (MB)   RECORD NAMES
              1      19        8.43       500      610      700      900      950      970     1000      129      960     1100   
                                          VAR    BASINP    GEOM    SYMINP    ZMAT    AOBASIS   BASIS     P2S    ABASIS      S 
                                         1400     1410     1200     1210     1080     1600     1650     1300     1700   
                                           T        V       H0       H01     AOSYM     SMH    MOLCAS    ERIS     OPER   

 PROGRAMS   *        TOTAL       INT
 CPU TIMES  *         0.35      0.28
 REAL TIME  *         0.52 SEC
 DISK USED  *        24.27 MB      
 GA USED    *         0.00 MB       (max)       0.00 MB       (current)
 **********************************************************************************************************************************

1PROGRAM * RHF-SCF (CLOSED SHELL)       Authors: W. Meyer, H.-J. Werner


 NUMBER OF ELECTRONS:       9+    9-    SPACE SYMMETRY=1    SPIN SYMMETRY: Singlet 
 CONVERGENCE THRESHOLDS:    1.00E-10 (Density)    1.00E-13 (Energy)
 MAX. NUMBER OF ITERATIONS:      200
 INTERPOLATION TYPE:            DIIS
 INTERPOLATION STEPS:              2 (START)      1 (STEP)
 LEVEL SHIFTS:                  0.00 (CLOSED)  0.00 (OPEN) 



 Orbital guess generated from atomic densities. Full valence occupancy:   14

 Molecular orbital dump at record        2100.2

 ITERATION    DDIFF          GRAD             ENERGY        2-EL.EN.            DIPOLE MOMENTS         DIIS
    1      0.000D+00      0.000D+00      -115.01425987    164.457926   -0.49339   -0.90070   -0.00568    0
    2      0.000D+00      0.109D-01      -115.04261014    162.232931   -0.31715   -0.53619   -0.00296    1
    3      0.205D-01      0.528D-02      -115.04861139    163.259598   -0.40053   -0.61122   -0.00335    2
    4      0.638D-02      0.112D-02      -115.04907528    163.103150   -0.39062   -0.60008   -0.00319    3
    5      0.204D-02      0.202D-03      -115.04909630    163.109352   -0.39353   -0.59579   -0.00314    4
    6      0.432D-03      0.356D-04      -115.04909710    163.109652   -0.39386   -0.59558   -0.00313    5
    7      0.934D-04      0.751D-05      -115.04909713    163.108411   -0.39400   -0.59541   -0.00313    6
    8      0.152D-04      0.243D-05      -115.04909713    163.108794   -0.39404   -0.59539   -0.00313    7
    9      0.520D-05      0.494D-06      -115.04909713    163.108755   -0.39405   -0.59539   -0.00313    6
   10      0.142D-05      0.894D-07      -115.04909713    163.108754   -0.39406   -0.59538   -0.00313    6
   11      0.239D-06      0.332D-07      -115.04909713    163.108760   -0.39406   -0.59538   -0.00313    6
   12      0.601D-07      0.140D-07      -115.04909713    163.108758   -0.39406   -0.59538   -0.00313    7
   13      0.262D-07      0.309D-08      -115.04909713    163.108758   -0.39406   -0.59538   -0.00313    7
   14      0.770D-08      0.652D-09      -115.04909713    163.108758   -0.39406   -0.59538   -0.00313    7
   15      0.166D-08      0.151D-09      -115.04909713    163.108758   -0.39406   -0.59538   -0.00313    7
   16      0.337D-09      0.460D-10      -115.04909713    163.108758   -0.39406   -0.59538   -0.00313    7
   17      0.879D-10      0.165D-10      -115.04909713    163.108758   -0.39406   -0.59538   -0.00313    7
   18      0.424D-10      0.302D-11      -115.04909713    163.108758   -0.39406   -0.59538   -0.00313    7
   19      0.706D-11      0.709D-12      -115.04909713    163.108758   -0.39406   -0.59538   -0.00313    7
   20      0.177D-11      0.307D-12      -115.04909713    163.108758   -0.39406   -0.59538   -0.00313    7
   21      0.547D-12      0.857D-13      -115.04909713    163.108758   -0.39406   -0.59538   -0.00313    0

 Final occupancy:   9

 !RHF STATE 1.1 Energy               -115.049097134599
 Nuclear energy                        40.34161656
 One-electron energy                 -236.94509262
 Two-electron energy                   81.55437893
 Virial quotient                       -1.00081859
 !RHF STATE 1.1 Dipole moment          -0.39405833    -0.59538476    -0.00312891
 Dipole moment /Debye                  -1.00153077    -1.51321800    -0.00795236

 Orbital energies:

         1.1          2.1          3.1          4.1          5.1          6.1          7.1          8.1          9.1         10.1
    -20.549737   -11.273640    -1.349682    -0.922228    -0.682918    -0.614303    -0.585187    -0.497238    -0.443234     0.184745

        11.1
      0.224518


 **********************************************************************************************************************************
 DATASETS  * FILE   NREC   LENGTH (MB)   RECORD NAMES
              1      19        8.43       500      610      700      900      950      970     1000      129      960     1100   
                                          VAR    BASINP    GEOM    SYMINP    ZMAT    AOBASIS   BASIS     P2S    ABASIS      S 
                                         1400     1410     1200     1210     1080     1600     1650     1300     1700   
                                           T        V       H0       H01     AOSYM     SMH    MOLCAS    ERIS     OPER   

              2       3        0.39       700     1000     2100   
                                         GEOM     BASIS     RHF  

 PROGRAMS   *        TOTAL       RHF       INT
 CPU TIMES  *         0.46      0.11      0.28
 REAL TIME  *         0.68 SEC
 DISK USED  *        24.27 MB      
 GA USED    *         0.00 MB       (max)       0.00 MB       (current)
 **********************************************************************************************************************************


1PROGRAM * CCSD (Closed-shell coupled cluster)     Authors: C. Hampel, H.-J. Werner, 1991, M. Deegan, P.J. Knowles, 1992


 Convergence thresholds:  THRVAR = 1.00D-08  THRDEN = 1.00D-12

 CCSD(T)     terms to be evaluated (factor= 1.000)


 Number of core orbitals:           2 (   2 )
 Number of closed-shell orbitals:   7 (   7 )
 Number of external orbitals:      39 (  39 )

 Molecular orbitals read from record     2100.2  Type=RHF/CANONICAL (state 1.1)

 Number of N-1 electron functions:               7
 Number of N-2 electron functions:              28
 Number of singly external CSFs:               273
 Number of doubly external CSFs:             37401
 Total number of CSFs:                       37675

 Length of J-op  integral file:               0.00 MB
 Length of K-op  integral file:               0.19 MB
 Length of 3-ext integral record:             0.00 MB

 Memory could be reduced to 0.96 Mwords without degradation in triples

 Integral transformation finished. Total CPU:   0.02 sec, npass=  1  Memory used:   0.66 MW

 Reference energy:                   -115.04909713

 MP2 singlet pair energy:              -0.21852857
 MP2 triplet pair energy:              -0.11981968
 MP2 correlation energy:               -0.33834825
 MP2 total energy:                   -115.38744539

 SCS-MP2 correlation energy:           -0.33678875   (PS=  1.200000  PT=  0.333333)
 SCS-MP2 total energy:               -115.38588589

 ITER.      SQ.NORM     CORR.ENERGY   TOTAL ENERGY   ENERGY CHANGE        DEN1      VAR(S)    VAR(P)  DIIS     TIME
   1      1.10715975    -0.36112935  -115.41022648    -0.02278110    -0.01412008  0.91D-03  0.17D-02  1  1     0.07
   2      1.11565131    -0.36306801  -115.41216515    -0.00193866    -0.00923151  0.20D-04  0.16D-03  2  2     0.12
   3      1.11751981    -0.36319417  -115.41229131    -0.00012616    -0.00119808  0.94D-05  0.85D-05  3  3     0.17
   4      1.11803128    -0.36319280  -115.41228994     0.00000137    -0.00025339  0.34D-06  0.67D-06  4  4     0.22
   5      1.11812870    -0.36319319  -115.41229032    -0.00000039    -0.00003584  0.99D-07  0.48D-07  5  5     0.27
   6      1.11814763    -0.36319183  -115.41228897     0.00000136    -0.00000432  0.16D-07  0.41D-08  6  6     0.32
   7      1.11815240    -0.36319142  -115.41228855     0.00000042    -0.00000035  0.20D-08  0.72D-09  6  1     0.37
   8      1.11815367    -0.36319152  -115.41228865    -0.00000010     0.00000075  0.25D-09  0.72D-10  6  3     0.42
   9      1.11815473    -0.36319139  -115.41228853     0.00000012    -0.00000038  0.13D-10  0.10D-10  6  2     0.47
  10      1.11815479    -0.36319139  -115.41228853     0.00000000     0.00000000  0.13D-11  0.12D-11  6  4     0.52
  11      1.11815474    -0.36319139  -115.41228853     0.00000000     0.00000003  0.33D-12  0.84D-13  6  5     0.57
  12      1.11815469    -0.36319140  -115.41228853    -0.00000000     0.00000003  0.33D-13  0.13D-13  6  6     0.61
  13      1.11815468    -0.36319140  -115.41228853    -0.00000000     0.00000001  0.37D-14  0.15D-14  6  3     0.66
  14      1.11815468    -0.36319140  -115.41228853    -0.00000000     0.00000000  0.28D-15  0.14D-15  6  1     0.71
  15      1.11815468    -0.36319140  -115.41228853     0.00000000    -0.00000000  0.36D-16  0.31D-16  6  2     0.76
  16      1.11815468    -0.36319140  -115.41228853     0.00000000    -0.00000000  0.32D-17  0.16D-17  6  5     0.81
  17      1.11815468    -0.36319140  -115.41228853    -0.00000000     0.00000000  0.18D-18  0.13D-18  6  4     0.86
  18      1.11815468    -0.36319140  -115.41228853     0.00000000    -0.00000000  0.44D-19  0.15D-19  6  3     0.91
  19      1.11815468    -0.36319140  -115.41228853     0.00000000    -0.00000000  0.72D-20  0.17D-20  6  6     0.96
  20      1.11815468    -0.36319140  -115.41228853     0.00000000    -0.00000000  0.16D-20  0.34D-21  6  1     1.01

 Norm of t1 vector:      0.04159995      S-energy:     0.00000000      T1 diagnostic:  0.00786165
                                                                       D1 diagnostic:  0.01753048


 Total CPU time for triples:      0.24 sec


 RESULTS
 =======

  Reference energy                   -115.049097134598
  CCSD singlet pair energy             -0.254429193087
  CCSD triplet pair energy             -0.108762203795
  CCSD correlation energy              -0.363191396882

  Triples (T) contribution             -0.007721307700
  Total correlation energy             -0.370912704582

  CCSD total energy                  -115.412288531480
  CCSD[T] energy                     -115.420298254621
  CCSD-T energy                      -115.419860699805
 !CCSD(T) total energy               -115.420009839181

 Timing summary (sec):

 STEP                 CPU(USER)    SYS     CPU(TOT)    WALL
 Transformation          0.02      0.00      0.02      0.03
 CCSD iterations         0.99      0.06      1.05      1.08
 Triples                 0.24      0.01      0.25      0.25

 Program statistics:

 Available memory in ccsd:               999999704
 Min. memory needed in ccsd:                136801
 Max. memory used in ccsd:                  163198
 Max. memory used in cckext:                182024 (20 integral passes)



 **********************************************************************************************************************************
 DATASETS  * FILE   NREC   LENGTH (MB)   RECORD NAMES
              1      20       10.96       500      610      700      900      950      970     1000      129      960     1100   
                                          VAR    BASINP    GEOM    SYMINP    ZMAT    AOBASIS   BASIS     P2S    ABASIS      S 
                                         1400     1410     1200     1210     1080     1600     1650     1300     1700     1380   
                                           T        V       H0       H01     AOSYM     SMH    MOLCAS    ERIS     OPER     JKOP   

              2       3        0.39       700     1000     2100   
                                         GEOM     BASIS     RHF  

 PROGRAMS   *        TOTAL   CCSD(T)       RHF       INT
 CPU TIMES  *         1.73      1.27      0.11      0.28
 REAL TIME  *         2.07 SEC
 DISK USED  *        25.69 MB      
 GA USED    *         0.00 MB       (max)       0.00 MB       (current)
 **********************************************************************************************************************************

        CCSD(T)         RHF-SCF 
   -115.42000984   -115.04909713
 **********************************************************************************************************************************
 Variable memory released
