
    -----------------------------------------------------------------------
          Psi4: An Open-Source Ab Initio Electronic Structure Package
                               Psi4 1.4a2.dev629 

                         Git: Rev {master} 2938fc2 dirty


    D. G. A. Smith, L. A. Burns, A. C. Simmonett, R. M. Parrish,
    M. C. Schieber, R. Galvelis, P. Kraus, H. Kruse, R. Di Remigio,
    A. Alenaizan, A. M. James, S. Lehtola, J. P. Misiewicz, M. Scheurer,
    R. A. Shaw, J. B. Schriber, Y. Xie, Z. L. Glick, D. A. Sirianni,
    J. S. O'Brien, J. M. Waldrop, A. Kumar, E. G. Hohenstein,
    B. P. Pritchard, B. R. Brooks, H. F. Schaefer III, A. Yu. Sokolov,
    K. Patkowski, A. E. DePrince III, U. Bozkaya, R. A. King,
    F. A. Evangelista, J. M. Turney, T. D. Crawford, C. D. Sherrill,
    J. Chem. Phys. 152(18) 184108 (2020). https://doi.org/10.1063/5.0006002

                            Additional Code Authors
    E. T. Seidl, C. L. Janssen, E. F. Valeev, M. L. Leininger,
    J. F. Gonthier, R. M. Richard, H. R. McAlexander, M. Saitow, X. Wang,
    P. Verma, and M. H. Lechner

             Previous Authors, Complete List of Code Contributors,
                       and Citations for Specific Modules
    https://github.com/psi4/psi4/blob/master/codemeta.json
    https://github.com/psi4/psi4/graphs/contributors
    http://psicode.org/psi4manual/master/introduction.html#citing-psifour

    -----------------------------------------------------------------------


    Psi4 started on: Friday, 18 September 2020 06:21PM

    Process ID: 29928
    Host:       n045
    PSIDATADIR: /opt/psi/4/master/share/psi4
    Memory:     500.0 MiB
    Threads:    1
    
  ==> Input File <==

--------------------------------------------------------------------------
# o-Benzyne preliminary computations

memory 14 gb

molecule {
  0 1
  C   -1.3692412634   -0.0218443692    0.0000042521
  O    1.3031293565    0.1240911042    0.0000034413
  H   -2.0651522142    1.9071056522   -0.0009259226
  H   -2.1075818746   -0.9812889068    1.6695838957
  H   -2.1075067743   -0.9827883391   -1.6687465923
  H    1.9394885299   -1.5704136013   -0.0000120642
  units bohr
}

set {
  basis=cc-pVTZ
  reference rhf
  e_convergence 10 
  d_convergence 10
  r_convergence 8
  maxiter 300
}

energy('ccsd(t)')
--------------------------------------------------------------------------

  Memory set to  13.039 GiB by Python driver.

Scratch directory: /tmp/

*** tstart() called on n045
*** at Fri Sep 18 18:21:40 2020

   => Loading Basis Set <=

    Name: CC-PVTZ
    Role: ORBITAL
    Keyword: BASIS
    atoms 1   entry C          line   186 file /opt/psi/4/master/share/psi4/basis/cc-pvtz.gbs 
    atoms 2   entry O          line   262 file /opt/psi/4/master/share/psi4/basis/cc-pvtz.gbs 
    atoms 3-6 entry H          line    23 file /opt/psi/4/master/share/psi4/basis/cc-pvtz.gbs 


         ---------------------------------------------------------
                                   SCF
               by Justin Turney, Rob Parrish, Andy Simmonett
                          and Daniel G. A. Smith
                              RHF Reference
                        1 Threads,  13351 MiB Core
         ---------------------------------------------------------

  ==> Geometry <==

    Molecular point group: c1
    Full point group: C1

    Geometry (in Bohr), charge = 0, multiplicity = 1:

       Center              X                  Y                   Z               Mass       
    ------------   -----------------  -----------------  -----------------  -----------------
         C           -1.370422444968    -0.024422714795     0.000004108554    12.000000000000
         O            1.301948174932     0.121512758605     0.000003297754    15.994914619570
         H           -2.066333395768     1.904527306605    -0.000926066146     1.007825032230
         H           -2.108763056168    -0.983867252395     1.669583752154     1.007825032230
         H           -2.108687955868    -0.985366684695    -1.668746735846     1.007825032230
         H            1.938307348332    -1.572991946895    -0.000012207746     1.007825032230

  Running in c1 symmetry.

  Rotational constants: A =      4.31154  B =      0.83243  C =      0.80214 [cm^-1]
  Rotational constants: A = 129256.86493  B =  24955.72333  C =  24047.66235 [MHz]
  Nuclear repulsion =   40.426446351944570

  Charge       = 0
  Multiplicity = 1
  Electrons    = 18
  Nalpha       = 9
  Nbeta        = 9

  ==> Algorithm <==

  SCF Algorithm Type is PK.
  DIIS enabled.
  MOM disabled.
  Fractional occupation disabled.
  Guess Type is SAD.
  Energy threshold   = 1.00e-10
  Density threshold  = 1.00e-10
  Integral threshold = 0.00e+00

  ==> Primary Basis <==

  Basis Set: CC-PVTZ
    Blend: CC-PVTZ
    Number of shells: 44
    Number of basis function: 116
    Number of Cartesian functions: 130
    Spherical Harmonics?: true
    Max angular momentum: 3

  ==> Integral Setup <==

  Using in-core PK algorithm.
   Calculation information:
      Number of atoms:                   6
      Number of AO shells:              44
      Number of primitives:             84
      Number of atomic orbitals:       130
      Number of basis functions:       116

      Integral cutoff                 1.00e-12
      Number of threads:                 1

  Performing in-core PK
  Using 46056582 doubles for integral storage.
  We computed 490499 shell quartets total.
  Whereas there are 490545 unique shell quartets.

  ==> DiskJK: Disk-Based J/K Matrices <==

    J tasked:                  Yes
    K tasked:                  Yes
    wK tasked:                  No
    Memory [MiB]:            10013
    Schwarz Cutoff:          1E-12

    OpenMP threads:              1

  Minimum eigenvalue in the overlap matrix is 1.8274784037E-03.
  Reciprocal condition number of the overlap matrix is 2.7546607397E-04.
    Using symmetric orthogonalization.

  ==> Pre-Iterations <==

  SCF Guess: Superposition of Atomic Densities via on-the-fly atomic UHF (no occupation information).

   -------------------------
    Irrep   Nso     Nmo    
   -------------------------
     A        116     116 
   -------------------------
    Total     116     116
   -------------------------

  ==> Iterations <==

                        Total Energy        Delta E     RMS |[F,P]|

   @RHF iter SAD:  -114.42860359141039   -1.14429e+02   0.00000e+00 
   @RHF iter   1:  -115.01456807189042   -5.85964e-01   3.41787e-03 DIIS
   @RHF iter   2:  -115.07165030630276   -5.70822e-02   1.94969e-03 DIIS
   @RHF iter   3:  -115.08840537749198   -1.67551e-02   3.01256e-04 DIIS
   @RHF iter   4:  -115.08928846452376   -8.83087e-04   8.78378e-05 DIIS
   @RHF iter   5:  -115.08936183528262   -7.33708e-05   2.13698e-05 DIIS
   @RHF iter   6:  -115.08936666832638   -4.83304e-06   4.72067e-06 DIIS
   @RHF iter   7:  -115.08936703362281   -3.65296e-07   1.09217e-06 DIIS
   @RHF iter   8:  -115.08936705493117   -2.13084e-08   2.25724e-07 DIIS
   @RHF iter   9:  -115.08936705583021   -8.99036e-10   4.19464e-08 DIIS
   @RHF iter  10:  -115.08936705585963   -2.94165e-11   1.07478e-08 DIIS
   @RHF iter  11:  -115.08936705586162   -1.98952e-12   2.18919e-09 DIIS
   @RHF iter  12:  -115.08936705586197   -3.55271e-13   3.90075e-10 DIIS
   @RHF iter  13:  -115.08936705586164    3.26850e-13   7.16167e-11 DIIS
  Energy and wave function converged.


  ==> Post-Iterations <==

    Orbital Energies [Eh]
    ---------------------

    Doubly Occupied:                                                      

       1A    -20.552447     2A    -11.267978     3A     -1.356062  
       4A     -0.924249     5A     -0.690123     6A     -0.618071  
       7A     -0.591325     8A     -0.503022     9A     -0.448684  

    Virtual:                                                              

      10A      0.138469    11A      0.178949    12A      0.220854  
      13A      0.223883    14A      0.291473    15A      0.386868  
      16A      0.403725    17A      0.546036    18A      0.585489  
      19A      0.623610    20A      0.625945    21A      0.640006  
      22A      0.691176    23A      0.702422    24A      0.722693  
      25A      0.833332    26A      0.865568    27A      0.872791  
      28A      0.927616    29A      1.069987    30A      1.101946  
      31A      1.177795    32A      1.191441    33A      1.262983  
      34A      1.270951    35A      1.282591    36A      1.370110  
      37A      1.447684    38A      1.492622    39A      1.524112  
      40A      1.545388    41A      1.582543    42A      1.622341  
      43A      1.777781    44A      2.093156    45A      2.181023  
      46A      2.199348    47A      2.302312    48A      2.324695  
      49A      2.489297    50A      2.510197    51A      2.575777  
      52A      2.805017    53A      2.951656    54A      3.057134  
      55A      3.110497    56A      3.118530    57A      3.142932  
      58A      3.225253    59A      3.244269    60A      3.315799  
      61A      3.317009    62A      3.343906    63A      3.387104  
      64A      3.500797    65A      3.615740    66A      3.635881  
      67A      3.705006    68A      3.709865    69A      3.745040  
      70A      3.764414    71A      3.815505    72A      3.843981  
      73A      3.906604    74A      4.007966    75A      4.030383  
      76A      4.117960    77A      4.162679    78A      4.174251  
      79A      4.249718    80A      4.258445    81A      4.292532  
      82A      4.403012    83A      4.442053    84A      4.469875  
      85A      4.564411    86A      4.583181    87A      4.714983  
      88A      4.790707    89A      5.000755    90A      5.039155  
      91A      5.054563    92A      5.208300    93A      5.277788  
      94A      5.317649    95A      5.378291    96A      5.440031  
      97A      5.545592    98A      5.556314    99A      5.571650  
     100A      5.790513   101A      5.947914   102A      6.189987  
     103A      6.215704   104A      6.255648   105A      6.435873  
     106A      6.643183   107A      7.000002   108A      7.127673  
     109A      7.185604   110A      7.237151   111A      7.355213  
     112A      7.437468   113A      7.595022   114A      7.915738  
     115A     12.158986   116A     13.763829  

    Final Occupation by Irrep:
              A 
    DOCC [     9 ]

  @RHF Final Energy:  -115.08936705586164

   => Energetics <=

    Nuclear Repulsion Energy =             40.4264463519445698
    One-Electron Energy =                -237.1277014576685929
    Two-Electron Energy =                  81.6118880498623724
    Total Energy =                       -115.0893670558616435

Computation Completed


Properties will be evaluated at   0.000000,   0.000000,   0.000000 [a0]

Properties computed using the SCF density matrix

  Nuclear Dipole Moment: [e a0]
     X:    -2.1524      Y:    -0.8121      Z:    -0.0001

  Electronic Dipole Moment: [e a0]
     X:     1.7706      Y:     0.2231      Z:     0.0000

  Dipole Moment: [e a0]
     X:    -0.3818      Y:    -0.5890      Z:    -0.0000     Total:     0.7019

  Dipole Moment: [D]
     X:    -0.9705      Y:    -1.4971      Z:    -0.0001     Total:     1.7842


*** tstop() called on n045 at Fri Sep 18 18:21:43 2020
Module time:
	user time   =       3.50 seconds =       0.06 minutes
	system time =       0.02 seconds =       0.00 minutes
	total time  =          3 seconds =       0.05 minutes
Total time:
	user time   =       3.50 seconds =       0.06 minutes
	system time =       0.02 seconds =       0.00 minutes
	total time  =          3 seconds =       0.05 minutes
 MINTS: Wrapper to libmints.
   by Justin Turney

   Calculation information:
      Number of threads:                 1
      Number of atoms:                   6
      Number of AO shells:              44
      Number of SO shells:              44
      Number of primitives:             84
      Number of atomic orbitals:       130
      Number of basis functions:       116

      Number of irreps:                  1
      Integral cutoff                 0.00e+00
      Number of functions per irrep: [ 116 ]

 OEINTS: Overlap, kinetic, potential, dipole, and quadrupole integrals
         stored in file 35.

      Computing two-electron integrals...done
      Computed 22875672 non-zero two-electron integrals.
        Stored in file 33.


*** tstart() called on n045
*** at Fri Sep 18 18:21:45 2020


	Wfn Parameters:
	--------------------
	Wavefunction         = CCSD_T
	Number of irreps     = 1
	Number of MOs        = 116
	Number of active MOs = 116
	AO-Basis             = NONE
	Semicanonical        = false
	Reference            = RHF
	Print Level          = 1

	IRREP	# MOs	# FZDC	# DOCC	# SOCC	# VIRT	# FZVR
	-----	-----	------	------	------	------	------
	 A	   116	    0	    9	    0	    107	    0
	Transforming integrals...
	IWL integrals will be deleted.
	(OO|OO)...
	Presorting SO-basis two-electron integrals.
	Sorting File: SO Ints (nn|nn) nbuckets = 1
	Transforming the one-electron integrals and constructing Fock matrices
	Starting first half-transformation.
	Sorting half-transformed integrals.
	First half integral transformation complete.
	Starting second half-transformation.
	Two-electron integral transformation complete.
	(OO|OV)...
	Starting second half-transformation.
	Two-electron integral transformation complete.
	(OO|VV)...
	Starting second half-transformation.
	Two-electron integral transformation complete.
	(OV|OO)...
	Starting first half-transformation.
	Sorting half-transformed integrals.
	First half integral transformation complete.
	Starting second half-transformation.
	Two-electron integral transformation complete.
	(OV|OV)...
	Starting second half-transformation.
	Two-electron integral transformation complete.
	(OV|VV)...
	Starting second half-transformation.
	Two-electron integral transformation complete.
	(VV|OO)...
	Starting first half-transformation.
	Sorting half-transformed integrals.
	First half integral transformation complete.
	Starting second half-transformation.
	Two-electron integral transformation complete.
	(VV|OV)...
	Starting second half-transformation.
	Two-electron integral transformation complete.
	(VV|VV)...
	Starting second half-transformation.
	Two-electron integral transformation complete.
	Frozen core energy     =      0.00000000000000

	Size of irrep 0 of <ab|cd> integrals:    131.080 (MW) /   1048.637 (MB)
	Total:                                   131.080 (MW) /   1048.637 (MB)

	Size of irrep 0 of <ia|bc> integrals:     11.025 (MW) /     88.203 (MB)
	Total:                                    11.025 (MW) /     88.203 (MB)

	Size of irrep 0 of tijab amplitudes:       0.927 (MW) /      7.419 (MB)
	Total:                                     0.927 (MW) /      7.419 (MB)

	Nuclear Rep. energy          =     40.42644635194457
	SCF energy                   =   -115.08936705586164
	One-electron energy          =   -237.12770148946294
	Two-electron energy          =     81.61188808165670
	Reference energy             =   -115.08936705586166

*** tstop() called on n045 at Fri Sep 18 18:21:58 2020
Module time:
	user time   =      10.28 seconds =       0.17 minutes
	system time =       2.68 seconds =       0.04 minutes
	total time  =         13 seconds =       0.22 minutes
Total time:
	user time   =      15.53 seconds =       0.26 minutes
	system time =       2.88 seconds =       0.05 minutes
	total time  =         18 seconds =       0.30 minutes
            **************************
            *                        *
            *        CCENERGY        *
            *                        *
            **************************

    Nuclear Rep. energy (wfn)     =   40.426446351944570
    SCF energy          (wfn)     = -115.089367055861644
    Reference energy    (file100) = -115.089367055861658

    Input parameters:
    -----------------
    Wave function   =     CCSD_T
    Reference wfn   =     RHF
    Brueckner       =     No
    Memory (Mbytes) =     14000.0
    Maxiter         =    300
    R_Convergence   =     1.0e-08
    E_Convergence   =     1.0e-10
    Restart         =     Yes
    DIIS            =     Yes
    AO Basis        =     NONE
    ABCD            =     NEW
    Cache Level     =     2
    Cache Type      =     LOW
    Print Level     =     1
    Num. of threads =     1
    # Amps to Print =     10
    Print MP2 Amps? =     No
    Analyze T2 Amps =     No
    Print Pair Ener =     No
    Local CC        =     No
    SCS-MP2         =     False
    SCSN-MP2        =     False
    SCS-CCSD        =     False

MP2 correlation energy -0.4574596763119285
                Solving CC Amplitude Equations
                ------------------------------
  Iter             Energy              RMS        T1Diag      D1Diag    New D1Diag    D2Diag
  ----     ---------------------    ---------   ----------  ----------  ----------   --------
     0        -0.457459676311928    0.000e+00    0.000000    0.000000    0.000000    0.128077
     1        -0.464977019413749    4.764e-02    0.006488    0.014791    0.014791    0.129202
     2        -0.474930221097137    1.562e-02    0.006595    0.014747    0.014747    0.134904
     3        -0.476404627536947    5.480e-03    0.007391    0.016829    0.016829    0.136337
     4        -0.476301081143789    1.203e-03    0.007444    0.016954    0.016954    0.136560
     5        -0.476340813854533    4.342e-04    0.007476    0.017086    0.017086    0.136656
     6        -0.476349398201555    1.220e-04    0.007486    0.017136    0.017136    0.136663
     7        -0.476347236648681    4.513e-05    0.007487    0.017150    0.017150    0.136660
     8        -0.476347101360397    1.675e-05    0.007489    0.017158    0.017158    0.136660
     9        -0.476347209748783    4.875e-06    0.007489    0.017160    0.017160    0.136660
    10        -0.476346964297220    1.558e-06    0.007489    0.017161    0.017161    0.136660
    11        -0.476347031328380    4.785e-07    0.007489    0.017161    0.017161    0.136660
    12        -0.476347016924033    1.170e-07    0.007489    0.017161    0.017161    0.136660
    13        -0.476347019949604    4.181e-08    0.007489    0.017161    0.017161    0.136660
    14        -0.476347021102841    1.190e-08    0.007489    0.017161    0.017161    0.136660
    15        -0.476347021148947    4.937e-09    0.007489    0.017161    0.017161    0.136660
    16        -0.476347021178238    1.540e-09    0.007489    0.017161    0.017161    0.136660

    Iterations converged.


    Largest TIA Amplitudes:
              5   6        -0.0080457802
              5  14         0.0076281922
              5   9         0.0071068684
              8  14        -0.0063263773
              6   7         0.0059868849
              6   3        -0.0059096498
              5   2         0.0058084473
              7   8         0.0057356249
              8   6         0.0053316180
              6   5        -0.0050839161

    Largest TIjAb Amplitudes:
      5   5   9   9        -0.0229572723
      6   6   7   7        -0.0211421964
      8   8  14  14        -0.0211275172
      7   7  12  12        -0.0205268341
      4   4   7   7        -0.0190325665
      6   6   8   8        -0.0162928566
      5   5  14  14        -0.0151619391
      7   7   7   7        -0.0151128894
      5   8   9   9        -0.0149979754
      8   5   9   9        -0.0149979754

    SCF energy       (wfn)                    = -115.089367055861644
    Reference energy (file100)                = -115.089367055861658

    Opposite-spin MP2 correlation energy      =   -0.353870319809586
    Same-spin MP2 correlation energy          =   -0.103589356502343
    Singles MP2 correlation energy            =   -0.000000000000000
    MP2 correlation energy                    =   -0.457459676311928
      * MP2 total energy                      = -115.546826732173585

    Opposite-spin CCSD correlation energy     =   -0.381825038824243
    Same-spin CCSD correlation energy         =   -0.094521982353995
    Singles CCSD correlation energy           =    0.000000000000000
    CCSD correlation energy                   =   -0.476347021178238
      * CCSD total energy                     = -115.565714077039900

            **************************
            *                        *
            *        CCTRIPLES       *
            *                        *
            **************************


    Wave function   =    CCSD_T
    Reference wfn   =      RHF

    Nuclear Rep. energy (wfn)                =   40.426446351944570
    SCF energy          (wfn)                = -115.089367055861644
    Reference energy    (file100)            = -115.089367055861658
    CCSD energy         (file100)            =   -0.476347021178238
    Total CCSD energy   (file100)            = -115.565714077039900

    Number of ijk index combinations:              165
    Memory available in words        :      1750000000
    ~Words needed per explicit thread:         4900172
    Number of threads for explicit ijk threading:    1

    MKL num_threads set to 1 for explicit threading.

    (T) energy                                =   -0.015050877068348
      * CCSD(T) total energy                  = -115.580764954108247


    Psi4 stopped on: Friday, 18 September 2020 06:22PM
    Psi4 wall time for execution: 0:01:19.74

*** Psi4 exiting successfully. Buy a developer a beer!
