
 Primary working directories    : /tmp/601555.153.gen6.q
 Secondary working directories  : /tmp/601555.153.gen6.q
 Wavefunction directory         : /home/vulcan/mel64643/wfu/
 Main file repository           : /tmp/601555.153.gen6.q/

 ARCHNAME  : Linux/x86_64
 FC        : /opt/intel/compilers_and_libraries_2016.1.150/linux/bin/intel64/ifort
 FCVERSION : 16.0.1
 BLASLIB   : -mkl
 id        : ccgc

 Nodes     nprocs
 n083         1
 ga_uses_ma=false, calling ma_init with nominal heap.
 GA-space will be limited to   8.0 MW (determined by -G option)

 Using customized tuning parameters: mindgm=10; mindgv=16; mindgc=4; mindgr=1; noblas=0; mincuda=1000; minvec=7
 default implementation of scratch files=df  

 ***,Optimization of min3
 memory,1000,m
 gthresh,energy=1.0d-12,orbital=1.0d-10,oneint=1.0d-16,twoint=1.0d-16,optgrad=1.0d-6,compress=1.0d-13
 geomtyp=xyz
 
  bohr
  geometry = {
  6
  arbitrary comment
  C   -1.3756252737   -0.0234175446    0.0000003472
  O    1.3080885109    0.1201545044    0.0000003095
  H   -2.0861104928    1.9113742741   -0.0000799188
  H   -2.1063916384   -0.9776217070    1.6829385050
  H   -2.1063841774   -0.9777530121   -1.6828663666
  H    1.9426989113   -1.5828686348   -0.0000012864
 }
 
 basis=cc-pvdz
 {rhf;maxit,200}
 {ccsd(t);maxit,200}

 Variables initialized (661), CPU time= 0.01 sec
 Commands  initialized (458), CPU time= 0.00 sec, 486 directives.
 Default parameters read. Elapsed time= 0.04 sec

 Checking input...
 Passed
1


                                         ***  PROGRAM SYSTEM MOLPRO  ***
                         Copyright, University College Cardiff Consultants Limited, 2008

                                    Version 2010.1 linked May 16 2016 07:17:05


 **********************************************************************************************************************************
 LABEL *   Optimization of min3                                                          
 Linux-4.4.3/n083(x86_64) 64 bit mpp version                                             DATE: 06-Nov-21          TIME: 15:40:31  
 **********************************************************************************************************************************

 SHA1:             9e8077add272b0f3cad6f7df79ec5211205f459d
 **********************************************************************************************************************************

 THRESHOLDS:

 ZERO    =  1.00D-12  ONEINT  =  1.00D-16  TWOINT  =  1.00D-16  PREFAC  =  1.00D-14  LOCALI  =  1.00D-09  EORDER  =  1.00D-04
 ENERGY  =  1.00D-12  ETEST   =  0.00D+00  EDENS   =  0.00D+00  THRDEDEF=  1.00D-06  GRADIENT=  1.00D-02  STEP    =  1.00D-03
 ORBITAL =  1.00D-10  CIVEC   =  1.00D-05  COEFF   =  1.00D-04  PRINTCI =  5.00D-02  PUNCHCI =  9.90D+01  OPTGRAD =  1.00D-06
 OPTENERG=  1.00D-06  OPTSTEP =  3.00D-04  THRGRAD =  1.00D-10  COMPRESS=  1.00D-13  VARMIN  =  1.00D-07  VARMAX  =  1.00D-03
 THRDOUB =  0.00D+00  THRDIV  =  1.00D-05  THRRED  =  1.00D-07  THRPSP  =  1.00D+00  THRDC   =  1.00D-10  THRCS   =  1.00D-10
 THRNRM  =  1.00D-08  THREQ   =  0.00D+00  THRDE   =  1.00D+00  THRREF  =  1.00D-05  SPARFAC =  1.00D+00  THRDLP  =  1.00D-07
 THRDIA  =  1.00D-10  THRDLS  =  1.00D-07  THRGPS  =  0.00D+00  THRKEX  =  0.00D+00  THRDIS  =  2.00D-01  THRVAR  =  1.00D-10
 THRLOC  =  1.00D-06  THRGAP  =  1.00D-06  THRLOCT = -1.00D+00  THRGAPT = -1.00D+00  THRORB  =  1.00D-06  THRMLTP =  0.00D+00
 THRCPQCI=  1.00D-10  KEXTA   =  0.00D+00  THRCOARS=  0.00D+00  SYMTOL  =  1.00D-06  GRADTOL =  1.00D-06  THROVL  =  1.00D-08
 THRORTH =  1.00D-08  GRID    =  1.00D-06  GRIDMAX =  1.00D-03  DTMAX   =  0.00D+00

 SETTING GEOMTYP        =    XYZ
 ZUNIT=BOHR
 

 Variable memory set to 1000000000 words,  buffer space   230000 words

 SETTING BASIS          =    CC-PVDZ


 Recomputing integrals since basis changed


 Using spherical harmonics

 Library entry C      S cc-pVDZ              selected for orbital group  1
 Library entry C      P cc-pVDZ              selected for orbital group  1
 Library entry C      D cc-pVDZ              selected for orbital group  1
 Library entry O      S cc-pVDZ              selected for orbital group  2
 Library entry O      P cc-pVDZ              selected for orbital group  2
 Library entry O      D cc-pVDZ              selected for orbital group  2
 Library entry H      S cc-pVDZ              selected for orbital group  3
 Library entry H      P cc-pVDZ              selected for orbital group  3

1PROGRAM * SEWARD (Integral evaluation for generally contracted gaussian basis sets)     Author: Roland Lindh, 1990

 Geometry written to block  1 of record 700


 Point group  C1  



 ATOMIC COORDINATES

 NR  ATOM    CHARGE       X              Y              Z

   1  C       6.00   -1.375625274   -0.023417545    0.000000347
   2  O       8.00    1.308088511    0.120154504    0.000000310
   3  H       1.00   -2.086110493    1.911374274   -0.000079919
   4  H       1.00   -2.106391638   -0.977621707    1.682938505
   5  H       1.00   -2.106384177   -0.977753012   -1.682866367
   6  H       1.00    1.942698911   -1.582868635   -0.000001286

 Bond lengths in Bohr (Angstrom)

 1-2  2.687551415  1-3  2.061118297  1-4  2.068043981  1-5  2.068043795  2-6  1.817420747
     ( 1.422190957)     ( 1.090696828)     ( 1.094361742)     ( 1.094361643)     ( 0.961737639)

 Bond angles

  1-2-6  107.37502033   2-1-3  107.10174582   2-1-4  112.17924095   2-1-5  112.17922859

  3-1-4  108.14058704   3-1-5  108.14043581   4-1-5  108.93092759

 NUCLEAR CHARGE:                   18
 NUMBER OF PRIMITIVE AOS:          82
 NUMBER OF SYMMETRY AOS:           80
 NUMBER OF CONTRACTIONS:           48   (  48A   )
 NUMBER OF CORE ORBITALS:           2   (   2A   )
 NUMBER OF VALENCE ORBITALS:       12   (  12A   )


 NUCLEAR REPULSION ENERGY   40.26969265


 Eigenvalues of metric

         1 0.968E-02 0.177E-01 0.369E-01 0.374E-01 0.384E-01 0.473E-01 0.478E-01 0.519E-01


 Contracted 2-electron integrals neglected if value below      1.0D-16
 AO integral compression algorithm  1   Integral accuracy      1.0D-16

     6.291 MB (compressed) written to integral file ( 98.2%)

     Node minimum: 6.291 MB, node maximum: 6.291 MB


 NUMBER OF SORTED TWO-ELECTRON INTEGRALS:     692076.     BUFFER LENGTH:  32768
 NUMBER OF SEGMENTS:   1  SEGMENT LENGTH:     692076      RECORD LENGTH: 524288

 Memory used in sort:       1.25 MW

 SORT1 READ      832256. AND WROTE      682148. INTEGRALS IN      2 RECORDS. CPU TIME:     0.01 SEC, REAL TIME:     0.01 SEC
 SORT2 READ      682148. AND WROTE      692076. INTEGRALS IN     24 RECORDS. CPU TIME:     0.01 SEC, REAL TIME:     0.02 SEC

 FILE SIZES:   FILE 1:     8.0 MBYTE,  FILE 4:     8.4 MBYTE,   TOTAL:     16.4 MBYTE

 OPERATOR DM      FOR CENTER  0  COORDINATES:    0.000000    0.000000    0.000000


 **********************************************************************************************************************************
 DATASETS  * FILE   NREC   LENGTH (MB)   RECORD NAMES
              1      19        8.03       500      610      700      900      950      970     1000      129      960     1100   
                                          VAR    BASINP    GEOM    SYMINP    ZMAT    AOBASIS   BASIS     P2S    ABASIS      S 
                                         1400     1410     1200     1210     1080     1600     1650     1300     1700   
                                           T        V       H0       H01     AOSYM     SMH    MOLCAS    ERIS     OPER   

 PROGRAMS   *        TOTAL       INT
 CPU TIMES  *         0.18      0.14
 REAL TIME  *         0.38 SEC
 DISK USED  *        23.34 MB      
 GA USED    *         0.00 MB       (max)       0.00 MB       (current)
 **********************************************************************************************************************************

1PROGRAM * RHF-SCF (CLOSED SHELL)       Authors: W. Meyer, H.-J. Werner


 NUMBER OF ELECTRONS:       9+    9-    SPACE SYMMETRY=1    SPIN SYMMETRY: Singlet 
 CONVERGENCE THRESHOLDS:    1.00E-10 (Density)    1.00E-13 (Energy)
 MAX. NUMBER OF ITERATIONS:      200
 INTERPOLATION TYPE:            DIIS
 INTERPOLATION STEPS:              2 (START)      1 (STEP)
 LEVEL SHIFTS:                  0.00 (CLOSED)  0.00 (OPEN) 



 Orbital guess generated from atomic densities. Full valence occupancy:   14

 Molecular orbital dump at record        2100.2

 ITERATION    DDIFF          GRAD             ENERGY        2-EL.EN.            DIPOLE MOMENTS         DIIS
    1      0.000D+00      0.000D+00      -115.01407730    164.322190   -0.49726   -0.90205   -0.00000    0
    2      0.000D+00      0.110D-01      -115.04245332    162.101632   -0.31840   -0.53653   -0.00000    1
    3      0.205D-01      0.531D-02      -115.04851255    163.127875   -0.40242   -0.61192   -0.00000    2
    4      0.640D-02      0.112D-02      -115.04897784    162.971591   -0.39237   -0.60077   -0.00000    3
    5      0.204D-02      0.203D-03      -115.04899905    162.978023   -0.39524   -0.59647   -0.00000    4
    6      0.435D-03      0.357D-04      -115.04899986    162.978164   -0.39557   -0.59627   -0.00000    5
    7      0.934D-04      0.742D-05      -115.04899989    162.976975   -0.39571   -0.59610   -0.00000    6
    8      0.152D-04      0.239D-05      -115.04899989    162.977362   -0.39574   -0.59607   -0.00000    7
    9      0.509D-05      0.496D-06      -115.04899989    162.977320   -0.39576   -0.59607   -0.00000    6
   10      0.143D-05      0.891D-07      -115.04899989    162.977319   -0.39576   -0.59607   -0.00000    6
   11      0.238D-06      0.333D-07      -115.04899989    162.977325   -0.39576   -0.59607   -0.00000    6
   12      0.603D-07      0.140D-07      -115.04899989    162.977323   -0.39576   -0.59607   -0.00000    7
   13      0.261D-07      0.310D-08      -115.04899989    162.977323   -0.39576   -0.59607   -0.00000    7
   14      0.773D-08      0.657D-09      -115.04899989    162.977323   -0.39576   -0.59607   -0.00000    7
   15      0.167D-08      0.153D-09      -115.04899989    162.977323   -0.39576   -0.59607   -0.00000    7
   16      0.340D-09      0.458D-10      -115.04899989    162.977323   -0.39576   -0.59607   -0.00000    7
   17      0.886D-10      0.151D-10      -115.04899989    162.977323   -0.39576   -0.59607   -0.00000    0

 Final occupancy:   9

 !RHF STATE 1.1 Energy               -115.048999891108
 Nuclear energy                        40.26969265
 One-electron energy                 -236.80735403
 Two-electron energy                   81.48866148
 Virial quotient                       -1.00100200
 !RHF STATE 1.1 Dipole moment          -0.39576035    -0.59607248    -0.00000278
 Dipole moment /Debye                  -1.00585659    -1.51496590    -0.00000707

 Orbital energies:

         1.1          2.1          3.1          4.1          5.1          6.1          7.1          8.1          9.1         10.1
    -20.550124   -11.274950    -1.348880    -0.920995    -0.681819    -0.613792    -0.584529    -0.496684    -0.443242     0.184402

        11.1
      0.224021


 **********************************************************************************************************************************
 DATASETS  * FILE   NREC   LENGTH (MB)   RECORD NAMES
              1      19        8.03       500      610      700      900      950      970     1000      129      960     1100   
                                          VAR    BASINP    GEOM    SYMINP    ZMAT    AOBASIS   BASIS     P2S    ABASIS      S 
                                         1400     1410     1200     1210     1080     1600     1650     1300     1700   
                                           T        V       H0       H01     AOSYM     SMH    MOLCAS    ERIS     OPER   

              2       3        0.39       700     1000     2100   
                                         GEOM     BASIS     RHF  

 PROGRAMS   *        TOTAL       RHF       INT
 CPU TIMES  *         0.25      0.07      0.14
 REAL TIME  *         0.48 SEC
 DISK USED  *        23.34 MB      
 GA USED    *         0.00 MB       (max)       0.00 MB       (current)
 **********************************************************************************************************************************


1PROGRAM * CCSD (Closed-shell coupled cluster)     Authors: C. Hampel, H.-J. Werner, 1991, M. Deegan, P.J. Knowles, 1992


 Convergence thresholds:  THRVAR = 1.00D-08  THRDEN = 1.00D-12

 CCSD(T)     terms to be evaluated (factor= 1.000)


 Number of core orbitals:           2 (   2 )
 Number of closed-shell orbitals:   7 (   7 )
 Number of external orbitals:      39 (  39 )

 Molecular orbitals read from record     2100.2  Type=RHF/CANONICAL (state 1.1)

 Number of N-1 electron functions:               7
 Number of N-2 electron functions:              28
 Number of singly external CSFs:               273
 Number of doubly external CSFs:             37401
 Total number of CSFs:                       37675

 Length of J-op  integral file:               0.00 MB
 Length of K-op  integral file:               0.19 MB
 Length of 3-ext integral record:             0.00 MB

 Memory could be reduced to 0.96 Mwords without degradation in triples

 Integral transformation finished. Total CPU:   0.01 sec, npass=  1  Memory used:   0.66 MW

 Reference energy:                   -115.04899989

 MP2 singlet pair energy:              -0.21875383
 MP2 triplet pair energy:              -0.11986285
 MP2 correlation energy:               -0.33861667
 MP2 total energy:                   -115.38761656

 SCS-MP2 correlation energy:           -0.33708592   (PS=  1.200000  PT=  0.333333)
 SCS-MP2 total energy:               -115.38608581

 ITER.      SQ.NORM     CORR.ENERGY   TOTAL ENERGY   ENERGY CHANGE        DEN1      VAR(S)    VAR(P)  DIIS     TIME
   1      1.10745904    -0.36141418  -115.41041407    -0.02279751    -0.01409937  0.92D-03  0.17D-02  1  1     0.05
   2      1.11600997    -0.36336514  -115.41236503    -0.00195095    -0.00926686  0.20D-04  0.16D-03  2  2     0.08
   3      1.11790366    -0.36349330  -115.41249319    -0.00012816    -0.00121084  0.95D-05  0.87D-05  3  3     0.11
   4      1.11842246    -0.36349208  -115.41249197     0.00000122    -0.00025631  0.34D-06  0.68D-06  4  4     0.14
   5      1.11852150    -0.36349251  -115.41249240    -0.00000043    -0.00003634  0.10D-06  0.50D-07  5  5     0.18
   6      1.11854081    -0.36349114  -115.41249103     0.00000137    -0.00000440  0.16D-07  0.42D-08  6  6     0.21
   7      1.11854564    -0.36349072  -115.41249061     0.00000042    -0.00000036  0.21D-08  0.73D-09  6  1     0.24
   8      1.11854693    -0.36349082  -115.41249071    -0.00000010     0.00000076  0.26D-09  0.74D-10  6  3     0.27
   9      1.11854800    -0.36349070  -115.41249059     0.00000013    -0.00000039  0.13D-10  0.11D-10  6  2     0.30
  10      1.11854793    -0.36349070  -115.41249059    -0.00000000     0.00000007  0.11D-11  0.90D-12  6  5     0.33
  11      1.11854796    -0.36349070  -115.41249059     0.00000000    -0.00000000  0.20D-12  0.52D-13  6  4     0.37
  12      1.11854794    -0.36349070  -115.41249059    -0.00000000     0.00000001  0.19D-13  0.10D-13  6  1     0.40
  13      1.11854795    -0.36349070  -115.41249059    -0.00000000    -0.00000000  0.24D-14  0.96D-15  6  6     0.43
  14      1.11854795    -0.36349070  -115.41249059     0.00000000    -0.00000000  0.22D-15  0.13D-15  6  3     0.47
  15      1.11854795    -0.36349070  -115.41249059    -0.00000000    -0.00000000  0.25D-16  0.17D-16  6  2     0.50
  16      1.11854795    -0.36349070  -115.41249059    -0.00000000    -0.00000000  0.57D-17  0.17D-17  6  5     0.53
  17      1.11854795    -0.36349070  -115.41249059    -0.00000000    -0.00000000  0.55D-18  0.26D-18  6  4     0.57
  18      1.11854795    -0.36349070  -115.41249059     0.00000000    -0.00000000  0.85D-19  0.44D-19  6  1     0.60
  19      1.11854795    -0.36349070  -115.41249059    -0.00000000    -0.00000000  0.97D-20  0.44D-20  6  6     0.63
  20      1.11854795    -0.36349070  -115.41249059     0.00000000     0.00000000  0.14D-20  0.57D-21  6  3     0.66

 Norm of t1 vector:      0.04174479      S-energy:    -0.00000000      T1 diagnostic:  0.00788902
                                                                       D1 diagnostic:  0.01759800


 Total CPU time for triples:      0.17 sec


 RESULTS
 =======

  Reference energy                   -115.048999891108
  CCSD singlet pair energy             -0.254747669957
  CCSD triplet pair energy             -0.108743029430
  CCSD correlation energy              -0.363490699388

  Triples (T) contribution             -0.007751616437
  Total correlation energy             -0.371242315825

  CCSD total energy                  -115.412490590496
  CCSD[T] energy                     -115.420533107084
  CCSD-T energy                      -115.420091696956
 !CCSD(T) total energy               -115.420242206933

 Timing summary (sec):

 STEP                 CPU(USER)    SYS     CPU(TOT)    WALL
 Transformation          0.01      0.00      0.01      0.02
 CCSD iterations         0.65      0.05      0.70      0.71
 Triples                 0.17      0.00      0.17      0.17

 Program statistics:

 Available memory in ccsd:               999999704
 Min. memory needed in ccsd:                136801
 Max. memory used in ccsd:                  163198
 Max. memory used in cckext:                182024 (20 integral passes)



 **********************************************************************************************************************************
 DATASETS  * FILE   NREC   LENGTH (MB)   RECORD NAMES
              1      20       10.56       500      610      700      900      950      970     1000      129      960     1100   
                                          VAR    BASINP    GEOM    SYMINP    ZMAT    AOBASIS   BASIS     P2S    ABASIS      S 
                                         1400     1410     1200     1210     1080     1600     1650     1300     1700     1380   
                                           T        V       H0       H01     AOSYM     SMH    MOLCAS    ERIS     OPER     JKOP   

              2       3        0.39       700     1000     2100   
                                         GEOM     BASIS     RHF  

 PROGRAMS   *        TOTAL   CCSD(T)       RHF       INT
 CPU TIMES  *         1.09      0.84      0.07      0.14
 REAL TIME  *         1.41 SEC
 DISK USED  *        24.76 MB      
 GA USED    *         0.00 MB       (max)       0.00 MB       (current)
 **********************************************************************************************************************************

        CCSD(T)         RHF-SCF 
   -115.42024221   -115.04899989
 **********************************************************************************************************************************
 Variable memory released
