
 Primary working directories    : /tmp/1225781.4.gen4.q
 Secondary working directories  : /tmp/1225781.4.gen4.q
 Wavefunction directory         : /home/vulcan/nlk36701/wfu/
 Main file repository           : /tmp/1225781.4.gen4.q/

 ARCHNAME  : Linux/x86_64
 FC        : /opt/intel/compilers_and_libraries_2016.1.150/linux/bin/intel64/ifort
 FCVERSION : 16.0.1
 BLASLIB   : -mkl
 id        : ccgc

 Nodes     nprocs
 n056         1
 ga_uses_ma=false, calling ma_init with nominal heap.
 GA-space will be limited to   8.0 MW (determined by -G option)

 Using customized tuning parameters: mindgm=10; mindgv=16; mindgc=4; mindgr=1; noblas=0; mincuda=1000; minvec=7
 default implementation of scratch files=df  

 ***,Optimization of min3
 memory,1000,m
 gthresh,energy=1.0d-12,orbital=1.0d-10,oneint=1.0d-16,twoint=1.0d-16,optgrad=1.0d-6,compress=1.0d-13
 geomtyp=xyz
 
  bohr
  geometry = {
  N   -0.0000000000   -0.0000000000    0.1309859662
  H    0.8844409890   -1.5318967301   -0.6168297421
  H    0.8844409890    1.5318967301   -0.6168297421
  H   -1.7688819880    0.0000000000   -0.6168297421
 }
 
 basis=cc-pvdz
 {rhf;maxit,200}
 {ccsd(t);maxit,200}

 Variables initialized (661), CPU time= 0.01 sec
 Commands  initialized (458), CPU time= 0.00 sec, 486 directives.
 Default parameters read. Elapsed time= 0.04 sec

 Checking input...
 Passed
1


                                         ***  PROGRAM SYSTEM MOLPRO  ***
                         Copyright, University College Cardiff Consultants Limited, 2008

                                    Version 2010.1 linked May 16 2016 07:17:05


 **********************************************************************************************************************************
 LABEL *   Optimization of min3                                                          
 Linux-4.4.3/n056(x86_64) 64 bit mpp version                                             DATE: 26-Mar-25          TIME: 14:44:22  
 **********************************************************************************************************************************

 SHA1:             9e8077add272b0f3cad6f7df79ec5211205f459d
 **********************************************************************************************************************************

 THRESHOLDS:

 ZERO    =  1.00D-12  ONEINT  =  1.00D-16  TWOINT  =  1.00D-16  PREFAC  =  1.00D-14  LOCALI  =  1.00D-09  EORDER  =  1.00D-04
 ENERGY  =  1.00D-12  ETEST   =  0.00D+00  EDENS   =  0.00D+00  THRDEDEF=  1.00D-06  GRADIENT=  1.00D-02  STEP    =  1.00D-03
 ORBITAL =  1.00D-10  CIVEC   =  1.00D-05  COEFF   =  1.00D-04  PRINTCI =  5.00D-02  PUNCHCI =  9.90D+01  OPTGRAD =  1.00D-06
 OPTENERG=  1.00D-06  OPTSTEP =  3.00D-04  THRGRAD =  1.00D-10  COMPRESS=  1.00D-13  VARMIN  =  1.00D-07  VARMAX  =  1.00D-03
 THRDOUB =  0.00D+00  THRDIV  =  1.00D-05  THRRED  =  1.00D-07  THRPSP  =  1.00D+00  THRDC   =  1.00D-10  THRCS   =  1.00D-10
 THRNRM  =  1.00D-08  THREQ   =  0.00D+00  THRDE   =  1.00D+00  THRREF  =  1.00D-05  SPARFAC =  1.00D+00  THRDLP  =  1.00D-07
 THRDIA  =  1.00D-10  THRDLS  =  1.00D-07  THRGPS  =  0.00D+00  THRKEX  =  0.00D+00  THRDIS  =  2.00D-01  THRVAR  =  1.00D-10
 THRLOC  =  1.00D-06  THRGAP  =  1.00D-06  THRLOCT = -1.00D+00  THRGAPT = -1.00D+00  THRORB  =  1.00D-06  THRMLTP =  0.00D+00
 THRCPQCI=  1.00D-10  KEXTA   =  0.00D+00  THRCOARS=  0.00D+00  SYMTOL  =  1.00D-06  GRADTOL =  1.00D-06  THROVL  =  1.00D-08
 THRORTH =  1.00D-08  GRID    =  1.00D-06  GRIDMAX =  1.00D-03  DTMAX   =  0.00D+00

 SETTING GEOMTYP        =    XYZ
 ZUNIT=BOHR
 

 Variable memory set to 1000000000 words,  buffer space   230000 words

 SETTING BASIS          =    CC-PVDZ


 Recomputing integrals since basis changed


 Using spherical harmonics

 Library entry N      S cc-pVDZ              selected for orbital group  1
 Library entry N      P cc-pVDZ              selected for orbital group  1
 Library entry N      D cc-pVDZ              selected for orbital group  1
 Library entry H      S cc-pVDZ              selected for orbital group  2
 Library entry H      P cc-pVDZ              selected for orbital group  2

1PROGRAM * SEWARD (Integral evaluation for generally contracted gaussian basis sets)     Author: Roland Lindh, 1990

 Geometry written to block  1 of record 700


 Point group  Cs  



 ATOMIC COORDINATES

 NR  ATOM    CHARGE       X              Y              Z

   1  N       7.00    0.000000000    0.000000000    0.130985966
   2  H       1.00    0.884440989   -1.531896730   -0.616829742
   3  H       1.00    0.884440989    1.531896730   -0.616829742
   4  H       1.00   -1.768881988    0.000000000   -0.616829742

 Bond lengths in Bohr (Angstrom)

 1-2  1.920461348  1-3  1.920461348  1-4  1.920461356
     ( 1.016264376)     ( 1.016264376)     ( 1.016264381)

 Bond angles

  2-1-3  105.81658271   2-1-4  105.81658274   3-1-4  105.81658274

 NUCLEAR CHARGE:                   10
 NUMBER OF PRIMITIVE AOS:          48
 NUMBER OF SYMMETRY AOS:           47
 NUMBER OF CONTRACTIONS:           29   (  19A'  +  10A"  )
 NUMBER OF CORE ORBITALS:           1   (   1A'  +   0A"  )
 NUMBER OF VALENCE ORBITALS:        7   (   5A'  +   2A"  )


 NUCLEAR REPULSION ENERGY   11.91405077


 Eigenvalues of metric

         1 0.159E-01 0.412E-01 0.457E-01 0.776E-01 0.149E+00 0.151E+00 0.185E+00 0.413E+00
         2 0.412E-01 0.776E-01 0.149E+00 0.413E+00 0.622E+00 0.855E+00 0.109E+01 0.124E+01


 Contracted 2-electron integrals neglected if value below      1.0D-16
 AO integral compression algorithm  1   Integral accuracy      1.0D-16

     0.786 MB (compressed) written to integral file ( 98.0%)

     Node minimum: 0.786 MB, node maximum: 0.786 MB


 NUMBER OF SORTED TWO-ELECTRON INTEGRALS:      51035.     BUFFER LENGTH:  32768
 NUMBER OF SEGMENTS:   1  SEGMENT LENGTH:      51035      RECORD LENGTH: 524288

 Memory used in sort:       0.61 MW

 SORT1 READ       68121. AND WROTE       46775. INTEGRALS IN      1 RECORDS. CPU TIME:     0.00 SEC, REAL TIME:     0.00 SEC
 SORT2 READ       46775. AND WROTE       51035. INTEGRALS IN      3 RECORDS. CPU TIME:     0.00 SEC, REAL TIME:     0.00 SEC

 FILE SIZES:   FILE 1:     3.0 MBYTE,  FILE 4:     4.2 MBYTE,   TOTAL:      7.2 MBYTE

 OPERATOR DM      FOR CENTER  0  COORDINATES:    0.000000    0.000000    0.000000


 **********************************************************************************************************************************
 DATASETS  * FILE   NREC   LENGTH (MB)   RECORD NAMES
              1      19        3.00       500      610      700      900      950      970     1000      129      960     1100   
                                          VAR    BASINP    GEOM    SYMINP    ZMAT    AOBASIS   BASIS     P2S    ABASIS      S 
                                         1400     1410     1200     1210     1080     1600     1650     1300     1700   
                                           T        V       H0       H01     AOSYM     SMH    MOLCAS    ERIS     OPER   

 PROGRAMS   *        TOTAL       INT
 CPU TIMES  *         0.13      0.08
 REAL TIME  *         0.54 SEC
 DISK USED  *         8.56 MB      
 GA USED    *         0.00 MB       (max)       0.00 MB       (current)
 **********************************************************************************************************************************

1PROGRAM * RHF-SCF (CLOSED SHELL)       Authors: W. Meyer, H.-J. Werner


 NUMBER OF ELECTRONS:       5+    5-
 CONVERGENCE THRESHOLDS:    1.00E-10 (Density)    1.00E-13 (Energy)
 MAX. NUMBER OF ITERATIONS:      200
 INTERPOLATION TYPE:            DIIS
 INTERPOLATION STEPS:              2 (START)      1 (STEP)
 LEVEL SHIFTS:                  0.00 (CLOSED)  0.00 (OPEN) 



 Orbital guess generated from atomic densities. Full valence occupancy:    6   2

 Molecular orbital dump at record        2100.2

 Initial alpha occupancy:   4   1
 Initial beta  occupancy:   4   1
 Wave function symmetry:    1

 ITERATION    DDIFF          GRAD             ENERGY        2-EL.EN.            DIPOLE MOMENTS         DIIS
    1      0.000D+00      0.000D+00       -56.16938921     64.224652   -0.00000    0.00000   -0.93499    0
    2      0.000D+00      0.205D-01       -56.19117066     62.198596   -0.00000    0.00000   -0.63309    1
    3      0.398D-01      0.906D-02       -56.19531489     63.022222   -0.00000    0.00000   -0.69067    2
    4      0.132D-01      0.153D-02       -56.19553537     62.930219   -0.00000    0.00000   -0.68383    3
    5      0.332D-02      0.320D-03       -56.19554523     62.941769   -0.00000    0.00000   -0.68246    4
    6      0.750D-03      0.501D-04       -56.19554560     62.942146   -0.00000    0.00000   -0.68247    5
    7      0.124D-03      0.109D-04       -56.19554562     62.942102   -0.00000    0.00000   -0.68254    6
    8      0.351D-04      0.199D-05       -56.19554562     62.942094   -0.00000    0.00000   -0.68258    6
    9      0.593D-05      0.516D-06       -56.19554562     62.942095   -0.00000    0.00000   -0.68259    6
   10      0.179D-05      0.669D-07       -56.19554562     62.942093   -0.00000    0.00000   -0.68259    5
   11      0.210D-06      0.936D-08       -56.19554562     62.942094   -0.00000    0.00000   -0.68259    5
   12      0.211D-07      0.264D-08       -56.19554562     62.942094   -0.00000    0.00000   -0.68259    6
   13      0.567D-08      0.412D-09       -56.19554562     62.942094   -0.00000    0.00000   -0.68259    6
   14      0.900D-09      0.415D-10       -56.19554562     62.942094   -0.00000    0.00000   -0.68259    5
   15      0.972D-10      0.783D-11       -56.19554562     62.942094   -0.00000    0.00000   -0.68259    0

 Final occupancy:   4   1

 !RHF STATE 1.1 Energy                -56.195545621084
 Nuclear energy                        11.91405077
 One-electron energy                  -99.58064324
 Two-electron energy                   31.47104684
 Virial quotient                       -1.00179876
 !RHF STATE 1.1 Dipole moment          -0.00000000     0.00000000    -0.68259464
 Dipole moment /Debye                  -0.00000000     0.00000000    -1.73486889

 Orbital energies:

         1.1          2.1          3.1          4.1          5.1          6.1
    -15.538401    -1.131662    -0.613786    -0.421641     0.186162     0.270009

         1.2          2.2          3.2
     -0.613786     0.270009     0.728004


 **********************************************************************************************************************************
 DATASETS  * FILE   NREC   LENGTH (MB)   RECORD NAMES
              1      19        3.00       500      610      700      900      950      970     1000      129      960     1100   
                                          VAR    BASINP    GEOM    SYMINP    ZMAT    AOBASIS   BASIS     P2S    ABASIS      S 
                                         1400     1410     1200     1210     1080     1600     1650     1300     1700   
                                           T        V       H0       H01     AOSYM     SMH    MOLCAS    ERIS     OPER   

              2       3        0.31       700     1000     2100   
                                         GEOM     BASIS     RHF  

 PROGRAMS   *        TOTAL       RHF       INT
 CPU TIMES  *         0.14      0.01      0.08
 REAL TIME  *         0.82 SEC
 DISK USED  *         8.56 MB      
 GA USED    *         0.00 MB       (max)       0.00 MB       (current)
 **********************************************************************************************************************************


1PROGRAM * CCSD (Closed-shell coupled cluster)     Authors: C. Hampel, H.-J. Werner, 1991, M. Deegan, P.J. Knowles, 1992


 Convergence thresholds:  THRVAR = 1.00D-08  THRDEN = 1.00D-12

 CCSD(T)     terms to be evaluated (factor= 1.000)


 Number of core orbitals:           1 (   1   0 )
 Number of closed-shell orbitals:   4 (   3   1 )
 Number of external orbitals:      24 (  15   9 )

 Molecular orbitals read from record     2100.2  Type=RHF/CANONICAL (state 1.1)

 Number of N-1 electron functions:               4
 Number of N-2 electron functions:              10
 Number of singly external CSFs:                54
 Number of doubly external CSFs:              2388
 Total number of CSFs:                        2443

 Length of J-op  integral file:               0.00 MB
 Length of K-op  integral file:               0.06 MB
 Length of 3-ext integral record:             0.00 MB

 Memory could be reduced to 0.34 Mwords without degradation in triples

 Integral transformation finished. Total CPU:   0.00 sec, npass=  1  Memory used:   0.09 MW

 Reference energy:                    -56.19554562

 MP2 singlet pair energy:              -0.12295877
 MP2 triplet pair energy:              -0.06374534
 MP2 correlation energy:               -0.18670411
 MP2 total energy:                    -56.38224973

 SCS-MP2 correlation energy:           -0.18721429   (PS=  1.200000  PT=  0.333333)
 SCS-MP2 total energy:                -56.38275991

 ITER.      SQ.NORM     CORR.ENERGY   TOTAL ENERGY   ENERGY CHANGE        DEN1      VAR(S)    VAR(P)  DIIS     TIME
   1      1.06235681    -0.20168927   -56.39723489    -0.01498516    -0.01058044  0.24D-03  0.89D-03  1  1     0.00
   2      1.06691063    -0.20286528   -56.39841090    -0.00117601    -0.00501299  0.13D-04  0.53D-04  2  2     0.00
   3      1.06780467    -0.20296520   -56.39851082    -0.00009992    -0.00056277  0.14D-05  0.27D-05  3  3     0.00
   4      1.06800538    -0.20297252   -56.39851814    -0.00000732    -0.00009703  0.16D-06  0.15D-06  4  4     0.00
   5      1.06803661    -0.20297118   -56.39851680     0.00000134    -0.00001323  0.44D-07  0.10D-07  5  5     0.01
   6      1.06804210    -0.20297145   -56.39851707    -0.00000027    -0.00000019  0.93D-08  0.15D-08  6  6     0.01
   7      1.06804586    -0.20297140   -56.39851702     0.00000005    -0.00000033  0.67D-09  0.21D-09  6  1     0.01
   8      1.06804706    -0.20297129   -56.39851691     0.00000011    -0.00000023  0.10D-10  0.14D-10  6  4     0.01
   9      1.06804721    -0.20297129   -56.39851691    -0.00000000     0.00000001  0.39D-12  0.68D-12  6  2     0.01
  10      1.06804722    -0.20297130   -56.39851692    -0.00000001     0.00000001  0.86D-14  0.28D-13  6  3     0.02
  11      1.06804723    -0.20297130   -56.39851692     0.00000000    -0.00000000  0.11D-14  0.21D-14  6  5     0.02
  12      1.06804723    -0.20297130   -56.39851692     0.00000000    -0.00000000  0.50D-16  0.23D-15  6  6     0.02
  13      1.06804723    -0.20297130   -56.39851692     0.00000000    -0.00000000  0.19D-16  0.12D-16  6  1     0.02
  14      1.06804723    -0.20297130   -56.39851692     0.00000000    -0.00000000  0.44D-18  0.67D-18  6  3     0.02
  15      1.06804723    -0.20297130   -56.39851692     0.00000000    -0.00000000  0.97D-20  0.36D-19  6  4     0.03
  16      1.06804723    -0.20297130   -56.39851692     0.00000000     0.00000000  0.39D-21  0.99D-21  6  2     0.03

 Norm of t1 vector:      0.02204271      S-energy:     0.00000000      T1 diagnostic:  0.00551068
                                                                       D1 diagnostic:  0.00873128


 Total CPU time for triples:      0.00 sec


 RESULTS
 =======

  Reference energy                    -56.195545621083
  CCSD singlet pair energy             -0.144634405122
  CCSD triplet pair energy             -0.058336891810
  CCSD correlation energy              -0.202971296932

  Triples (T) contribution             -0.003839271350
  Total correlation energy             -0.206810568282

  CCSD total energy                   -56.398516918015
  CCSD[T] energy                      -56.402438008227
  CCSD-T energy                       -56.402301919794
 !CCSD(T) total energy                -56.402356189365

 Timing summary (sec):

 STEP                 CPU(USER)    SYS     CPU(TOT)    WALL
 CCSD iterations         0.03      0.00      0.03      0.43

 Program statistics:

 Available memory in ccsd:               999999836
 Min. memory needed in ccsd:                 13677
 Max. memory used in ccsd:                   14871
 Max. memory used in cckext:                 48591 (16 integral passes)



 **********************************************************************************************************************************
 DATASETS  * FILE   NREC   LENGTH (MB)   RECORD NAMES
              1      20        3.19       500      610      700      900      950      970     1000      129      960     1100   
                                          VAR    BASINP    GEOM    SYMINP    ZMAT    AOBASIS   BASIS     P2S    ABASIS      S 
                                         1400     1410     1200     1210     1080     1600     1650     1300     1700     1380   
                                           T        V       H0       H01     AOSYM     SMH    MOLCAS    ERIS     OPER     JKOP   

              2       3        0.31       700     1000     2100   
                                         GEOM     BASIS     RHF  

 PROGRAMS   *        TOTAL   CCSD(T)       RHF       INT
 CPU TIMES  *         0.19      0.05      0.01      0.08
 REAL TIME  *         1.41 SEC
 DISK USED  *         8.56 MB      
 GA USED    *         0.00 MB       (max)       0.00 MB       (current)
 **********************************************************************************************************************************

        CCSD(T)         RHF-SCF 
    -56.40235619    -56.19554562
 **********************************************************************************************************************************
 Variable memory released
