
 Working directory              : /scratch/mel64643/tmp/40073527/
 Global scratch directory       : /scratch/mel64643/tmp/40073527/
 Wavefunction directory         : /home/mel64643/wfu/
 Main file repository           : /scratch/mel64643/tmp/40073527/

 id        : ccgc

 Nodes     nprocs
 a1-8         3
 Distribution of processes:   nprocs(total)=    4   nprocs(compute)=    3   nprocs(helper)=    1
 GA implementation: MPI file
 GA implementation (serial work in mppx): MPI file

 Using customized tuning parameters: mindgm=1; mindgv=20; mindgc=4; mindgr=1; noblas=0; minvec=7
 default implementation of scratch files=sf  


 Variables initialized (1015), CPU time= 0.00 sec
 ***,Optimization of min3
 memory,1000,m
 gthresh,energy=1.0d-12,orbital=1.0d-10,oneint=1.0d-16,twoint=1.0d-16,optgrad=1.0d-6,compress=1.0d-13
 geomtyp=xyz
 
  bohr
  geometry = {
  6
  arbitrary comment
  C   -1.3738352570   -0.0263191415    0.0000004013
  O    1.3018885040    0.1228472302    0.0000001144
  H   -2.0604884866    1.9076229494   -0.0000798955
  H   -2.1142710835   -0.9836934825    1.6792031737
  H   -2.1142642457   -0.9838246186   -1.6791306799
  H    1.9372464088   -1.5667650570   -0.0000015240
 }
 
 basis=cc-pvdz
 {rhf;maxit,200}
 {ccsd(t);maxit,200}
 Commands initialized (818), CPU time= 0.01 sec, 672 directives.
 Default parameters read. Elapsed time= 0.09 sec

 Checking input...
 Passed
1


                                         ***  PROGRAM SYSTEM MOLPRO  ***
                                       Copyright, TTI GmbH Stuttgart, 2015
                                    Version 2022.1 linked Mar  4 2022 00:40:14


 **********************************************************************************************************************************
 LABEL *   Optimization of min3                                                          
  64 bit mpp version                                                                     DATE: 07-Aug-25          TIME: 21:28:04  
 **********************************************************************************************************************************

 SHA1:             31073afc4d8441e10870424e0d77336a33bc4286
 **********************************************************************************************************************************

 Memory per process:      1000 MW
 Total memory per node:   3000 MW

 GA preallocation disabled
 GA check disabled

 Variable memory set to 1000.0 MW


 THRESHOLDS:

 ZERO    =  1.00D-12  ONEINT  =  1.00D-16  TWOINT  =  1.00D-16  PREFAC  =  1.00D-14  XXXXXX  =  1.00D-09  EORDER  =  1.00D-04
 ENERGY  =  1.00D-12  ETEST   =  0.00D+00  EDENS   =  0.00D+00  THRDEDEF=  1.00D-06  GRADIENT=  1.00D-05  STEP    =  1.00D-03
 ORBITAL =  1.00D-10  CIVEC   =  1.00D-05  COEFF   =  1.00D-04  PRINTCI =  5.00D-02  PUNCHCI =  9.90D+01  OPTGRAD =  1.00D-06
 OPTENERG=  1.00D-06  OPTSTEP =  3.00D-04  THRGRAD =  1.00D-10  COMPRESS=  1.00D-13  VARMIN  =  1.00D-07  VARMAX  =  1.00D-03
 THRDOUB =  0.00D+00  THRDIV  =  1.00D-05  THRRED  =  1.00D-07  THRPSP  =  1.00D+00  THRDC   =  1.00D-10  THRCS   =  1.00D-10
 THRNRM  =  1.00D-08  THREQ   =  0.00D+00  THRDE   =  1.00D+00  THRREF  =  1.00D-05  SPARFAC =  1.00D+00  THRDLP  =  1.00D-07
 THRDIA  =  1.00D-10  THRDLS  =  1.00D-07  THRGPS  =  0.00D+00  THRKEX  =  0.00D+00  THRDIS  =  2.00D-01  THRVAR  =  1.00D-10
 THRLOC  =  1.00D-06  THRGAP  =  1.00D-06  THRLOCT = -1.00D+00  THRGAPT = -1.00D+00  THRORB  =  1.00D-06  THRMLTP =  0.00D+00
 THRCPQCI=  1.00D-10  KEXTA   =  0.00D+00  THRCOARS=  0.00D+00  SYMTOL  =  1.00D-06  GRADTOL =  1.00D-06  THROVL  =  1.00D-08
 THRORTH =  1.00D-08  THRDLOVL= -1.00D+00  GRID    =  1.00D-06  GRIDMAX =  1.00D-03  DTMAX   =  0.00D+00  THROCCDE=  1.00D-01
 THROCCDE=  1.00D-01  THRPRINT=  2.50D-01

 SETTING GEOMTYP        =    XYZ
 ZUNIT=BOHR

 SETTING BASIS          =    CC-PVDZ


 Recomputing integrals since basis changed


 Using spherical harmonics

 Library entry C      S cc-pVDZ              selected for orbital group  1
 Library entry C      P cc-pVDZ              selected for orbital group  1
 Library entry C      D cc-pVDZ              selected for orbital group  1
 Library entry O      S cc-pVDZ              selected for orbital group  2
 Library entry O      P cc-pVDZ              selected for orbital group  2
 Library entry O      D cc-pVDZ              selected for orbital group  2
 Library entry H      S cc-pVDZ              selected for orbital group  3
 Library entry H      P cc-pVDZ              selected for orbital group  3


 PROGRAM * SEWARD (Integral evaluation for generally contracted gaussian basis sets)     Author: Roland Lindh, 1990

 Geometry written to block  1 of record 700


 Point group  C1  



 ATOMIC COORDINATES

 NR  ATOM    CHARGE       X              Y              Z

   1  C       6.00   -1.373835257   -0.026319142    0.000000401
   2  O       8.00    1.301888504    0.122847230    0.000000114
   3  H       1.00   -2.060488487    1.907622949   -0.000079896
   4  H       1.00   -2.114271083   -0.983693482    1.679203174
   5  H       1.00   -2.114264246   -0.983824619   -1.679130680
   6  H       1.00    1.937246409   -1.566765057   -0.000001524

 Bond lengths in Bohr (Angstrom)

 1-2  2.679878402  1-3  2.052224324  1-4  2.069911301  1-5  2.069911354  2-6  1.805123084
     ( 1.418130579)     ( 1.085990344)     ( 1.095349889)     ( 1.095349917)     ( 0.955229999)

 Bond angles

  1-2-6  107.41732772   2-1-3  106.35676801   2-1-4  112.51367325   2-1-5  112.51367601

  3-1-4  108.43363701   3-1-5  108.43347503   4-1-5  108.43187553

 NUCLEAR CHARGE:                   18
 NUMBER OF PRIMITIVE AOS:          82
 NUMBER OF SYMMETRY AOS:           80
 NUMBER OF CONTRACTIONS:           48   (   48A   )
 NUMBER OF INNER CORE ORBITALS:     0   (    0A   )
 NUMBER OF OUTER CORE ORBITALS:     2   (    2A   )
 NUMBER OF VALENCE ORBITALS:       12   (   12A   )


 NUCLEAR REPULSION ENERGY   40.38153939

 Eigenvalues of metric

         1 0.963E-02 0.176E-01 0.367E-01 0.374E-01 0.377E-01 0.476E-01 0.477E-01 0.513E-01


 Contracted 2-electron integrals neglected if value below      1.0D-16
 AO integral compression algorithm  1   Integral accuracy      1.0D-16

     6.554 MB (compressed) written to integral file (100.0%)

     Node minimum: 2.097 MB, node maximum: 2.359 MB


 NUMBER OF SORTED TWO-ELECTRON INTEGRALS:     231084.     BUFFER LENGTH:  32768
 NUMBER OF SEGMENTS:   1  SEGMENT LENGTH:     231084      RECORD LENGTH: 524288

 Memory used in sort:       0.79 MW

 SORT1 READ      832256. AND WROTE      227682. INTEGRALS IN      1 RECORDS. CPU TIME:     0.01 SEC, REAL TIME:     0.01 SEC
 SORT2 READ      682149. AND WROTE      692076. INTEGRALS IN     24 RECORDS. CPU TIME:     0.01 SEC, REAL TIME:     0.02 SEC

 Node minimum:      230300.  Node maximum:      231084. integrals

 OPERATOR DM      FOR CENTER  0  COORDINATES:    0.000000    0.000000    0.000000


 **********************************************************************************************************************************
 DATASETS  * FILE   NREC   LENGTH (MB)   RECORD NAMES
              1      18       28.73       500      610      700      900      950      970     1000      129      960     1100   
                                          VAR    BASINP    GEOM    SYMINP    ZMAT    AOBASIS   BASIS     P2S    ABASIS      S 
                                         1400     1410     1200     1210     1080     1600     1650     1700   
                                           T        V       H0       H01     AOSYM     SMH    MOLCAS    OPER   

 PROGRAMS   *        TOTAL       INT
 CPU TIMES  *         0.37      0.24
 REAL TIME  *         0.95 SEC
 DISK USED  *        29.07 MB (local),      104.32 MB (total)
 GA USED    *         0.00 MB       (max)       0.00 MB       (current)
 **********************************************************************************************************************************


 Program * Restricted Hartree-Fock

 Orbital guess generated from atomic densities. Full valence occupancy:   14

 Initial occupancy:   9

 NELEC=   18   SYM=1   MS2= 0   THRE=1.0D-12   THRD=1.0D-10   THRG=1.0D-10  HFMA2=F  DIIS_START=2   DIIS_MAX=10   DIIS_INCORE=F

 Level shifts:    0.00 (CLOSED)    0.00 (OPEN)    0.30 (GAP_MIN)

 ITER           ETOT              DE          GRAD        DDIFF     DIIS  NEXP   TIME(IT)  TIME(TOT)  DIAG
   1     -115.01445130    -115.01445130     0.00D+00     0.16D+00     0     0       0.00      0.00    start
   2     -115.04278162      -0.02833033     0.10D-01     0.21D-01     1     0       0.01      0.01    diag
   3     -115.04876424      -0.00598262     0.48D-02     0.64D-02     2     0       0.00      0.01    diag
   4     -115.04922487      -0.00046062     0.10D-02     0.20D-02     3     0       0.00      0.01    diag
   5     -115.04924552      -0.00002065     0.18D-03     0.43D-03     4     0       0.00      0.01    diag
   6     -115.04924629      -0.00000077     0.32D-04     0.92D-04     5     0       0.01      0.02    diag
   7     -115.04924632      -0.00000003     0.66D-05     0.15D-04     6     0       0.00      0.02    diag
   8     -115.04924633      -0.00000000     0.21D-05     0.50D-05     7     0       0.00      0.02    fixocc
   9     -115.04924633      -0.00000000     0.44D-06     0.14D-05     8     0       0.00      0.02    diag
  10     -115.04924633      -0.00000000     0.69D-07     0.23D-06     9     0       0.01      0.03    diag/orth
  11     -115.04924633      -0.00000000     0.16D-07     0.44D-07     9     0       0.00      0.03    diag
  12     -115.04924633       0.00000000     0.41D-08     0.13D-07     9     0       0.00      0.03    diag
  13     -115.04924633      -0.00000000     0.65D-09     0.18D-08     9     0       0.01      0.04    diag
  14     -115.04924633       0.00000000     0.14D-09     0.38D-09     9     0       0.00      0.04    diag
  15     -115.04924633      -0.00000000     0.58D-10     0.11D-09     9     0       0.00      0.04    diag
  16     -115.04924633       0.00000000     0.13D-10     0.31D-10     9     0       0.00      0.04    diag
  17     -115.04924633       0.00000000     0.22D-11     0.45D-11     0     0       0.00      0.04    diag

 Final occupancy:   9

 !RHF STATE 1.1 Energy               -115.049246326672
  RHF One-electron energy            -237.017058747786
  RHF Two-electron energy              81.586273028592
  RHF Kinetic energy                  114.959425352487
  RHF Nuclear energy                   40.381539392521
  RHF Virial quotient                  -1.000781327620

 !RHF STATE 1.1 Dipole moment          -0.38826343    -0.59359500    -0.00000276
 Dipole moment /Debye                  -0.98686721    -1.50876801    -0.00000701

 Orbital energies:

           1.1          2.1          3.1          4.1          5.1          6.1          7.1          8.1          9.1         10.1
    -20.549675   -11.274270    -1.351920    -0.921797    -0.684822    -0.613510    -0.585405    -0.498008    -0.442850     0.184836

          11.1
      0.225156


 HOMO      9.1    -0.442850 =     -12.0506eV
 LUMO     10.1     0.184836 =       5.0296eV
 LUMO-HOMO         0.627686 =      17.0802eV

 Orbitals saved in record  2100.2


 **********************************************************************************************************************************
 DATASETS  * FILE   NREC   LENGTH (MB)   RECORD NAMES
              1      18       28.73       500      610      700      900      950      970     1000      129      960     1100   
                                          VAR    BASINP    GEOM    SYMINP    ZMAT    AOBASIS   BASIS     P2S    ABASIS      S 
                                         1400     1410     1200     1210     1080     1600     1650     1700   
                                           T        V       H0       H01     AOSYM     SMH    MOLCAS    OPER   

              2       4        0.47       700     1000      520     2100   
                                         GEOM     BASIS   MCVARS     RHF  

 PROGRAMS   *        TOTAL   RHF-SCF       INT
 CPU TIMES  *         0.41      0.04      0.24
 REAL TIME  *         1.19 SEC
 DISK USED  *        29.40 MB (local),      105.31 MB (total)
 GA USED    *         0.00 MB       (max)       0.00 MB       (current)
 **********************************************************************************************************************************


 PROGRAM * CCSD (Closed-shell coupled cluster)     Authors: C. Hampel, H.-J. Werner, 1991, M. Deegan, P.J. Knowles, 1992


 Convergence thresholds:  THRVAR = 1.00D-08  THRDEN = 1.00D-12

 CCSD(T)     terms to be evaluated (factor= 1.000)


 Number of core orbitals:           2 (   2 )
 Number of closed-shell orbitals:   7 (   7 )
 Number of external orbitals:      39 (  39 )

 Molecular orbitals read from record     2100.2  Type=RHF/CANONICAL  

 Number of N-1 electron functions:               7
 Number of N-2 electron functions:              28
 Number of singly external CSFs:               273
 Number of doubly external CSFs:             37401
 Total number of CSFs:                       37675

 Length of J-op  integral file:               0.00 MB
 Length of K-op  integral file:               0.16 MB
 Length of 3-ext integral record:             0.00 MB

 Memory could be reduced to 0.73 Mwords without degradation in triples

 Integral transformation finished. Total CPU:   0.02 sec, npass=  1  Memory used:   0.66 MW

 Reference energy:                   -115.04924633

 MP2 singlet pair energy:              -0.21846431
 MP2 triplet pair energy:              -0.11979750
 MP2 correlation energy:               -0.33826181
 MP2 total energy:                   -115.38750814

 SCS-MP2 correlation energy:           -0.33669784   (PS=  1.200000  PT=  0.333333)
 SCS-MP2 total energy:               -115.38594416

 ITER.      SQ.NORM     CORR.ENERGY   TOTAL ENERGY   ENERGY CHANGE        DEN1      VAR(S)    VAR(P)  DIIS     TIME  TIME/IT
   1      1.10712123    -0.36106310  -115.41030943    -0.02280129    -0.01414888  0.91D-03  0.17D-02  1  1     0.05     0.04
   2      1.11560746    -0.36299836  -115.41224468    -0.00193525    -0.00922371  0.19D-04  0.16D-03  2  2     0.07     0.03
   3      1.11747108    -0.36312448  -115.41237081    -0.00012612    -0.00119413  0.95D-05  0.85D-05  3  3     0.08     0.03
   4      1.11798122    -0.36312289  -115.41236921     0.00000159    -0.00025302  0.32D-06  0.67D-06  4  4     0.10     0.03
   5      1.11807820    -0.36312325  -115.41236958    -0.00000037    -0.00003568  0.97D-07  0.48D-07  5  5     0.12     0.03
   6      1.11809694    -0.36312191  -115.41236824     0.00000134    -0.00000431  0.15D-07  0.40D-08  6  6     0.13     0.03
   7      1.11810159    -0.36312149  -115.41236782     0.00000042    -0.00000035  0.19D-08  0.70D-09  6  1     0.15     0.03
   8      1.11810283    -0.36312159  -115.41236792    -0.00000010     0.00000073  0.25D-09  0.69D-10  6  3     0.17     0.03
   9      1.11810388    -0.36312147  -115.41236780     0.00000012    -0.00000038  0.12D-10  0.10D-10  6  2     0.19     0.03
  10      1.11810381    -0.36312147  -115.41236780    -0.00000000     0.00000007  0.10D-11  0.84D-12  6  5     0.20     0.03
  11      1.11810384    -0.36312147  -115.41236780     0.00000000    -0.00000000  0.18D-12  0.48D-13  6  4     0.22     0.03
  12      1.11810382    -0.36312147  -115.41236780    -0.00000000     0.00000001  0.18D-13  0.95D-14  6  1     0.24     0.03
  13      1.11810382    -0.36312147  -115.41236780    -0.00000000    -0.00000000  0.23D-14  0.90D-15  6  6     0.26     0.03
  14      1.11810382    -0.36312147  -115.41236780     0.00000000    -0.00000000  0.22D-15  0.12D-15  6  3     0.27     0.03
  15      1.11810382    -0.36312147  -115.41236780    -0.00000000    -0.00000000  0.24D-16  0.16D-16  6  2     0.29     0.03
  16      1.11810382    -0.36312147  -115.41236780    -0.00000000    -0.00000000  0.53D-17  0.15D-17  6  5     0.31     0.03
  17      1.11810382    -0.36312147  -115.41236780    -0.00000000    -0.00000000  0.50D-18  0.24D-18  6  4     0.32     0.03
  18      1.11810382    -0.36312147  -115.41236780     0.00000000    -0.00000000  0.78D-19  0.40D-19  6  1     0.34     0.03
  19      1.11810382    -0.36312147  -115.41236780    -0.00000000    -0.00000000  0.86D-20  0.40D-20  6  6     0.36     0.03
  20      1.11810382    -0.36312147  -115.41236780     0.00000000     0.00000000  0.12D-20  0.52D-21  6  3     0.38     0.03

 Norm of t1 vector:      0.04154738      S-energy:    -0.00000000      T1 diagnostic:  0.00785172
                                                                       D1 diagnostic:  0.01736970
                                                                       D2 diagnostic:  0.13407183 (internal)


 Total CPU time for triples:      0.08 sec


 RESULTS
 =======

  Reference energy                   -115.049246326672
  CCSD singlet pair energy             -0.254350874479
  CCSD triplet pair energy             -0.108770599852
  CCSD correlation energy              -0.363121474331

  Triples (T) contribution             -0.007716420915
  Total correlation energy             -0.370837895246

  CCSD total energy                  -115.412367801003
  CCSD[T] energy                     -115.420372972124
  CCSD-T energy                      -115.419935060744
 !CCSD(T) total energy               -115.420084221918

 Timing summary (sec):

 STEP                 CPU(USER)    SYS     CPU(TOT)    WALL
 Transformation          0.02      0.01      0.03      0.03
 CCSD iterations         0.36      0.06      0.42      0.59
 Triples                 0.08      0.00      0.08      0.08

 Program statistics:

 Available memory in ccsd:               999999795
 Min. memory needed in ccsd:                136177
 Max. memory used in ccsd:                  162910
 Max. memory used in cckext:                178997 (20 integral passes)



 **********************************************************************************************************************************
 DATASETS  * FILE   NREC   LENGTH (MB)   RECORD NAMES
              1      19       31.13       500      610      700      900      950      970     1000      129      960     1100   
                                          VAR    BASINP    GEOM    SYMINP    ZMAT    AOBASIS   BASIS     P2S    ABASIS      S 
                                         1400     1410     1200     1210     1080     1600     1650     1700     1380   
                                           T        V       H0       H01     AOSYM     SMH    MOLCAS    OPER     JKOP   

              2       4        0.47       700     1000      520     2100   
                                         GEOM     BASIS   MCVARS     RHF  

 PROGRAMS   *        TOTAL   CCSD(T)   RHF-SCF       INT
 CPU TIMES  *         0.90      0.48      0.04      0.24
 REAL TIME  *         1.95 SEC
 DISK USED  *        35.56 MB (local),      115.96 MB (total)
 SF USED    *         5.97 MB
 GA USED    *         0.00 MB       (max)       0.00 MB       (current)
 **********************************************************************************************************************************

 CCSD(T)/cc-pVDZ energy=   -115.420084221918

         CCSD(T)         RHF-SCF
   -115.42008422   -115.04924633
 **********************************************************************************************************************************
 Molpro calculation terminated
