
 Working directory              : /scratch/mel64643/tmp/40073225/
 Global scratch directory       : /scratch/mel64643/tmp/40073225/
 Wavefunction directory         : /home/mel64643/wfu/
 Main file repository           : /scratch/mel64643/tmp/40073225/

 id        : ccgc

 Nodes     nprocs
 a1-8         3
 Distribution of processes:   nprocs(total)=    4   nprocs(compute)=    3   nprocs(helper)=    1
 GA implementation: MPI file
 GA implementation (serial work in mppx): MPI file

 Using customized tuning parameters: mindgm=1; mindgv=20; mindgc=4; mindgr=1; noblas=0; minvec=7
 default implementation of scratch files=sf  


 Variables initialized (1015), CPU time= 0.00 sec
 ***,Optimization of min3
 memory,1000,m
 gthresh,energy=1.0d-12,orbital=1.0d-10,oneint=1.0d-16,twoint=1.0d-16,optgrad=1.0d-6,compress=1.0d-13
 geomtyp=xyz
 
  bohr
  geometry = {
  6
  arbitrary comment
  C   -1.3695216937   -0.0212289239    0.0000001256
  O    1.2923315403    0.1148901723    0.0000004160
  H   -2.0780466684    1.9110670158   -0.0000799158
  H   -2.1067732639   -0.9792344122    1.6839395160
  H   -2.1067664226   -0.9793657895   -1.6838673076
  H    1.9450523482   -1.5762601824   -0.0000012443
 }
 
 basis=cc-pvdz
 {rhf;maxit,200}
 {ccsd(t);maxit,200}
 Commands initialized (818), CPU time= 0.00 sec, 672 directives.
 Default parameters read. Elapsed time= 0.09 sec

 Checking input...
 Passed
1


                                         ***  PROGRAM SYSTEM MOLPRO  ***
                                       Copyright, TTI GmbH Stuttgart, 2015
                                    Version 2022.1 linked Mar  4 2022 00:40:14


 **********************************************************************************************************************************
 LABEL *   Optimization of min3                                                          
  64 bit mpp version                                                                     DATE: 07-Aug-25          TIME: 21:24:55  
 **********************************************************************************************************************************

 SHA1:             31073afc4d8441e10870424e0d77336a33bc4286
 **********************************************************************************************************************************

 Memory per process:      1000 MW
 Total memory per node:   3000 MW

 GA preallocation disabled
 GA check disabled

 Variable memory set to 1000.0 MW


 THRESHOLDS:

 ZERO    =  1.00D-12  ONEINT  =  1.00D-16  TWOINT  =  1.00D-16  PREFAC  =  1.00D-14  XXXXXX  =  1.00D-09  EORDER  =  1.00D-04
 ENERGY  =  1.00D-12  ETEST   =  0.00D+00  EDENS   =  0.00D+00  THRDEDEF=  1.00D-06  GRADIENT=  1.00D-05  STEP    =  1.00D-03
 ORBITAL =  1.00D-10  CIVEC   =  1.00D-05  COEFF   =  1.00D-04  PRINTCI =  5.00D-02  PUNCHCI =  9.90D+01  OPTGRAD =  1.00D-06
 OPTENERG=  1.00D-06  OPTSTEP =  3.00D-04  THRGRAD =  1.00D-10  COMPRESS=  1.00D-13  VARMIN  =  1.00D-07  VARMAX  =  1.00D-03
 THRDOUB =  0.00D+00  THRDIV  =  1.00D-05  THRRED  =  1.00D-07  THRPSP  =  1.00D+00  THRDC   =  1.00D-10  THRCS   =  1.00D-10
 THRNRM  =  1.00D-08  THREQ   =  0.00D+00  THRDE   =  1.00D+00  THRREF  =  1.00D-05  SPARFAC =  1.00D+00  THRDLP  =  1.00D-07
 THRDIA  =  1.00D-10  THRDLS  =  1.00D-07  THRGPS  =  0.00D+00  THRKEX  =  0.00D+00  THRDIS  =  2.00D-01  THRVAR  =  1.00D-10
 THRLOC  =  1.00D-06  THRGAP  =  1.00D-06  THRLOCT = -1.00D+00  THRGAPT = -1.00D+00  THRORB  =  1.00D-06  THRMLTP =  0.00D+00
 THRCPQCI=  1.00D-10  KEXTA   =  0.00D+00  THRCOARS=  0.00D+00  SYMTOL  =  1.00D-06  GRADTOL =  1.00D-06  THROVL  =  1.00D-08
 THRORTH =  1.00D-08  THRDLOVL= -1.00D+00  GRID    =  1.00D-06  GRIDMAX =  1.00D-03  DTMAX   =  0.00D+00  THROCCDE=  1.00D-01
 THROCCDE=  1.00D-01  THRPRINT=  2.50D-01

 SETTING GEOMTYP        =    XYZ
 ZUNIT=BOHR

 SETTING BASIS          =    CC-PVDZ


 Recomputing integrals since basis changed


 Using spherical harmonics

 Library entry C      S cc-pVDZ              selected for orbital group  1
 Library entry C      P cc-pVDZ              selected for orbital group  1
 Library entry C      D cc-pVDZ              selected for orbital group  1
 Library entry O      S cc-pVDZ              selected for orbital group  2
 Library entry O      P cc-pVDZ              selected for orbital group  2
 Library entry O      D cc-pVDZ              selected for orbital group  2
 Library entry H      S cc-pVDZ              selected for orbital group  3
 Library entry H      P cc-pVDZ              selected for orbital group  3


 PROGRAM * SEWARD (Integral evaluation for generally contracted gaussian basis sets)     Author: Roland Lindh, 1990

 Geometry written to block  1 of record 700


 Point group  C1  



 ATOMIC COORDINATES

 NR  ATOM    CHARGE       X              Y              Z

   1  C       6.00   -1.369521694   -0.021228924    0.000000126
   2  O       8.00    1.292331540    0.114890172    0.000000416
   3  H       1.00   -2.078046668    1.911067016   -0.000079916
   4  H       1.00   -2.106773264   -0.979234412    1.683939516
   5  H       1.00   -2.106766423   -0.979365789   -1.683867308
   6  H       1.00    1.945052348   -1.576260182   -0.000001244

 Bond lengths in Bohr (Angstrom)

 1-2  2.665331320  1-3  2.058099911  1-4  2.072912508  1-5  2.072912342  2-6  1.812742115
     ( 1.410432594)     ( 1.089099571)     ( 1.096938059)     ( 1.096937971)     ( 0.959261816)

 Bond angles

  1-2-6  108.17734150   2-1-3  107.20935136   2-1-4  112.25924112   2-1-5  112.25925028

  3-1-4  108.14941659   3-1-5  108.14926465   4-1-5  108.64978578

 NUCLEAR CHARGE:                   18
 NUMBER OF PRIMITIVE AOS:          82
 NUMBER OF SYMMETRY AOS:           80
 NUMBER OF CONTRACTIONS:           48   (   48A   )
 NUMBER OF INNER CORE ORBITALS:     0   (    0A   )
 NUMBER OF OUTER CORE ORBITALS:     2   (    2A   )
 NUMBER OF VALENCE ORBITALS:       12   (   12A   )


 NUCLEAR REPULSION ENERGY   40.44696399

 Eigenvalues of metric

         1 0.964E-02 0.176E-01 0.368E-01 0.376E-01 0.379E-01 0.475E-01 0.481E-01 0.517E-01


 Contracted 2-electron integrals neglected if value below      1.0D-16
 AO integral compression algorithm  1   Integral accuracy      1.0D-16

     6.554 MB (compressed) written to integral file (100.0%)

     Node minimum: 2.097 MB, node maximum: 2.359 MB


 NUMBER OF SORTED TWO-ELECTRON INTEGRALS:     231084.     BUFFER LENGTH:  32768
 NUMBER OF SEGMENTS:   1  SEGMENT LENGTH:     231084      RECORD LENGTH: 524288

 Memory used in sort:       0.79 MW

 SORT1 READ      832256. AND WROTE      227682. INTEGRALS IN      1 RECORDS. CPU TIME:     0.01 SEC, REAL TIME:     0.02 SEC
 SORT2 READ      682149. AND WROTE      692076. INTEGRALS IN     24 RECORDS. CPU TIME:     0.01 SEC, REAL TIME:     0.02 SEC

 Node minimum:      230300.  Node maximum:      231084. integrals

 OPERATOR DM      FOR CENTER  0  COORDINATES:    0.000000    0.000000    0.000000


 **********************************************************************************************************************************
 DATASETS  * FILE   NREC   LENGTH (MB)   RECORD NAMES
              1      18       28.73       500      610      700      900      950      970     1000      129      960     1100   
                                          VAR    BASINP    GEOM    SYMINP    ZMAT    AOBASIS   BASIS     P2S    ABASIS      S 
                                         1400     1410     1200     1210     1080     1600     1650     1700   
                                           T        V       H0       H01     AOSYM     SMH    MOLCAS    OPER   

 PROGRAMS   *        TOTAL       INT
 CPU TIMES  *         0.44      0.30
 REAL TIME  *         1.56 SEC
 DISK USED  *        29.07 MB (local),      104.32 MB (total)
 GA USED    *         0.00 MB       (max)       0.00 MB       (current)
 **********************************************************************************************************************************


 Program * Restricted Hartree-Fock

 Orbital guess generated from atomic densities. Full valence occupancy:   14

 Initial occupancy:   9

 NELEC=   18   SYM=1   MS2= 0   THRE=1.0D-12   THRD=1.0D-10   THRG=1.0D-10  HFMA2=F  DIIS_START=2   DIIS_MAX=10   DIIS_INCORE=F

 Level shifts:    0.00 (CLOSED)    0.00 (OPEN)    0.30 (GAP_MIN)

 ITER           ETOT              DE          GRAD        DDIFF     DIIS  NEXP   TIME(IT)  TIME(TOT)  DIAG
   1     -115.01463992    -115.01463992     0.00D+00     0.16D+00     0     0       0.00      0.01    start
   2     -115.04297738      -0.02833746     0.10D-01     0.20D-01     1     0       0.00      0.01    diag
   3     -115.04890787      -0.00593049     0.48D-02     0.63D-02     2     0       0.00      0.01    diag
   4     -115.04936900      -0.00046113     0.10D-02     0.20D-02     3     0       0.01      0.02    diag
   5     -115.04938960      -0.00002060     0.18D-03     0.43D-03     4     0       0.00      0.02    diag
   6     -115.04939037      -0.00000078     0.32D-04     0.92D-04     5     0       0.01      0.03    diag
   7     -115.04939040      -0.00000003     0.67D-05     0.15D-04     6     0       0.00      0.03    diag
   8     -115.04939040      -0.00000000     0.22D-05     0.50D-05     7     0       0.00      0.03    fixocc
   9     -115.04939040      -0.00000000     0.45D-06     0.14D-05     8     0       0.01      0.04    diag
  10     -115.04939040      -0.00000000     0.75D-07     0.24D-06     9     0       0.00      0.04    diag/orth
  11     -115.04939040      -0.00000000     0.18D-07     0.51D-07     9     0       0.00      0.04    diag
  12     -115.04939040      -0.00000000     0.45D-08     0.14D-07     9     0       0.01      0.05    diag
  13     -115.04939040       0.00000000     0.66D-09     0.18D-08     9     0       0.00      0.05    diag
  14     -115.04939040      -0.00000000     0.15D-09     0.39D-09     9     0       0.00      0.05    diag
  15     -115.04939040       0.00000000     0.61D-10     0.11D-09     9     0       0.00      0.05    diag
  16     -115.04939040      -0.00000000     0.13D-10     0.32D-10     9     0       0.00      0.05    diag
  17     -115.04939040      -0.00000000     0.23D-11     0.45D-11     0     0       0.01      0.06    diag

 Final occupancy:   9

 !RHF STATE 1.1 Energy               -115.049390403449
  RHF One-electron energy            -237.148351890617
  RHF Two-electron energy              81.651997501903
  RHF Kinetic energy                  114.956370378519
  RHF Nuclear energy                   40.446963985264
  RHF Virial quotient                  -1.000809176774

 !RHF STATE 1.1 Dipole moment          -0.37282032    -0.59116539    -0.00000301
 Dipole moment /Debye                  -0.94761474    -1.50259254    -0.00000765

 Orbital energies:

           1.1          2.1          3.1          4.1          5.1          6.1          7.1          8.1          9.1         10.1
    -20.549624   -11.274346    -1.353237    -0.920694    -0.684828    -0.614536    -0.588058    -0.495167    -0.441688     0.184624

          11.1
      0.224232


 HOMO      9.1    -0.441688 =     -12.0189eV
 LUMO     10.1     0.184624 =       5.0239eV
 LUMO-HOMO         0.626311 =      17.0428eV

 Orbitals saved in record  2100.2


 **********************************************************************************************************************************
 DATASETS  * FILE   NREC   LENGTH (MB)   RECORD NAMES
              1      18       28.73       500      610      700      900      950      970     1000      129      960     1100   
                                          VAR    BASINP    GEOM    SYMINP    ZMAT    AOBASIS   BASIS     P2S    ABASIS      S 
                                         1400     1410     1200     1210     1080     1600     1650     1700   
                                           T        V       H0       H01     AOSYM     SMH    MOLCAS    OPER   

              2       4        0.47       700     1000      520     2100   
                                         GEOM     BASIS   MCVARS     RHF  

 PROGRAMS   *        TOTAL   RHF-SCF       INT
 CPU TIMES  *         0.50      0.06      0.30
 REAL TIME  *         1.77 SEC
 DISK USED  *        29.40 MB (local),      105.31 MB (total)
 GA USED    *         0.00 MB       (max)       0.00 MB       (current)
 **********************************************************************************************************************************


 PROGRAM * CCSD (Closed-shell coupled cluster)     Authors: C. Hampel, H.-J. Werner, 1991, M. Deegan, P.J. Knowles, 1992


 Convergence thresholds:  THRVAR = 1.00D-08  THRDEN = 1.00D-12

 CCSD(T)     terms to be evaluated (factor= 1.000)


 Number of core orbitals:           2 (   2 )
 Number of closed-shell orbitals:   7 (   7 )
 Number of external orbitals:      39 (  39 )

 Molecular orbitals read from record     2100.2  Type=RHF/CANONICAL  

 Number of N-1 electron functions:               7
 Number of N-2 electron functions:              28
 Number of singly external CSFs:               273
 Number of doubly external CSFs:             37401
 Total number of CSFs:                       37675

 Length of J-op  integral file:               0.00 MB
 Length of K-op  integral file:               0.16 MB
 Length of 3-ext integral record:             0.00 MB

 Memory could be reduced to 0.73 Mwords without degradation in triples

 Integral transformation finished. Total CPU:   0.02 sec, npass=  1  Memory used:   0.66 MW

 Reference energy:                   -115.04939040

 MP2 singlet pair energy:              -0.21840693
 MP2 triplet pair energy:              -0.11976523
 MP2 correlation energy:               -0.33817216
 MP2 total energy:                   -115.38756256

 SCS-MP2 correlation energy:           -0.33660890   (PS=  1.200000  PT=  0.333333)
 SCS-MP2 total energy:               -115.38599931

 ITER.      SQ.NORM     CORR.ENERGY   TOTAL ENERGY   ENERGY CHANGE        DEN1      VAR(S)    VAR(P)  DIIS     TIME  TIME/IT
   1      1.10707683    -0.36100222  -115.41039263    -0.02283006    -0.01419393  0.90D-03  0.17D-02  1  1     0.04     0.03
   2      1.11556091    -0.36294237  -115.41233278    -0.00194015    -0.00921955  0.19D-04  0.16D-03  2  2     0.06     0.03
   3      1.11741498    -0.36306794  -115.41245834    -0.00012557    -0.00118879  0.93D-05  0.85D-05  3  3     0.08     0.03
   4      1.11792152    -0.36306678  -115.41245718     0.00000116    -0.00025150  0.32D-06  0.66D-06  4  4     0.10     0.03
   5      1.11801748    -0.36306721  -115.41245761    -0.00000043    -0.00003530  0.97D-07  0.48D-07  5  5     0.12     0.03
   6      1.11803611    -0.36306590  -115.41245630     0.00000131    -0.00000431  0.15D-07  0.40D-08  6  6     0.14     0.03
   7      1.11804076    -0.36306549  -115.41245589     0.00000041    -0.00000035  0.20D-08  0.70D-09  6  1     0.16     0.03
   8      1.11804200    -0.36306559  -115.41245599    -0.00000010     0.00000074  0.25D-09  0.70D-10  6  3     0.18     0.03
   9      1.11804303    -0.36306547  -115.41245587     0.00000012    -0.00000038  0.13D-10  0.10D-10  6  2     0.20     0.03
  10      1.11804309    -0.36306547  -115.41245587     0.00000000     0.00000000  0.13D-11  0.12D-11  6  4     0.22     0.03
  11      1.11804304    -0.36306547  -115.41245587     0.00000000     0.00000003  0.32D-12  0.82D-13  6  5     0.24     0.03
  12      1.11804300    -0.36306547  -115.41245587    -0.00000000     0.00000003  0.32D-13  0.12D-13  6  6     0.27     0.03
  13      1.11804298    -0.36306547  -115.41245588    -0.00000000     0.00000001  0.37D-14  0.15D-14  6  3     0.28     0.03
  14      1.11804298    -0.36306547  -115.41245588    -0.00000000     0.00000000  0.29D-15  0.14D-15  6  1     0.30     0.03
  15      1.11804298    -0.36306547  -115.41245588     0.00000000    -0.00000000  0.35D-16  0.31D-16  6  2     0.32     0.03
  16      1.11804298    -0.36306547  -115.41245588     0.00000000    -0.00000000  0.42D-17  0.20D-17  6  4     0.35     0.03
  17      1.11804298    -0.36306547  -115.41245588    -0.00000000     0.00000000  0.43D-18  0.22D-18  6  5     0.37     0.03
  18      1.11804298    -0.36306547  -115.41245588    -0.00000000    -0.00000000  0.11D-18  0.33D-19  6  6     0.39     0.03
  19      1.11804298    -0.36306547  -115.41245588     0.00000000    -0.00000000  0.12D-19  0.43D-20  6  3     0.41     0.03

 Norm of t1 vector:      0.04129944      S-energy:    -0.00000000      T1 diagnostic:  0.00780486
                                                                       D1 diagnostic:  0.01703729
                                                                       D2 diagnostic:  0.13402564 (internal)


 Total CPU time for triples:      0.08 sec


 RESULTS
 =======

  Reference energy                   -115.049390403449
  CCSD singlet pair energy             -0.254299797343
  CCSD triplet pair energy             -0.108765675227
  CCSD correlation energy              -0.363065472571

  Triples (T) contribution             -0.007694593959
  Total correlation energy             -0.370760066529

  CCSD total energy                  -115.412455876020
  CCSD[T] energy                     -115.420436198071
  CCSD-T energy                      -115.420002689669
 !CCSD(T) total energy               -115.420150469979

 Timing summary (sec):

 STEP                 CPU(USER)    SYS     CPU(TOT)    WALL
 Transformation          0.03      0.01      0.04      0.04
 CCSD iterations         0.38      0.05      0.43      0.60
 Triples                 0.08      0.00      0.08      0.08

 Program statistics:

 Available memory in ccsd:               999999795
 Min. memory needed in ccsd:                136177
 Max. memory used in ccsd:                  162910
 Max. memory used in cckext:                178997 (19 integral passes)



 **********************************************************************************************************************************
 DATASETS  * FILE   NREC   LENGTH (MB)   RECORD NAMES
              1      19       31.13       500      610      700      900      950      970     1000      129      960     1100   
                                          VAR    BASINP    GEOM    SYMINP    ZMAT    AOBASIS   BASIS     P2S    ABASIS      S 
                                         1400     1410     1200     1210     1080     1600     1650     1700     1380   
                                           T        V       H0       H01     AOSYM     SMH    MOLCAS    OPER     JKOP   

              2       4        0.47       700     1000      520     2100   
                                         GEOM     BASIS   MCVARS     RHF  

 PROGRAMS   *        TOTAL   CCSD(T)   RHF-SCF       INT
 CPU TIMES  *         1.02      0.52      0.06      0.30
 REAL TIME  *         2.56 SEC
 DISK USED  *        35.56 MB (local),      115.96 MB (total)
 SF USED    *         5.97 MB
 GA USED    *         0.00 MB       (max)       0.00 MB       (current)
 **********************************************************************************************************************************

 CCSD(T)/cc-pVDZ energy=   -115.420150469979

         CCSD(T)         RHF-SCF
   -115.42015047   -115.04939040
 **********************************************************************************************************************************
 Molpro calculation terminated
