
 Primary working directories    : /tmp/601555.47.gen4.q
 Secondary working directories  : /tmp/601555.47.gen4.q
 Wavefunction directory         : /home/vulcan/mel64643/wfu/
 Main file repository           : /tmp/601555.47.gen4.q/

 ARCHNAME  : Linux/x86_64
 FC        : /opt/intel/compilers_and_libraries_2016.1.150/linux/bin/intel64/ifort
 FCVERSION : 16.0.1
 BLASLIB   : -mkl
 id        : ccgc

 Nodes     nprocs
 n033         1
 ga_uses_ma=false, calling ma_init with nominal heap.
 GA-space will be limited to   8.0 MW (determined by -G option)

 Using customized tuning parameters: mindgm=10; mindgv=16; mindgc=4; mindgr=1; noblas=0; mincuda=1000; minvec=7
 default implementation of scratch files=df  

 ***,Optimization of min3
 memory,1000,m
 gthresh,energy=1.0d-12,orbital=1.0d-10,oneint=1.0d-16,twoint=1.0d-16,optgrad=1.0d-6,compress=1.0d-13
 geomtyp=xyz
 
  bohr
  geometry = {
  6
  arbitrary comment
  C   -1.3689426716   -0.0232837017    0.0000070793
  O    1.3038247062    0.1231925914   -0.0000019413
  H   -2.0787922983    1.9076543770   -0.0000821564
  H   -2.1034934275   -0.9800359206    1.6816992610
  H   -2.1034856945   -0.9801653915   -1.6816298588
  H    1.9271652257   -1.5774940746   -0.0000007939
 }
 
 basis=cc-pvdz
 {rhf;maxit,200}
 {ccsd(t);maxit,200}

 Variables initialized (661), CPU time= 0.00 sec
 Commands  initialized (458), CPU time= 0.00 sec, 486 directives.
 Default parameters read. Elapsed time= 0.06 sec

 Checking input...
 Passed
1


                                         ***  PROGRAM SYSTEM MOLPRO  ***
                         Copyright, University College Cardiff Consultants Limited, 2008

                                    Version 2010.1 linked May 16 2016 07:17:05


 **********************************************************************************************************************************
 LABEL *   Optimization of min3                                                          
 Linux-4.4.3/n033(x86_64) 64 bit mpp version                                             DATE: 06-Nov-21          TIME: 15:39:01  
 **********************************************************************************************************************************

 SHA1:             9e8077add272b0f3cad6f7df79ec5211205f459d
 **********************************************************************************************************************************

 THRESHOLDS:

 ZERO    =  1.00D-12  ONEINT  =  1.00D-16  TWOINT  =  1.00D-16  PREFAC  =  1.00D-14  LOCALI  =  1.00D-09  EORDER  =  1.00D-04
 ENERGY  =  1.00D-12  ETEST   =  0.00D+00  EDENS   =  0.00D+00  THRDEDEF=  1.00D-06  GRADIENT=  1.00D-02  STEP    =  1.00D-03
 ORBITAL =  1.00D-10  CIVEC   =  1.00D-05  COEFF   =  1.00D-04  PRINTCI =  5.00D-02  PUNCHCI =  9.90D+01  OPTGRAD =  1.00D-06
 OPTENERG=  1.00D-06  OPTSTEP =  3.00D-04  THRGRAD =  1.00D-10  COMPRESS=  1.00D-13  VARMIN  =  1.00D-07  VARMAX  =  1.00D-03
 THRDOUB =  0.00D+00  THRDIV  =  1.00D-05  THRRED  =  1.00D-07  THRPSP  =  1.00D+00  THRDC   =  1.00D-10  THRCS   =  1.00D-10
 THRNRM  =  1.00D-08  THREQ   =  0.00D+00  THRDE   =  1.00D+00  THRREF  =  1.00D-05  SPARFAC =  1.00D+00  THRDLP  =  1.00D-07
 THRDIA  =  1.00D-10  THRDLS  =  1.00D-07  THRGPS  =  0.00D+00  THRKEX  =  0.00D+00  THRDIS  =  2.00D-01  THRVAR  =  1.00D-10
 THRLOC  =  1.00D-06  THRGAP  =  1.00D-06  THRLOCT = -1.00D+00  THRGAPT = -1.00D+00  THRORB  =  1.00D-06  THRMLTP =  0.00D+00
 THRCPQCI=  1.00D-10  KEXTA   =  0.00D+00  THRCOARS=  0.00D+00  SYMTOL  =  1.00D-06  GRADTOL =  1.00D-06  THROVL  =  1.00D-08
 THRORTH =  1.00D-08  GRID    =  1.00D-06  GRIDMAX =  1.00D-03  DTMAX   =  0.00D+00

 SETTING GEOMTYP        =    XYZ
 ZUNIT=BOHR
 

 Variable memory set to 1000000000 words,  buffer space   230000 words

 SETTING BASIS          =    CC-PVDZ


 Recomputing integrals since basis changed


 Using spherical harmonics

 Library entry C      S cc-pVDZ              selected for orbital group  1
 Library entry C      P cc-pVDZ              selected for orbital group  1
 Library entry C      D cc-pVDZ              selected for orbital group  1
 Library entry O      S cc-pVDZ              selected for orbital group  2
 Library entry O      P cc-pVDZ              selected for orbital group  2
 Library entry O      D cc-pVDZ              selected for orbital group  2
 Library entry H      S cc-pVDZ              selected for orbital group  3
 Library entry H      P cc-pVDZ              selected for orbital group  3

1PROGRAM * SEWARD (Integral evaluation for generally contracted gaussian basis sets)     Author: Roland Lindh, 1990

 Geometry written to block  1 of record 700


 Point group  C1  



 ATOMIC COORDINATES

 NR  ATOM    CHARGE       X              Y              Z

   1  C       6.00   -1.368942672   -0.023283702    0.000007079
   2  O       8.00    1.303824706    0.123192591   -0.000001941
   3  H       1.00   -2.078792298    1.907654377   -0.000082156
   4  H       1.00   -2.103493428   -0.980035921    1.681699261
   5  H       1.00   -2.103485694   -0.980165392   -1.681629859
   6  H       1.00    1.927165226   -1.577494075   -0.000000794

 Bond lengths in Bohr (Angstrom)

 1-2  2.676778056  1-3  2.057281790  1-4  2.069547829  1-5  2.069560053  2-6  1.811322318
     ( 1.416489941)     ( 1.088666636)     ( 1.095157544)     ( 1.095164013)     ( 0.958510489)

 Bond angles

  1-2-6  106.99218336   2-1-3  107.04753333   2-1-4  112.31519312   2-1-5  112.31469597

  3-1-4  108.14827654   3-1-5  108.14753345   4-1-5  108.69626148

 NUCLEAR CHARGE:                   18
 NUMBER OF PRIMITIVE AOS:          82
 NUMBER OF SYMMETRY AOS:           80
 NUMBER OF CONTRACTIONS:           48   (  48A   )
 NUMBER OF CORE ORBITALS:           2   (   2A   )
 NUMBER OF VALENCE ORBITALS:       12   (  12A   )


 NUCLEAR REPULSION ENERGY   40.38344078


 Eigenvalues of metric

         1 0.965E-02 0.176E-01 0.368E-01 0.374E-01 0.381E-01 0.474E-01 0.478E-01 0.516E-01


 Contracted 2-electron integrals neglected if value below      1.0D-16
 AO integral compression algorithm  1   Integral accuracy      1.0D-16

     6.554 MB (compressed) written to integral file ( 95.5%)

     Node minimum: 6.554 MB, node maximum: 6.554 MB


 NUMBER OF SORTED TWO-ELECTRON INTEGRALS:     692076.     BUFFER LENGTH:  32768
 NUMBER OF SEGMENTS:   1  SEGMENT LENGTH:     692076      RECORD LENGTH: 524288

 Memory used in sort:       1.25 MW

 SORT1 READ      832256. AND WROTE      682150. INTEGRALS IN      2 RECORDS. CPU TIME:     0.01 SEC, REAL TIME:     0.01 SEC
 SORT2 READ      682150. AND WROTE      692076. INTEGRALS IN     25 RECORDS. CPU TIME:     0.02 SEC, REAL TIME:     0.03 SEC

 FILE SIZES:   FILE 1:     8.0 MBYTE,  FILE 4:     8.4 MBYTE,   TOTAL:     16.4 MBYTE

 OPERATOR DM      FOR CENTER  0  COORDINATES:    0.000000    0.000000    0.000000


 **********************************************************************************************************************************
 DATASETS  * FILE   NREC   LENGTH (MB)   RECORD NAMES
              1      19        8.05       500      610      700      900      950      970     1000      129      960     1100   
                                          VAR    BASINP    GEOM    SYMINP    ZMAT    AOBASIS   BASIS     P2S    ABASIS      S 
                                         1400     1410     1200     1210     1080     1600     1650     1300     1700   
                                           T        V       H0       H01     AOSYM     SMH    MOLCAS    ERIS     OPER   

 PROGRAMS   *        TOTAL       INT
 CPU TIMES  *         0.32      0.28
 REAL TIME  *         0.51 SEC
 DISK USED  *        23.63 MB      
 GA USED    *         0.00 MB       (max)       0.00 MB       (current)
 **********************************************************************************************************************************

1PROGRAM * RHF-SCF (CLOSED SHELL)       Authors: W. Meyer, H.-J. Werner


 NUMBER OF ELECTRONS:       9+    9-    SPACE SYMMETRY=1    SPIN SYMMETRY: Singlet 
 CONVERGENCE THRESHOLDS:    1.00E-10 (Density)    1.00E-13 (Energy)
 MAX. NUMBER OF ITERATIONS:      200
 INTERPOLATION TYPE:            DIIS
 INTERPOLATION STEPS:              2 (START)      1 (STEP)
 LEVEL SHIFTS:                  0.00 (CLOSED)  0.00 (OPEN) 



 Orbital guess generated from atomic densities. Full valence occupancy:   14

 Molecular orbital dump at record        2100.2

 ITERATION    DDIFF          GRAD             ENERGY        2-EL.EN.            DIPOLE MOMENTS         DIIS
    1      0.000D+00      0.000D+00      -115.01434550    164.521794   -0.49204   -0.90133   -0.00000    0
    2      0.000D+00      0.110D-01      -115.04273496    162.304785   -0.31362   -0.53539    0.00000    1
    3      0.205D-01      0.528D-02      -115.04872884    163.327558   -0.39687   -0.61075    0.00000    2
    4      0.637D-02      0.112D-02      -115.04919213    163.171059   -0.38672   -0.59959    0.00000    3
    5      0.204D-02      0.202D-03      -115.04921312    163.177620   -0.38954   -0.59530    0.00000    4
    6      0.433D-03      0.354D-04      -115.04921392    163.177743   -0.38985   -0.59510    0.00000    5
    7      0.929D-04      0.734D-05      -115.04921395    163.176567   -0.38999   -0.59494    0.00000    6
    8      0.150D-04      0.237D-05      -115.04921395    163.176949   -0.39002   -0.59491    0.00000    7
    9      0.501D-05      0.491D-06      -115.04921395    163.176907   -0.39004   -0.59491    0.00000    6
   10      0.140D-05      0.875D-07      -115.04921395    163.176906   -0.39004   -0.59491    0.00000    6
   11      0.234D-06      0.326D-07      -115.04921395    163.176912   -0.39004   -0.59491    0.00000    6
   12      0.587D-07      0.136D-07      -115.04921395    163.176910   -0.39004   -0.59491    0.00000    7
   13      0.254D-07      0.299D-08      -115.04921395    163.176910   -0.39004   -0.59491    0.00000    7
   14      0.746D-08      0.646D-09      -115.04921395    163.176910   -0.39004   -0.59491    0.00000    7
   15      0.165D-08      0.148D-09      -115.04921395    163.176910   -0.39004   -0.59491    0.00000    7
   16      0.329D-09      0.444D-10      -115.04921395    163.176910   -0.39004   -0.59491    0.00000    7
   17      0.861D-10      0.146D-10      -115.04921395    163.176910   -0.39004   -0.59491    0.00000    0

 Final occupancy:   9

 !RHF STATE 1.1 Energy               -115.049213953801
 Nuclear energy                        40.38344078
 One-electron energy                 -237.02110986
 Two-electron energy                   81.58845513
 Virial quotient                       -1.00083224
 !RHF STATE 1.1 Dipole moment          -0.39004078    -0.59491144     0.00000208
 Dipole moment /Debye                  -0.99131985    -1.51201501     0.00000529

 Orbital energies:

         1.1          2.1          3.1          4.1          5.1          6.1          7.1          8.1          9.1         10.1
    -20.550192   -11.274371    -1.352103    -0.921037    -0.684040    -0.614336    -0.585999    -0.497201    -0.442820     0.184453

        11.1
      0.224704


 **********************************************************************************************************************************
 DATASETS  * FILE   NREC   LENGTH (MB)   RECORD NAMES
              1      19        8.05       500      610      700      900      950      970     1000      129      960     1100   
                                          VAR    BASINP    GEOM    SYMINP    ZMAT    AOBASIS   BASIS     P2S    ABASIS      S 
                                         1400     1410     1200     1210     1080     1600     1650     1300     1700   
                                           T        V       H0       H01     AOSYM     SMH    MOLCAS    ERIS     OPER   

              2       3        0.39       700     1000     2100   
                                         GEOM     BASIS     RHF  

 PROGRAMS   *        TOTAL       RHF       INT
 CPU TIMES  *         0.42      0.10      0.28
 REAL TIME  *         0.64 SEC
 DISK USED  *        23.63 MB      
 GA USED    *         0.00 MB       (max)       0.00 MB       (current)
 **********************************************************************************************************************************


1PROGRAM * CCSD (Closed-shell coupled cluster)     Authors: C. Hampel, H.-J. Werner, 1991, M. Deegan, P.J. Knowles, 1992


 Convergence thresholds:  THRVAR = 1.00D-08  THRDEN = 1.00D-12

 CCSD(T)     terms to be evaluated (factor= 1.000)


 Number of core orbitals:           2 (   2 )
 Number of closed-shell orbitals:   7 (   7 )
 Number of external orbitals:      39 (  39 )

 Molecular orbitals read from record     2100.2  Type=RHF/CANONICAL (state 1.1)

 Number of N-1 electron functions:               7
 Number of N-2 electron functions:              28
 Number of singly external CSFs:               273
 Number of doubly external CSFs:             37401
 Total number of CSFs:                       37675

 Length of J-op  integral file:               0.00 MB
 Length of K-op  integral file:               0.19 MB
 Length of 3-ext integral record:             0.00 MB

 Memory could be reduced to 0.96 Mwords without degradation in triples

 Integral transformation finished. Total CPU:   0.02 sec, npass=  1  Memory used:   0.66 MW

 Reference energy:                   -115.04921395

 MP2 singlet pair energy:              -0.21855971
 MP2 triplet pair energy:              -0.11984576
 MP2 correlation energy:               -0.33840547
 MP2 total energy:                   -115.38761943

 SCS-MP2 correlation energy:           -0.33684235   (PS=  1.200000  PT=  0.333333)
 SCS-MP2 total energy:               -115.38605630

 ITER.      SQ.NORM     CORR.ENERGY   TOTAL ENERGY   ENERGY CHANGE        DEN1      VAR(S)    VAR(P)  DIIS     TIME
   1      1.10721926    -0.36120406  -115.41041802    -0.02279859    -0.01413689  0.91D-03  0.17D-02  1  1     0.07
   2      1.11572033    -0.36314370  -115.41235765    -0.00193964    -0.00923432  0.20D-04  0.16D-03  2  2     0.12
   3      1.11758878    -0.36326998  -115.41248394    -0.00012628    -0.00119730  0.94D-05  0.85D-05  3  3     0.17
   4      1.11809955    -0.36326860  -115.41248256     0.00000138    -0.00025340  0.32D-06  0.67D-06  4  4     0.22
   5      1.11819627    -0.36326902  -115.41248298    -0.00000042    -0.00003566  0.96D-07  0.48D-07  5  5     0.27
   6      1.11821490    -0.36326769  -115.41248165     0.00000133    -0.00000431  0.15D-07  0.40D-08  6  6     0.32
   7      1.11821951    -0.36326728  -115.41248124     0.00000041    -0.00000034  0.19D-08  0.70D-09  6  1     0.37
   8      1.11822074    -0.36326738  -115.41248134    -0.00000010     0.00000073  0.25D-09  0.69D-10  6  3     0.42
   9      1.11822178    -0.36326726  -115.41248122     0.00000012    -0.00000038  0.12D-10  0.10D-10  6  2     0.47
  10      1.11822171    -0.36326727  -115.41248122    -0.00000000     0.00000007  0.10D-11  0.84D-12  6  5     0.52
  11      1.11822174    -0.36326726  -115.41248122     0.00000000    -0.00000000  0.18D-12  0.48D-13  6  4     0.57
  12      1.11822173    -0.36326727  -115.41248122    -0.00000000     0.00000001  0.18D-13  0.95D-14  6  1     0.61
  13      1.11822173    -0.36326727  -115.41248122    -0.00000000    -0.00000000  0.23D-14  0.89D-15  6  6     0.66
  14      1.11822173    -0.36326727  -115.41248122     0.00000000    -0.00000000  0.22D-15  0.12D-15  6  3     0.71
  15      1.11822173    -0.36326727  -115.41248122    -0.00000000    -0.00000000  0.24D-16  0.16D-16  6  2     0.76
  16      1.11822173    -0.36326727  -115.41248122    -0.00000000    -0.00000000  0.53D-17  0.15D-17  6  5     0.81
  17      1.11822173    -0.36326727  -115.41248122    -0.00000000    -0.00000000  0.50D-18  0.24D-18  6  4     0.86
  18      1.11822173    -0.36326727  -115.41248122     0.00000000    -0.00000000  0.78D-19  0.40D-19  6  1     0.91
  19      1.11822173    -0.36326727  -115.41248122    -0.00000000    -0.00000000  0.86D-20  0.41D-20  6  6     0.96
  20      1.11822173    -0.36326727  -115.41248122     0.00000000     0.00000000  0.12D-20  0.52D-21  6  3     1.01

 Norm of t1 vector:      0.04151210      S-energy:    -0.00000000      T1 diagnostic:  0.00784505
                                                                       D1 diagnostic:  0.01728733


 Total CPU time for triples:      0.24 sec


 RESULTS
 =======

  Reference energy                   -115.049213953801
  CCSD singlet pair energy             -0.254473203389
  CCSD triplet pair energy             -0.108794062025
  CCSD correlation energy              -0.363267265415

  Triples (T) contribution             -0.007725598435
  Total correlation energy             -0.370992863850

  CCSD total energy                  -115.412481219217
  CCSD[T] energy                     -115.420495382446
  CCSD-T energy                      -115.420057605401
 !CCSD(T) total energy               -115.420206817652

 Timing summary (sec):

 STEP                 CPU(USER)    SYS     CPU(TOT)    WALL
 Transformation          0.02      0.01      0.03      0.04
 CCSD iterations         0.99      0.06      1.05      1.07
 Triples                 0.24      0.00      0.24      0.25

 Program statistics:

 Available memory in ccsd:               999999704
 Min. memory needed in ccsd:                136801
 Max. memory used in ccsd:                  163198
 Max. memory used in cckext:                182024 (20 integral passes)



 **********************************************************************************************************************************
 DATASETS  * FILE   NREC   LENGTH (MB)   RECORD NAMES
              1      20       10.59       500      610      700      900      950      970     1000      129      960     1100   
                                          VAR    BASINP    GEOM    SYMINP    ZMAT    AOBASIS   BASIS     P2S    ABASIS      S 
                                         1400     1410     1200     1210     1080     1600     1650     1300     1700     1380   
                                           T        V       H0       H01     AOSYM     SMH    MOLCAS    ERIS     OPER     JKOP   

              2       3        0.39       700     1000     2100   
                                         GEOM     BASIS     RHF  

 PROGRAMS   *        TOTAL   CCSD(T)       RHF       INT
 CPU TIMES  *         1.68      1.26      0.10      0.28
 REAL TIME  *         2.02 SEC
 DISK USED  *        25.05 MB      
 GA USED    *         0.00 MB       (max)       0.00 MB       (current)
 **********************************************************************************************************************************

        CCSD(T)         RHF-SCF 
   -115.42020682   -115.04921395
 **********************************************************************************************************************************
 Variable memory released
