
    -----------------------------------------------------------------------
          Psi4: An Open-Source Ab Initio Electronic Structure Package
                               Psi4 1.4a2.dev629 

                         Git: Rev {master} 2938fc2 dirty


    D. G. A. Smith, L. A. Burns, A. C. Simmonett, R. M. Parrish,
    M. C. Schieber, R. Galvelis, P. Kraus, H. Kruse, R. Di Remigio,
    A. Alenaizan, A. M. James, S. Lehtola, J. P. Misiewicz, M. Scheurer,
    R. A. Shaw, J. B. Schriber, Y. Xie, Z. L. Glick, D. A. Sirianni,
    J. S. O'Brien, J. M. Waldrop, A. Kumar, E. G. Hohenstein,
    B. P. Pritchard, B. R. Brooks, H. F. Schaefer III, A. Yu. Sokolov,
    K. Patkowski, A. E. DePrince III, U. Bozkaya, R. A. King,
    F. A. Evangelista, J. M. Turney, T. D. Crawford, C. D. Sherrill,
    J. Chem. Phys. 152(18) 184108 (2020). https://doi.org/10.1063/5.0006002

                            Additional Code Authors
    E. T. Seidl, C. L. Janssen, E. F. Valeev, M. L. Leininger,
    J. F. Gonthier, R. M. Richard, H. R. McAlexander, M. Saitow, X. Wang,
    P. Verma, and M. H. Lechner

             Previous Authors, Complete List of Code Contributors,
                       and Citations for Specific Modules
    https://github.com/psi4/psi4/blob/master/codemeta.json
    https://github.com/psi4/psi4/graphs/contributors
    http://psicode.org/psi4manual/master/introduction.html#citing-psifour

    -----------------------------------------------------------------------


    Psi4 started on: Friday, 18 September 2020 06:18PM

    Process ID: 18718
    Host:       n008
    PSIDATADIR: /opt/psi/4/master/share/psi4
    Memory:     500.0 MiB
    Threads:    1
    
  ==> Input File <==

--------------------------------------------------------------------------
# o-Benzyne preliminary computations

memory 14 gb

molecule {
  0 1
  C   -1.3709395234   -0.0245294052    0.0024558365
  O    1.3018481101    0.1205549516    0.0018434794
  H   -2.0719912636    1.9029156038   -0.0083254153
  H   -2.0993689319   -0.9802236640    1.6776657890
  H   -2.1075126374   -0.9710878311   -1.6751941087
  H    1.9411000062   -1.5727681150    0.0014614290
  units bohr
}

set {
  basis=cc-pVTZ
  reference rhf
  e_convergence 10 
  d_convergence 10
  r_convergence 8
  maxiter 300
}

energy('ccsd(t)')
--------------------------------------------------------------------------

  Memory set to  13.039 GiB by Python driver.

Scratch directory: /tmp/

*** tstart() called on n008
*** at Fri Sep 18 18:19:00 2020

   => Loading Basis Set <=

    Name: CC-PVTZ
    Role: ORBITAL
    Keyword: BASIS
    atoms 1   entry C          line   186 file /opt/psi/4/master/share/psi4/basis/cc-pvtz.gbs 
    atoms 2   entry O          line   262 file /opt/psi/4/master/share/psi4/basis/cc-pvtz.gbs 
    atoms 3-6 entry H          line    23 file /opt/psi/4/master/share/psi4/basis/cc-pvtz.gbs 


         ---------------------------------------------------------
                                   SCF
               by Justin Turney, Rob Parrish, Andy Simmonett
                          and Daniel G. A. Smith
                              RHF Reference
                        1 Threads,  13351 MiB Core
         ---------------------------------------------------------

  ==> Geometry <==

    Molecular point group: c1
    Full point group: C1

    Geometry (in Bohr), charge = 0, multiplicity = 1:

       Center              X                  Y                   Z               Mass       
    ------------   -----------------  -----------------  -----------------  -----------------
         C           -1.370938244729    -0.024531391963     0.000753179533    12.000000000000
         O            1.301849388771     0.120552964837     0.000140822433    15.994914619570
         H           -2.071989984929     1.902913617037    -0.010028072267     1.007825032230
         H           -2.099367653229    -0.980225650763     1.675963132033     1.007825032230
         H           -2.107511358729    -0.971089817863    -1.676896765667     1.007825032230
         H            1.941101284871    -1.572770101763    -0.000241227967     1.007825032230

  Running in c1 symmetry.

  Rotational constants: A =      4.31053  B =      0.83185  C =      0.80260 [cm^-1]
  Rotational constants: A = 129226.47207  B =  24938.10363  C =  24061.43286 [MHz]
  Nuclear repulsion =   40.424668247665267

  Charge       = 0
  Multiplicity = 1
  Electrons    = 18
  Nalpha       = 9
  Nbeta        = 9

  ==> Algorithm <==

  SCF Algorithm Type is PK.
  DIIS enabled.
  MOM disabled.
  Fractional occupation disabled.
  Guess Type is SAD.
  Energy threshold   = 1.00e-10
  Density threshold  = 1.00e-10
  Integral threshold = 0.00e+00

  ==> Primary Basis <==

  Basis Set: CC-PVTZ
    Blend: CC-PVTZ
    Number of shells: 44
    Number of basis function: 116
    Number of Cartesian functions: 130
    Spherical Harmonics?: true
    Max angular momentum: 3

  ==> Integral Setup <==

  Using in-core PK algorithm.
   Calculation information:
      Number of atoms:                   6
      Number of AO shells:              44
      Number of primitives:             84
      Number of atomic orbitals:       130
      Number of basis functions:       116

      Integral cutoff                 1.00e-12
      Number of threads:                 1

  Performing in-core PK
  Using 46056582 doubles for integral storage.
  We computed 490498 shell quartets total.
  Whereas there are 490545 unique shell quartets.

  ==> DiskJK: Disk-Based J/K Matrices <==

    J tasked:                  Yes
    K tasked:                  Yes
    wK tasked:                  No
    Memory [MiB]:            10013
    Schwarz Cutoff:          1E-12

    OpenMP threads:              1

  Minimum eigenvalue in the overlap matrix is 1.8302000174E-03.
  Reciprocal condition number of the overlap matrix is 2.7593147236E-04.
    Using symmetric orthogonalization.

  ==> Pre-Iterations <==

  SCF Guess: Superposition of Atomic Densities via on-the-fly atomic UHF (no occupation information).

   -------------------------
    Irrep   Nso     Nmo    
   -------------------------
     A        116     116 
   -------------------------
    Total     116     116
   -------------------------

  ==> Iterations <==

                        Total Energy        Delta E     RMS |[F,P]|

   @RHF iter SAD:  -114.42810703143698   -1.14428e+02   0.00000e+00 
   @RHF iter   1:  -115.01460718237968   -5.86500e-01   3.41860e-03 DIIS
   @RHF iter   2:  -115.07168915231294   -5.70820e-02   1.94991e-03 DIIS
   @RHF iter   3:  -115.08844336098639   -1.67542e-02   3.01106e-04 DIIS
   @RHF iter   4:  -115.08932556604816   -8.82205e-04   8.77570e-05 DIIS
   @RHF iter   5:  -115.08939876345754   -7.31974e-05   2.13418e-05 DIIS
   @RHF iter   6:  -115.08940358268684   -4.81923e-06   4.71560e-06 DIIS
   @RHF iter   7:  -115.08940394711050   -3.64424e-07   1.09361e-06 DIIS
   @RHF iter   8:  -115.08940396848089   -2.13704e-08   2.26172e-07 DIIS
   @RHF iter   9:  -115.08940396938527   -9.04379e-10   4.19965e-08 DIIS
   @RHF iter  10:  -115.08940396941485   -2.95728e-11   1.07567e-08 DIIS
   @RHF iter  11:  -115.08940396941685   -2.00373e-12   2.18881e-09 DIIS
   @RHF iter  12:  -115.08940396941686   -1.42109e-14   3.91096e-10 DIIS
   @RHF iter  13:  -115.08940396941654    3.26850e-13   7.20872e-11 DIIS
  Energy and wave function converged.


  ==> Post-Iterations <==

    Orbital Energies [Eh]
    ---------------------

    Doubly Occupied:                                                      

       1A    -20.552184     2A    -11.267948     3A     -1.355807  
       4A     -0.924265     5A     -0.689362     6A     -0.619018  
       7A     -0.591425     8A     -0.502000     9A     -0.449004  

    Virtual:                                                              

      10A      0.138591    11A      0.178902    12A      0.220541  
      13A      0.224207    14A      0.291043    15A      0.386441  
      16A      0.404449    17A      0.546359    18A      0.584668  
      19A      0.624335    20A      0.625598    21A      0.639792  
      22A      0.690791    23A      0.704888    24A      0.722086  
      25A      0.833187    26A      0.865414    27A      0.872397  
      28A      0.927832    29A      1.069867    30A      1.101791  
      31A      1.178099    32A      1.190224    33A      1.263359  
      34A      1.271846    35A      1.284073    36A      1.365678  
      37A      1.447617    38A      1.492613    39A      1.523968  
      40A      1.546438    41A      1.584116    42A      1.622012  
      43A      1.778244    44A      2.093219    45A      2.180679  
      46A      2.200049    47A      2.301679    48A      2.323715  
      49A      2.488891    50A      2.510178    51A      2.576084  
      52A      2.805521    53A      2.952037    54A      3.057003  
      55A      3.110872    56A      3.118501    57A      3.144128  
      58A      3.225085    59A      3.244685    60A      3.314897  
      61A      3.316356    62A      3.344189    63A      3.385606  
      64A      3.502050    65A      3.615660    66A      3.635296  
      67A      3.702159    68A      3.710841    69A      3.747169  
      70A      3.762617    71A      3.817022    72A      3.843944  
      73A      3.906859    74A      4.011496    75A      4.029280  
      76A      4.119576    77A      4.162403    78A      4.173755  
      79A      4.249939    80A      4.257906    81A      4.291056  
      82A      4.403866    83A      4.441211    84A      4.470041  
      85A      4.563021    86A      4.584459    87A      4.715756  
      88A      4.789006    89A      4.999691    90A      5.038529  
      91A      5.059841    92A      5.204791    93A      5.276014  
      94A      5.318157    95A      5.375574    96A      5.443057  
      97A      5.549530    98A      5.553135    99A      5.571152  
     100A      5.793389   101A      5.946416   102A      6.193763  
     103A      6.213466   104A      6.251607   105A      6.436475  
     106A      6.644599   107A      7.000556   108A      7.127293  
     109A      7.185746   110A      7.236584   111A      7.356716  
     112A      7.436721   113A      7.594980   114A      7.916009  
     115A     12.158167   116A     13.764970  

    Final Occupation by Irrep:
              A 
    DOCC [     9 ]

  @RHF Final Energy:  -115.08940396941654

   => Energetics <=

    Nuclear Repulsion Energy =             40.4246682476652666
    One-Electron Energy =                -237.1261191435798992
    Two-Electron Energy =                  81.6120469264980954
    Total Energy =                       -115.0894039694165372

Computation Completed


Properties will be evaluated at   0.000000,   0.000000,   0.000000 [a0]

Properties computed using the SCF density matrix

  Nuclear Dipole Moment: [e a0]
     X:    -2.1486      Y:    -0.8039      Z:    -0.0056

  Electronic Dipole Moment: [e a0]
     X:     1.7666      Y:     0.2163      Z:     0.0048

  Dipole Moment: [e a0]
     X:    -0.3820      Y:    -0.5876      Z:    -0.0008     Total:     0.7009

  Dipole Moment: [D]
     X:    -0.9709      Y:    -1.4936      Z:    -0.0020     Total:     1.7815


*** tstop() called on n008 at Fri Sep 18 18:19:06 2020
Module time:
	user time   =       6.48 seconds =       0.11 minutes
	system time =       0.07 seconds =       0.00 minutes
	total time  =          6 seconds =       0.10 minutes
Total time:
	user time   =       6.48 seconds =       0.11 minutes
	system time =       0.07 seconds =       0.00 minutes
	total time  =          6 seconds =       0.10 minutes
 MINTS: Wrapper to libmints.
   by Justin Turney

   Calculation information:
      Number of threads:                 1
      Number of atoms:                   6
      Number of AO shells:              44
      Number of SO shells:              44
      Number of primitives:             84
      Number of atomic orbitals:       130
      Number of basis functions:       116

      Number of irreps:                  1
      Integral cutoff                 0.00e+00
      Number of functions per irrep: [ 116 ]

 OEINTS: Overlap, kinetic, potential, dipole, and quadrupole integrals
         stored in file 35.

      Computing two-electron integrals...done
      Computed 22873426 non-zero two-electron integrals.
        Stored in file 33.


*** tstart() called on n008
*** at Fri Sep 18 18:19:10 2020


	Wfn Parameters:
	--------------------
	Wavefunction         = CCSD_T
	Number of irreps     = 1
	Number of MOs        = 116
	Number of active MOs = 116
	AO-Basis             = NONE
	Semicanonical        = false
	Reference            = RHF
	Print Level          = 1

	IRREP	# MOs	# FZDC	# DOCC	# SOCC	# VIRT	# FZVR
	-----	-----	------	------	------	------	------
	 A	   116	    0	    9	    0	    107	    0
	Transforming integrals...
	IWL integrals will be deleted.
	(OO|OO)...
	Presorting SO-basis two-electron integrals.
	Sorting File: SO Ints (nn|nn) nbuckets = 1
	Transforming the one-electron integrals and constructing Fock matrices
	Starting first half-transformation.
	Sorting half-transformed integrals.
	First half integral transformation complete.
	Starting second half-transformation.
	Two-electron integral transformation complete.
	(OO|OV)...
	Starting second half-transformation.
	Two-electron integral transformation complete.
	(OO|VV)...
	Starting second half-transformation.
	Two-electron integral transformation complete.
	(OV|OO)...
	Starting first half-transformation.
	Sorting half-transformed integrals.
	First half integral transformation complete.
	Starting second half-transformation.
	Two-electron integral transformation complete.
	(OV|OV)...
	Starting second half-transformation.
	Two-electron integral transformation complete.
	(OV|VV)...
	Starting second half-transformation.
	Two-electron integral transformation complete.
	(VV|OO)...
	Starting first half-transformation.
	Sorting half-transformed integrals.
	First half integral transformation complete.
	Starting second half-transformation.
	Two-electron integral transformation complete.
	(VV|OV)...
	Starting second half-transformation.
	Two-electron integral transformation complete.
	(VV|VV)...
	Starting second half-transformation.
	Two-electron integral transformation complete.
	Frozen core energy     =      0.00000000000000

	Size of irrep 0 of <ab|cd> integrals:    131.080 (MW) /   1048.637 (MB)
	Total:                                   131.080 (MW) /   1048.637 (MB)

	Size of irrep 0 of <ia|bc> integrals:     11.025 (MW) /     88.203 (MB)
	Total:                                    11.025 (MW) /     88.203 (MB)

	Size of irrep 0 of tijab amplitudes:       0.927 (MW) /      7.419 (MB)
	Total:                                     0.927 (MW) /      7.419 (MB)

	Nuclear Rep. energy          =     40.42466824766527
	SCF energy                   =   -115.08940396941654
	One-electron energy          =   -237.12611917546673
	Two-electron energy          =     81.61204695838461
	Reference energy             =   -115.08940396941685

*** tstop() called on n008 at Fri Sep 18 18:19:39 2020
Module time:
	user time   =      23.70 seconds =       0.39 minutes
	system time =       5.71 seconds =       0.10 minutes
	total time  =         29 seconds =       0.48 minutes
Total time:
	user time   =      33.23 seconds =       0.55 minutes
	system time =       6.12 seconds =       0.10 minutes
	total time  =         39 seconds =       0.65 minutes
            **************************
            *                        *
            *        CCENERGY        *
            *                        *
            **************************

    Nuclear Rep. energy (wfn)     =   40.424668247665267
    SCF energy          (wfn)     = -115.089403969416537
    Reference energy    (file100) = -115.089403969416850

    Input parameters:
    -----------------
    Wave function   =     CCSD_T
    Reference wfn   =     RHF
    Brueckner       =     No
    Memory (Mbytes) =     14000.0
    Maxiter         =    300
    R_Convergence   =     1.0e-08
    E_Convergence   =     1.0e-10
    Restart         =     Yes
    DIIS            =     Yes
    AO Basis        =     NONE
    ABCD            =     NEW
    Cache Level     =     2
    Cache Type      =     LOW
    Print Level     =     1
    Num. of threads =     1
    # Amps to Print =     10
    Print MP2 Amps? =     No
    Analyze T2 Amps =     No
    Print Pair Ener =     No
    Local CC        =     No
    SCS-MP2         =     False
    SCSN-MP2        =     False
    SCS-CCSD        =     False

MP2 correlation energy -0.4574290170052689
                Solving CC Amplitude Equations
                ------------------------------
  Iter             Energy              RMS        T1Diag      D1Diag    New D1Diag    D2Diag
  ----     ---------------------    ---------   ----------  ----------  ----------   --------
     0        -0.457429017005269    0.000e+00    0.000000    0.000000    0.000000    0.128070
     1        -0.464956783224047    4.762e-02    0.006483    0.014789    0.014789    0.129188
     2        -0.474909026906206    1.562e-02    0.006591    0.014750    0.014750    0.134894
     3        -0.476380333258310    5.473e-03    0.007386    0.016824    0.016824    0.136319
     4        -0.476277181659911    1.202e-03    0.007438    0.016960    0.016960    0.136544
     5        -0.476316958623275    4.339e-04    0.007470    0.017091    0.017091    0.136640
     6        -0.476325526887450    1.223e-04    0.007480    0.017141    0.017141    0.136647
     7        -0.476323356946655    4.530e-05    0.007481    0.017155    0.017155    0.136644
     8        -0.476323222101509    1.683e-05    0.007483    0.017164    0.017164    0.136644
     9        -0.476323328783082    4.882e-06    0.007483    0.017165    0.017165    0.136644
    10        -0.476323083873253    1.558e-06    0.007483    0.017166    0.017166    0.136644
    11        -0.476323150999315    4.784e-07    0.007483    0.017166    0.017166    0.136644
    12        -0.476323136674187    1.170e-07    0.007483    0.017166    0.017166    0.136644
    13        -0.476323139732346    4.184e-08    0.007483    0.017166    0.017166    0.136644
    14        -0.476323140882898    1.198e-08    0.007483    0.017166    0.017166    0.136644
    15        -0.476323140926554    4.985e-09    0.007483    0.017166    0.017166    0.136644
    16        -0.476323140955256    1.601e-09    0.007483    0.017166    0.017166    0.136644

    Iterations converged.


    Largest TIA Amplitudes:
              5   6         0.0079931453
              5  14         0.0076150362
              5   9         0.0070321785
              8  14        -0.0063555835
              6   7         0.0059721318
              6   3        -0.0059231726
              7   8         0.0058101674
              5   2         0.0056957535
              8   6        -0.0053115400
              6   5        -0.0050983134

    Largest TIjAb Amplitudes:
      5   5   9   9        -0.0229861626
      8   8  14  14        -0.0211412728
      6   6   7   7        -0.0210190253
      7   7  12  12        -0.0205100396
      4   4   7   7        -0.0191014498
      6   6   8   8        -0.0162701520
      5   5  14  14        -0.0151444615
      7   7   7   7        -0.0151089747
      5   5   2   9        -0.0149331152
      5   5   9   2        -0.0149331152

    SCF energy       (wfn)                    = -115.089403969416537
    Reference energy (file100)                = -115.089403969416850

    Opposite-spin MP2 correlation energy      =   -0.353850352959866
    Same-spin MP2 correlation energy          =   -0.103578664045403
    Singles MP2 correlation energy            =   -0.000000000000000
    MP2 correlation energy                    =   -0.457429017005269
      * MP2 total energy                      = -115.546832986422118

    Opposite-spin CCSD correlation energy     =   -0.381808265661753
    Same-spin CCSD correlation energy         =   -0.094514875293503
    Singles CCSD correlation energy           =    0.000000000000000
    CCSD correlation energy                   =   -0.476323140955256
      * CCSD total energy                     = -115.565727110372109

            **************************
            *                        *
            *        CCTRIPLES       *
            *                        *
            **************************


    Wave function   =    CCSD_T
    Reference wfn   =      RHF

    Nuclear Rep. energy (wfn)                =   40.424668247665267
    SCF energy          (wfn)                = -115.089403969416537
    Reference energy    (file100)            = -115.089403969416850
    CCSD energy         (file100)            =   -0.476323140955256
    Total CCSD energy   (file100)            = -115.565727110372109

    Number of ijk index combinations:              165
    Memory available in words        :      1750000000
    ~Words needed per explicit thread:         4900172
    Number of threads for explicit ijk threading:    1

    MKL num_threads set to 1 for explicit threading.

    (T) energy                                =   -0.015046614327863
      * CCSD(T) total energy                  = -115.580773724699966


    Psi4 stopped on: Friday, 18 September 2020 06:22PM
    Psi4 wall time for execution: 0:03:04.52

*** Psi4 exiting successfully. Buy a developer a beer!
