
 Working directory              : /scratch/mel64643/tmp/40073137/
 Global scratch directory       : /scratch/mel64643/tmp/40073137/
 Wavefunction directory         : /home/mel64643/wfu/
 Main file repository           : /scratch/mel64643/tmp/40073137/

 id        : ccgc

 Nodes     nprocs
 a1-8         3
 Distribution of processes:   nprocs(total)=    4   nprocs(compute)=    3   nprocs(helper)=    1
 GA implementation: MPI file
 GA implementation (serial work in mppx): MPI file

 Using customized tuning parameters: mindgm=1; mindgv=20; mindgc=4; mindgr=1; noblas=0; minvec=7
 default implementation of scratch files=sf  


 Variables initialized (1015), CPU time= 0.00 sec
 ***,Optimization of min3
 memory,1000,m
 gthresh,energy=1.0d-12,orbital=1.0d-10,oneint=1.0d-16,twoint=1.0d-16,optgrad=1.0d-6,compress=1.0d-13
 geomtyp=xyz
 
  bohr
  geometry = {
  6
  arbitrary comment
  C   -1.3785541846   -0.0288200570    0.0000004967
  O    1.3092758739    0.1165532757    0.0000002470
  H   -2.0776198227    1.9132787636   -0.0000799612
  H   -2.1229384171   -0.9769711453    1.6820257994
  H   -2.1229317862   -0.9771024554   -1.6819536036
  H    1.9690441767   -1.5770705016   -0.0000013883
 }
 
 basis=cc-pvdz
 {rhf;maxit,200}
 {ccsd(t);maxit,200}
 Commands initialized (818), CPU time= 0.01 sec, 672 directives.
 Default parameters read. Elapsed time= 0.10 sec

 Checking input...
 Passed
1


                                         ***  PROGRAM SYSTEM MOLPRO  ***
                                       Copyright, TTI GmbH Stuttgart, 2015
                                    Version 2022.1 linked Mar  4 2022 00:40:14


 **********************************************************************************************************************************
 LABEL *   Optimization of min3                                                          
  64 bit mpp version                                                                     DATE: 07-Aug-25          TIME: 21:23:56  
 **********************************************************************************************************************************

 SHA1:             31073afc4d8441e10870424e0d77336a33bc4286
 **********************************************************************************************************************************

 Memory per process:      1000 MW
 Total memory per node:   3000 MW

 GA preallocation disabled
 GA check disabled

 Variable memory set to 1000.0 MW


 THRESHOLDS:

 ZERO    =  1.00D-12  ONEINT  =  1.00D-16  TWOINT  =  1.00D-16  PREFAC  =  1.00D-14  XXXXXX  =  1.00D-09  EORDER  =  1.00D-04
 ENERGY  =  1.00D-12  ETEST   =  0.00D+00  EDENS   =  0.00D+00  THRDEDEF=  1.00D-06  GRADIENT=  1.00D-05  STEP    =  1.00D-03
 ORBITAL =  1.00D-10  CIVEC   =  1.00D-05  COEFF   =  1.00D-04  PRINTCI =  5.00D-02  PUNCHCI =  9.90D+01  OPTGRAD =  1.00D-06
 OPTENERG=  1.00D-06  OPTSTEP =  3.00D-04  THRGRAD =  1.00D-10  COMPRESS=  1.00D-13  VARMIN  =  1.00D-07  VARMAX  =  1.00D-03
 THRDOUB =  0.00D+00  THRDIV  =  1.00D-05  THRRED  =  1.00D-07  THRPSP  =  1.00D+00  THRDC   =  1.00D-10  THRCS   =  1.00D-10
 THRNRM  =  1.00D-08  THREQ   =  0.00D+00  THRDE   =  1.00D+00  THRREF  =  1.00D-05  SPARFAC =  1.00D+00  THRDLP  =  1.00D-07
 THRDIA  =  1.00D-10  THRDLS  =  1.00D-07  THRGPS  =  0.00D+00  THRKEX  =  0.00D+00  THRDIS  =  2.00D-01  THRVAR  =  1.00D-10
 THRLOC  =  1.00D-06  THRGAP  =  1.00D-06  THRLOCT = -1.00D+00  THRGAPT = -1.00D+00  THRORB  =  1.00D-06  THRMLTP =  0.00D+00
 THRCPQCI=  1.00D-10  KEXTA   =  0.00D+00  THRCOARS=  0.00D+00  SYMTOL  =  1.00D-06  GRADTOL =  1.00D-06  THROVL  =  1.00D-08
 THRORTH =  1.00D-08  THRDLOVL= -1.00D+00  GRID    =  1.00D-06  GRIDMAX =  1.00D-03  DTMAX   =  0.00D+00  THROCCDE=  1.00D-01
 THROCCDE=  1.00D-01  THRPRINT=  2.50D-01

 SETTING GEOMTYP        =    XYZ
 ZUNIT=BOHR

 SETTING BASIS          =    CC-PVDZ


 Recomputing integrals since basis changed


 Using spherical harmonics

 Library entry C      S cc-pVDZ              selected for orbital group  1
 Library entry C      P cc-pVDZ              selected for orbital group  1
 Library entry C      D cc-pVDZ              selected for orbital group  1
 Library entry O      S cc-pVDZ              selected for orbital group  2
 Library entry O      P cc-pVDZ              selected for orbital group  2
 Library entry O      D cc-pVDZ              selected for orbital group  2
 Library entry H      S cc-pVDZ              selected for orbital group  3
 Library entry H      P cc-pVDZ              selected for orbital group  3


 PROGRAM * SEWARD (Integral evaluation for generally contracted gaussian basis sets)     Author: Roland Lindh, 1990

 Geometry written to block  1 of record 700


 Point group  C1  



 ATOMIC COORDINATES

 NR  ATOM    CHARGE       X              Y              Z

   1  C       6.00   -1.378554185   -0.028820057    0.000000497
   2  O       8.00    1.309275874    0.116553276    0.000000247
   3  H       1.00   -2.077619823    1.913278764   -0.000079961
   4  H       1.00   -2.122938417   -0.976971145    1.682025799
   5  H       1.00   -2.122931786   -0.977102455   -1.681953604
   6  H       1.00    1.969044177   -1.577070502   -0.000001388

 Bond lengths in Bohr (Angstrom)

 1-2  2.691758501  1-3  2.064083477  1-4  2.069373695  1-5  2.069373605  2-6  1.817596136
     ( 1.424417256)     ( 1.092265938)     ( 1.095065400)     ( 1.095065353)     ( 0.961830454)

 Bond angles

  1-2-6  108.18803563   2-1-3  106.70065799   2-1-4  112.57762917   2-1-5  112.57763496

  3-1-4  108.01752059   3-1-5  108.01736616   4-1-5  108.74108236

 NUCLEAR CHARGE:                   18
 NUMBER OF PRIMITIVE AOS:          82
 NUMBER OF SYMMETRY AOS:           80
 NUMBER OF CONTRACTIONS:           48   (   48A   )
 NUMBER OF INNER CORE ORBITALS:     0   (    0A   )
 NUMBER OF OUTER CORE ORBITALS:     2   (    2A   )
 NUMBER OF VALENCE ORBITALS:       12   (   12A   )


 NUCLEAR REPULSION ENERGY   40.20767826

 Eigenvalues of metric

         1 0.970E-02 0.177E-01 0.370E-01 0.375E-01 0.383E-01 0.474E-01 0.481E-01 0.523E-01


 Contracted 2-electron integrals neglected if value below      1.0D-16
 AO integral compression algorithm  1   Integral accuracy      1.0D-16

     6.816 MB (compressed) written to integral file ( 98.5%)

     Node minimum: 2.097 MB, node maximum: 2.359 MB


 NUMBER OF SORTED TWO-ELECTRON INTEGRALS:     231084.     BUFFER LENGTH:  32768
 NUMBER OF SEGMENTS:   1  SEGMENT LENGTH:     231084      RECORD LENGTH: 524288

 Memory used in sort:       0.79 MW

 SORT1 READ      832256. AND WROTE      227683. INTEGRALS IN      1 RECORDS. CPU TIME:     0.01 SEC, REAL TIME:     0.02 SEC
 SORT2 READ      682150. AND WROTE      692076. INTEGRALS IN     27 RECORDS. CPU TIME:     0.01 SEC, REAL TIME:     0.02 SEC

 Node minimum:      230300.  Node maximum:      231084. integrals

 OPERATOR DM      FOR CENTER  0  COORDINATES:    0.000000    0.000000    0.000000


 **********************************************************************************************************************************
 DATASETS  * FILE   NREC   LENGTH (MB)   RECORD NAMES
              1      18       28.73       500      610      700      900      950      970     1000      129      960     1100   
                                          VAR    BASINP    GEOM    SYMINP    ZMAT    AOBASIS   BASIS     P2S    ABASIS      S 
                                         1400     1410     1200     1210     1080     1600     1650     1700   
                                           T        V       H0       H01     AOSYM     SMH    MOLCAS    OPER   

 PROGRAMS   *        TOTAL       INT
 CPU TIMES  *         0.51      0.38
 REAL TIME  *         1.51 SEC
 DISK USED  *        29.07 MB (local),      104.32 MB (total)
 GA USED    *         0.00 MB       (max)       0.00 MB       (current)
 **********************************************************************************************************************************


 Program * Restricted Hartree-Fock

 Orbital guess generated from atomic densities. Full valence occupancy:   14

 Initial occupancy:   9

 NELEC=   18   SYM=1   MS2= 0   THRE=1.0D-12   THRD=1.0D-10   THRG=1.0D-10  HFMA2=F  DIIS_START=2   DIIS_MAX=10   DIIS_INCORE=F

 Level shifts:    0.00 (CLOSED)    0.00 (OPEN)    0.30 (GAP_MIN)

 ITER           ETOT              DE          GRAD        DDIFF     DIIS  NEXP   TIME(IT)  TIME(TOT)  DIAG
   1     -115.01409553    -115.01409553     0.00D+00     0.16D+00     0     0       0.00      0.01    start
   2     -115.04236516      -0.02826963     0.10D-01     0.20D-01     1     0       0.00      0.01    diag
   3     -115.04841982      -0.00605467     0.49D-02     0.64D-02     2     0       0.00      0.01    diag
   4     -115.04888432      -0.00046450     0.10D-02     0.20D-02     3     0       0.00      0.01    diag
   5     -115.04890537      -0.00002105     0.19D-03     0.43D-03     4     0       0.01      0.02    diag
   6     -115.04890616      -0.00000080     0.32D-04     0.93D-04     5     0       0.01      0.03    diag
   7     -115.04890620      -0.00000003     0.67D-05     0.15D-04     6     0       0.00      0.03    diag
   8     -115.04890620      -0.00000000     0.22D-05     0.51D-05     7     0       0.00      0.03    fixocc
   9     -115.04890620      -0.00000000     0.45D-06     0.14D-05     8     0       0.01      0.04    diag
  10     -115.04890620      -0.00000000     0.73D-07     0.24D-06     9     0       0.00      0.04    diag/orth
  11     -115.04890620       0.00000000     0.17D-07     0.48D-07     9     0       0.00      0.04    diag
  12     -115.04890620      -0.00000000     0.45D-08     0.14D-07     9     0       0.00      0.04    diag
  13     -115.04890620      -0.00000000     0.68D-09     0.19D-08     9     0       0.01      0.05    diag
  14     -115.04890620      -0.00000000     0.15D-09     0.40D-09     9     0       0.00      0.05    diag
  15     -115.04890620       0.00000000     0.61D-10     0.11D-09     9     0       0.00      0.05    diag
  16     -115.04890620       0.00000000     0.14D-10     0.33D-10     9     0       0.00      0.05    diag
  17     -115.04890620       0.00000000     0.23D-11     0.46D-11     0     0       0.00      0.05    diag

 Final occupancy:   9

 !RHF STATE 1.1 Energy               -115.048906198952
  RHF One-electron energy            -236.688901009001
  RHF Two-electron energy              81.432316553562
  RHF Kinetic energy                  114.921801210256
  RHF Nuclear energy                   40.207678256486
  RHF Virial quotient                  -1.001106012848

 !RHF STATE 1.1 Dipole moment          -0.39021407    -0.59590105    -0.00000272
 Dipole moment /Debye                  -0.99182523    -1.51462940    -0.00000693

 Orbital energies:

           1.1          2.1          3.1          4.1          5.1          6.1          7.1          8.1          9.1         10.1
    -20.550172   -11.275524    -1.347620    -0.921213    -0.681587    -0.612721    -0.583723    -0.496092    -0.443480     0.184742

          11.1
      0.223408


 HOMO      9.1    -0.443480 =     -12.0677eV
 LUMO     10.1     0.184742 =       5.0271eV
 LUMO-HOMO         0.628223 =      17.0948eV

 Orbitals saved in record  2100.2


 **********************************************************************************************************************************
 DATASETS  * FILE   NREC   LENGTH (MB)   RECORD NAMES
              1      18       28.73       500      610      700      900      950      970     1000      129      960     1100   
                                          VAR    BASINP    GEOM    SYMINP    ZMAT    AOBASIS   BASIS     P2S    ABASIS      S 
                                         1400     1410     1200     1210     1080     1600     1650     1700   
                                           T        V       H0       H01     AOSYM     SMH    MOLCAS    OPER   

              2       4        0.47       700     1000      520     2100   
                                         GEOM     BASIS   MCVARS     RHF  

 PROGRAMS   *        TOTAL   RHF-SCF       INT
 CPU TIMES  *         0.57      0.06      0.38
 REAL TIME  *         1.74 SEC
 DISK USED  *        29.40 MB (local),      105.31 MB (total)
 GA USED    *         0.00 MB       (max)       0.00 MB       (current)
 **********************************************************************************************************************************


 PROGRAM * CCSD (Closed-shell coupled cluster)     Authors: C. Hampel, H.-J. Werner, 1991, M. Deegan, P.J. Knowles, 1992


 Convergence thresholds:  THRVAR = 1.00D-08  THRDEN = 1.00D-12

 CCSD(T)     terms to be evaluated (factor= 1.000)


 Number of core orbitals:           2 (   2 )
 Number of closed-shell orbitals:   7 (   7 )
 Number of external orbitals:      39 (  39 )

 Molecular orbitals read from record     2100.2  Type=RHF/CANONICAL  

 Number of N-1 electron functions:               7
 Number of N-2 electron functions:              28
 Number of singly external CSFs:               273
 Number of doubly external CSFs:             37401
 Total number of CSFs:                       37675

 Length of J-op  integral file:               0.00 MB
 Length of K-op  integral file:               0.16 MB
 Length of 3-ext integral record:             0.00 MB

 Memory could be reduced to 0.73 Mwords without degradation in triples

 Integral transformation finished. Total CPU:   0.02 sec, npass=  1  Memory used:   0.66 MW

 Reference energy:                   -115.04890620

 MP2 singlet pair energy:              -0.21882249
 MP2 triplet pair energy:              -0.11986210
 MP2 correlation energy:               -0.33868458
 MP2 total energy:                   -115.38759078

 SCS-MP2 correlation energy:           -0.33716784   (PS=  1.200000  PT=  0.333333)
 SCS-MP2 total energy:               -115.38607404

 ITER.      SQ.NORM     CORR.ENERGY   TOTAL ENERGY   ENERGY CHANGE        DEN1      VAR(S)    VAR(P)  DIIS     TIME  TIME/IT
   1      1.10757907    -0.36148912  -115.41039532    -0.02280454    -0.01408972  0.92D-03  0.18D-02  1  1     0.04     0.04
   2      1.11615784    -0.36344540  -115.41235160    -0.00195628    -0.00928134  0.20D-04  0.16D-03  2  2     0.06     0.03
   3      1.11806580    -0.36357490  -115.41248110    -0.00012950    -0.00121721  0.97D-05  0.87D-05  3  3     0.08     0.03
   4      1.11858971    -0.36357363  -115.41247983     0.00000127    -0.00025811  0.35D-06  0.69D-06  4  4     0.10     0.03
   5      1.11869061    -0.36357403  -115.41248022    -0.00000040    -0.00003681  0.10D-06  0.51D-07  5  5     0.12     0.04
   6      1.11871051    -0.36357263  -115.41247883     0.00000140    -0.00000450  0.17D-07  0.43D-08  6  6     0.14     0.04
   7      1.11871550    -0.36357219  -115.41247839     0.00000044    -0.00000037  0.21D-08  0.76D-09  6  1     0.16     0.04
   8      1.11871683    -0.36357230  -115.41247850    -0.00000010     0.00000077  0.27D-09  0.77D-10  6  3     0.18     0.04
   9      1.11871793    -0.36357217  -115.41247837     0.00000013    -0.00000040  0.14D-10  0.11D-10  6  2     0.20     0.04
  10      1.11871785    -0.36357217  -115.41247837    -0.00000000     0.00000008  0.11D-11  0.94D-12  6  5     0.23     0.04
  11      1.11871789    -0.36357217  -115.41247837     0.00000000    -0.00000000  0.21D-12  0.54D-13  6  4     0.25     0.04
  12      1.11871787    -0.36357217  -115.41247837    -0.00000000     0.00000001  0.20D-13  0.11D-13  6  1     0.27     0.04
  13      1.11871787    -0.36357217  -115.41247837    -0.00000000    -0.00000000  0.25D-14  0.10D-14  6  6     0.29     0.03
  14      1.11871787    -0.36357217  -115.41247837     0.00000000    -0.00000000  0.23D-15  0.13D-15  6  3     0.31     0.03
  15      1.11871787    -0.36357217  -115.41247837    -0.00000000    -0.00000000  0.26D-16  0.17D-16  6  2     0.32     0.03
  16      1.11871787    -0.36357217  -115.41247837    -0.00000000    -0.00000000  0.60D-17  0.17D-17  6  5     0.34     0.04
  17      1.11871787    -0.36357217  -115.41247837    -0.00000000    -0.00000000  0.59D-18  0.27D-18  6  4     0.36     0.04
  18      1.11871787    -0.36357217  -115.41247837     0.00000000    -0.00000000  0.90D-19  0.46D-19  6  1     0.38     0.04
  19      1.11871787    -0.36357217  -115.41247837    -0.00000000    -0.00000000  0.11D-19  0.47D-20  6  6     0.39     0.04
  20      1.11871787    -0.36357217  -115.41247837     0.00000000     0.00000000  0.15D-20  0.61D-21  6  3     0.41     0.04

 Norm of t1 vector:      0.04191508      S-energy:    -0.00000000      T1 diagnostic:  0.00792121
                                                                       D1 diagnostic:  0.01770507
                                                                       D2 diagnostic:  0.13467880 (internal)


 Total CPU time for triples:      0.07 sec


 RESULTS
 =======

  Reference energy                   -115.048906198953
  CCSD singlet pair energy             -0.254855136072
  CCSD triplet pair energy             -0.108717036240
  CCSD correlation energy              -0.363572172312

  Triples (T) contribution             -0.007762851326
  Total correlation energy             -0.371335023638

  CCSD total energy                  -115.412478371265
  CCSD[T] energy                     -115.420533982909
  CCSD-T energy                      -115.420089925034
 !CCSD(T) total energy               -115.420241222591

 Timing summary (sec):

 STEP                 CPU(USER)    SYS     CPU(TOT)    WALL
 Transformation          0.02      0.01      0.03      0.05
 CCSD iterations         0.40      0.05      0.45      0.77
 Triples                 0.07      0.00      0.07      0.08

 Program statistics:

 Available memory in ccsd:               999999795
 Min. memory needed in ccsd:                136177
 Max. memory used in ccsd:                  162910
 Max. memory used in cckext:                178997 (20 integral passes)



 **********************************************************************************************************************************
 DATASETS  * FILE   NREC   LENGTH (MB)   RECORD NAMES
              1      19       31.13       500      610      700      900      950      970     1000      129      960     1100   
                                          VAR    BASINP    GEOM    SYMINP    ZMAT    AOBASIS   BASIS     P2S    ABASIS      S 
                                         1400     1410     1200     1210     1080     1600     1650     1700     1380   
                                           T        V       H0       H01     AOSYM     SMH    MOLCAS    OPER     JKOP   

              2       4        0.47       700     1000      520     2100   
                                         GEOM     BASIS   MCVARS     RHF  

 PROGRAMS   *        TOTAL   CCSD(T)   RHF-SCF       INT
 CPU TIMES  *         1.10      0.53      0.06      0.38
 REAL TIME  *         2.70 SEC
 DISK USED  *        35.56 MB (local),      115.96 MB (total)
 SF USED    *         5.97 MB
 GA USED    *         0.00 MB       (max)       0.00 MB       (current)
 **********************************************************************************************************************************

 CCSD(T)/cc-pVDZ energy=   -115.420241222591

         CCSD(T)         RHF-SCF
   -115.42024122   -115.04890620
 **********************************************************************************************************************************
 Molpro calculation terminated
