
 Primary working directories    : /tmp/795519.131.gen6.q
 Secondary working directories  : /tmp/795519.131.gen6.q
 Wavefunction directory         : /home/vulcan/mel64643/wfu/
 Main file repository           : /tmp/795519.131.gen6.q/

 ARCHNAME  : Linux/x86_64
 FC        : /opt/intel/compilers_and_libraries_2016.1.150/linux/bin/intel64/ifort
 FCVERSION : 16.0.1
 BLASLIB   : -mkl
 id        : ccgc

 Nodes     nprocs
 n086         1
 ga_uses_ma=false, calling ma_init with nominal heap.
 GA-space will be limited to   8.0 MW (determined by -G option)

 Using customized tuning parameters: mindgm=10; mindgv=16; mindgc=4; mindgr=1; noblas=0; mincuda=1000; minvec=7
 default implementation of scratch files=df  

 ***,Optimization of min3
 memory,1000,m
 gthresh,energy=1.0d-12,orbital=1.0d-10,oneint=1.0d-16,twoint=1.0d-16,optgrad=1.0d-6,compress=1.0d-13
 geomtyp=xyz
 
  bohr
  geometry = {
  6
  arbitrary comment
  C   -1.3757488568   -0.0258378938    0.0000003708
  O    1.3035370058    0.1198387832    0.0000003012
  H   -2.0786046375    1.9108413989   -0.0000800005
  H   -2.1075752211   -0.9784205813    1.6731675087
  H   -2.1075681370   -0.9785510142   -1.6730952773
  H    1.9422356866   -1.5780028129   -0.0000013129
 }
 
 basis=cc-pvdz
 {rhf;maxit,200}
 {ccsd(t);maxit,200}

 Variables initialized (661), CPU time= 0.00 sec
 Commands  initialized (458), CPU time= 0.01 sec, 486 directives.
 Default parameters read. Elapsed time= 0.04 sec

 Checking input...
 Passed
1


                                         ***  PROGRAM SYSTEM MOLPRO  ***
                         Copyright, University College Cardiff Consultants Limited, 2008

                                    Version 2010.1 linked May 16 2016 07:17:05


 **********************************************************************************************************************************
 LABEL *   Optimization of min3                                                          
 Linux-4.4.3/n086(x86_64) 64 bit mpp version                                             DATE: 24-Oct-22          TIME: 15:43:51  
 **********************************************************************************************************************************

 SHA1:             9e8077add272b0f3cad6f7df79ec5211205f459d
 **********************************************************************************************************************************

 THRESHOLDS:

 ZERO    =  1.00D-12  ONEINT  =  1.00D-16  TWOINT  =  1.00D-16  PREFAC  =  1.00D-14  LOCALI  =  1.00D-09  EORDER  =  1.00D-04
 ENERGY  =  1.00D-12  ETEST   =  0.00D+00  EDENS   =  0.00D+00  THRDEDEF=  1.00D-06  GRADIENT=  1.00D-02  STEP    =  1.00D-03
 ORBITAL =  1.00D-10  CIVEC   =  1.00D-05  COEFF   =  1.00D-04  PRINTCI =  5.00D-02  PUNCHCI =  9.90D+01  OPTGRAD =  1.00D-06
 OPTENERG=  1.00D-06  OPTSTEP =  3.00D-04  THRGRAD =  1.00D-10  COMPRESS=  1.00D-13  VARMIN  =  1.00D-07  VARMAX  =  1.00D-03
 THRDOUB =  0.00D+00  THRDIV  =  1.00D-05  THRRED  =  1.00D-07  THRPSP  =  1.00D+00  THRDC   =  1.00D-10  THRCS   =  1.00D-10
 THRNRM  =  1.00D-08  THREQ   =  0.00D+00  THRDE   =  1.00D+00  THRREF  =  1.00D-05  SPARFAC =  1.00D+00  THRDLP  =  1.00D-07
 THRDIA  =  1.00D-10  THRDLS  =  1.00D-07  THRGPS  =  0.00D+00  THRKEX  =  0.00D+00  THRDIS  =  2.00D-01  THRVAR  =  1.00D-10
 THRLOC  =  1.00D-06  THRGAP  =  1.00D-06  THRLOCT = -1.00D+00  THRGAPT = -1.00D+00  THRORB  =  1.00D-06  THRMLTP =  0.00D+00
 THRCPQCI=  1.00D-10  KEXTA   =  0.00D+00  THRCOARS=  0.00D+00  SYMTOL  =  1.00D-06  GRADTOL =  1.00D-06  THROVL  =  1.00D-08
 THRORTH =  1.00D-08  GRID    =  1.00D-06  GRIDMAX =  1.00D-03  DTMAX   =  0.00D+00

 SETTING GEOMTYP        =    XYZ
 ZUNIT=BOHR
 

 Variable memory set to 1000000000 words,  buffer space   230000 words

 SETTING BASIS          =    CC-PVDZ


 Recomputing integrals since basis changed


 Using spherical harmonics

 Library entry C      S cc-pVDZ              selected for orbital group  1
 Library entry C      P cc-pVDZ              selected for orbital group  1
 Library entry C      D cc-pVDZ              selected for orbital group  1
 Library entry O      S cc-pVDZ              selected for orbital group  2
 Library entry O      P cc-pVDZ              selected for orbital group  2
 Library entry O      D cc-pVDZ              selected for orbital group  2
 Library entry H      S cc-pVDZ              selected for orbital group  3
 Library entry H      P cc-pVDZ              selected for orbital group  3

1PROGRAM * SEWARD (Integral evaluation for generally contracted gaussian basis sets)     Author: Roland Lindh, 1990

 Geometry written to block  1 of record 700


 Point group  C1  



 ATOMIC COORDINATES

 NR  ATOM    CHARGE       X              Y              Z

   1  C       6.00   -1.375748857   -0.025837894    0.000000371
   2  O       8.00    1.303537006    0.119838783    0.000000301
   3  H       1.00   -2.078604637    1.910841399   -0.000080001
   4  H       1.00   -2.107575221   -0.978420581    1.673167509
   5  H       1.00   -2.107568137   -0.978551014   -1.673095277
   6  H       1.00    1.942235687   -1.578002813   -0.000001313

 Bond lengths in Bohr (Angstrom)

 1-2  2.683243267  1-3  2.060274967  1-4  2.059726165  1-5  2.059725903  2-6  1.814001679
     ( 1.419911183)     ( 1.090250557)     ( 1.089960143)     ( 1.089960005)     ( 0.959928345)

 Bond angles

  1-2-6  107.50324209   2-1-3  106.83455533   2-1-4  112.32670726   2-1-5  112.32670787

  3-1-4  108.27375241   3-1-5  108.27359332   4-1-5  108.64404058

 NUCLEAR CHARGE:                   18
 NUMBER OF PRIMITIVE AOS:          82
 NUMBER OF SYMMETRY AOS:           80
 NUMBER OF CONTRACTIONS:           48   (  48A   )
 NUMBER OF CORE ORBITALS:           2   (   2A   )
 NUMBER OF VALENCE ORBITALS:       12   (  12A   )


 NUCLEAR REPULSION ENERGY   40.34901603


 Eigenvalues of metric

         1 0.964E-02 0.176E-01 0.367E-01 0.369E-01 0.382E-01 0.471E-01 0.471E-01 0.518E-01


 Contracted 2-electron integrals neglected if value below      1.0D-16
 AO integral compression algorithm  1   Integral accuracy      1.0D-16

     6.291 MB (compressed) written to integral file ( 98.4%)

     Node minimum: 6.291 MB, node maximum: 6.291 MB


 NUMBER OF SORTED TWO-ELECTRON INTEGRALS:     692076.     BUFFER LENGTH:  32768
 NUMBER OF SEGMENTS:   1  SEGMENT LENGTH:     692076      RECORD LENGTH: 524288

 Memory used in sort:       1.25 MW

 SORT1 READ      832256. AND WROTE      682148. INTEGRALS IN      2 RECORDS. CPU TIME:     0.00 SEC, REAL TIME:     0.01 SEC
 SORT2 READ      682148. AND WROTE      692076. INTEGRALS IN     24 RECORDS. CPU TIME:     0.02 SEC, REAL TIME:     0.02 SEC

 FILE SIZES:   FILE 1:     8.0 MBYTE,  FILE 4:     8.4 MBYTE,   TOTAL:     16.4 MBYTE

 OPERATOR DM      FOR CENTER  0  COORDINATES:    0.000000    0.000000    0.000000


 **********************************************************************************************************************************
 DATASETS  * FILE   NREC   LENGTH (MB)   RECORD NAMES
              1      19        8.03       500      610      700      900      950      970     1000      129      960     1100   
                                          VAR    BASINP    GEOM    SYMINP    ZMAT    AOBASIS   BASIS     P2S    ABASIS      S 
                                         1400     1410     1200     1210     1080     1600     1650     1300     1700   
                                           T        V       H0       H01     AOSYM     SMH    MOLCAS    ERIS     OPER   

 PROGRAMS   *        TOTAL       INT
 CPU TIMES  *         0.18      0.14
 REAL TIME  *         0.38 SEC
 DISK USED  *        23.34 MB      
 GA USED    *         0.00 MB       (max)       0.00 MB       (current)
 **********************************************************************************************************************************

1PROGRAM * RHF-SCF (CLOSED SHELL)       Authors: W. Meyer, H.-J. Werner


 NUMBER OF ELECTRONS:       9+    9-    SPACE SYMMETRY=1    SPIN SYMMETRY: Singlet 
 CONVERGENCE THRESHOLDS:    1.00E-10 (Density)    1.00E-13 (Energy)
 MAX. NUMBER OF ITERATIONS:      200
 INTERPOLATION TYPE:            DIIS
 INTERPOLATION STEPS:              2 (START)      1 (STEP)
 LEVEL SHIFTS:                  0.00 (CLOSED)  0.00 (OPEN) 



 Orbital guess generated from atomic densities. Full valence occupancy:   14

 Molecular orbital dump at record        2100.2

 ITERATION    DDIFF          GRAD             ENERGY        2-EL.EN.            DIPOLE MOMENTS         DIIS
    1      0.000D+00      0.000D+00      -115.01427566    164.472289   -0.49156   -0.90027   -0.00000    0
    2      0.000D+00      0.109D-01      -115.04261815    162.247296   -0.31586   -0.53746   -0.00000    1
    3      0.205D-01      0.528D-02      -115.04861471    163.273750   -0.39912   -0.61288   -0.00000    2
    4      0.638D-02      0.112D-02      -115.04907865    163.117261   -0.38926   -0.60198   -0.00000    3
    5      0.204D-02      0.202D-03      -115.04909967    163.123466   -0.39219   -0.59779   -0.00000    4
    6      0.432D-03      0.356D-04      -115.04910048    163.123756   -0.39252   -0.59761   -0.00000    5
    7      0.934D-04      0.752D-05      -115.04910051    163.122517   -0.39267   -0.59745   -0.00000    6
    8      0.152D-04      0.244D-05      -115.04910051    163.122901   -0.39271   -0.59742   -0.00000    7
    9      0.522D-05      0.496D-06      -115.04910051    163.122862   -0.39272   -0.59742   -0.00000    6
   10      0.143D-05      0.901D-07      -115.04910051    163.122861   -0.39272   -0.59742   -0.00000    6
   11      0.241D-06      0.336D-07      -115.04910051    163.122866   -0.39272   -0.59742   -0.00000    6
   12      0.608D-07      0.142D-07      -115.04910051    163.122864   -0.39272   -0.59742   -0.00000    7
   13      0.265D-07      0.312D-08      -115.04910051    163.122865   -0.39272   -0.59742   -0.00000    7
   14      0.776D-08      0.654D-09      -115.04910051    163.122865   -0.39272   -0.59742   -0.00000    7
   15      0.166D-08      0.152D-09      -115.04910051    163.122865   -0.39272   -0.59742   -0.00000    7
   16      0.339D-09      0.460D-10      -115.04910051    163.122865   -0.39272   -0.59742   -0.00000    7
   17      0.879D-10      0.166D-10      -115.04910051    163.122865   -0.39272   -0.59742   -0.00000    7
   18      0.426D-10      0.274D-11      -115.04910051    163.122865   -0.39272   -0.59742   -0.00000    0

 Final occupancy:   9

 !RHF STATE 1.1 Energy               -115.049100511712
 Nuclear energy                        40.34901603
 One-electron energy                 -236.95954885
 Two-electron energy                   81.56143230
 Virial quotient                       -1.00081537
 !RHF STATE 1.1 Dipole moment          -0.39272363    -0.59742066    -0.00000274
 Dipole moment /Debye                  -0.99813852    -1.51839241    -0.00000697

 Orbital energies:

         1.1          2.1          3.1          4.1          5.1          6.1          7.1          8.1          9.1         10.1
    -20.549737   -11.273640    -1.349903    -0.922070    -0.683304    -0.614598    -0.584715    -0.497096    -0.443278     0.184727

        11.1
      0.224504


 **********************************************************************************************************************************
 DATASETS  * FILE   NREC   LENGTH (MB)   RECORD NAMES
              1      19        8.03       500      610      700      900      950      970     1000      129      960     1100   
                                          VAR    BASINP    GEOM    SYMINP    ZMAT    AOBASIS   BASIS     P2S    ABASIS      S 
                                         1400     1410     1200     1210     1080     1600     1650     1300     1700   
                                           T        V       H0       H01     AOSYM     SMH    MOLCAS    ERIS     OPER   

              2       3        0.39       700     1000     2100   
                                         GEOM     BASIS     RHF  

 PROGRAMS   *        TOTAL       RHF       INT
 CPU TIMES  *         0.25      0.07      0.14
 REAL TIME  *         0.48 SEC
 DISK USED  *        23.34 MB      
 GA USED    *         0.00 MB       (max)       0.00 MB       (current)
 **********************************************************************************************************************************


1PROGRAM * CCSD (Closed-shell coupled cluster)     Authors: C. Hampel, H.-J. Werner, 1991, M. Deegan, P.J. Knowles, 1992


 Convergence thresholds:  THRVAR = 1.00D-08  THRDEN = 1.00D-12

 CCSD(T)     terms to be evaluated (factor= 1.000)


 Number of core orbitals:           2 (   2 )
 Number of closed-shell orbitals:   7 (   7 )
 Number of external orbitals:      39 (  39 )

 Molecular orbitals read from record     2100.2  Type=RHF/CANONICAL (state 1.1)

 Number of N-1 electron functions:               7
 Number of N-2 electron functions:              28
 Number of singly external CSFs:               273
 Number of doubly external CSFs:             37401
 Total number of CSFs:                       37675

 Length of J-op  integral file:               0.00 MB
 Length of K-op  integral file:               0.19 MB
 Length of 3-ext integral record:             0.00 MB

 Memory could be reduced to 0.96 Mwords without degradation in triples

 Integral transformation finished. Total CPU:   0.02 sec, npass=  1  Memory used:   0.66 MW

 Reference energy:                   -115.04910051

 MP2 singlet pair energy:              -0.21852349
 MP2 triplet pair energy:              -0.11981854
 MP2 correlation energy:               -0.33834203
 MP2 total energy:                   -115.38744254

 SCS-MP2 correlation energy:           -0.33678195   (PS=  1.200000  PT=  0.333333)
 SCS-MP2 total energy:               -115.38588246

 ITER.      SQ.NORM     CORR.ENERGY   TOTAL ENERGY   ENERGY CHANGE        DEN1      VAR(S)    VAR(P)  DIIS     TIME
   1      1.10715487    -0.36112561  -115.41022612    -0.02278358    -0.01412440  0.91D-03  0.17D-02  1  1     0.05
   2      1.11564556    -0.36306448  -115.41216500    -0.00193888    -0.00923070  0.20D-04  0.16D-03  2  2     0.08
   3      1.11751315    -0.36319063  -115.41229114    -0.00012614    -0.00119761  0.94D-05  0.85D-05  3  3     0.12
   4      1.11802418    -0.36318930  -115.41228981     0.00000133    -0.00025318  0.33D-06  0.67D-06  4  4     0.15
   5      1.11812140    -0.36318969  -115.41229021    -0.00000040    -0.00003577  0.99D-07  0.48D-07  5  5     0.18
   6      1.11814026    -0.36318834  -115.41228885     0.00000135    -0.00000430  0.16D-07  0.41D-08  6  6     0.21
   7      1.11814501    -0.36318793  -115.41228844     0.00000041    -0.00000035  0.20D-08  0.71D-09  6  1     0.24
   8      1.11814628    -0.36318803  -115.41228854    -0.00000010     0.00000075  0.25D-09  0.72D-10  6  3     0.27
   9      1.11814733    -0.36318791  -115.41228842     0.00000012    -0.00000038  0.13D-10  0.10D-10  6  2     0.31
  10      1.11814739    -0.36318790  -115.41228842     0.00000000     0.00000000  0.13D-11  0.12D-11  6  4     0.34
  11      1.11814734    -0.36318790  -115.41228841     0.00000000     0.00000003  0.33D-12  0.84D-13  6  5     0.37
  12      1.11814729    -0.36318791  -115.41228842    -0.00000000     0.00000003  0.32D-13  0.13D-13  6  6     0.40
  13      1.11814728    -0.36318791  -115.41228842    -0.00000000     0.00000001  0.37D-14  0.15D-14  6  3     0.44
  14      1.11814728    -0.36318791  -115.41228842    -0.00000000     0.00000000  0.28D-15  0.14D-15  6  1     0.47
  15      1.11814728    -0.36318791  -115.41228842     0.00000000    -0.00000000  0.35D-16  0.30D-16  6  2     0.50
  16      1.11814728    -0.36318791  -115.41228842     0.00000000    -0.00000000  0.30D-17  0.16D-17  6  5     0.54
  17      1.11814728    -0.36318791  -115.41228842    -0.00000000     0.00000000  0.12D-18  0.12D-18  6  4     0.57
  18      1.11814728    -0.36318791  -115.41228842     0.00000000    -0.00000000  0.26D-19  0.12D-19  6  3     0.60
  19      1.11814728    -0.36318791  -115.41228842     0.00000000    -0.00000000  0.25D-20  0.99D-21  6  6     0.63

 Norm of t1 vector:      0.04157212      S-energy:     0.00000000      T1 diagnostic:  0.00785639
                                                                       D1 diagnostic:  0.01751121


 Total CPU time for triples:      0.16 sec


 RESULTS
 =======

  Reference energy                   -115.049100511712
  CCSD singlet pair energy             -0.254424125900
  CCSD triplet pair energy             -0.108763782700
  CCSD correlation energy              -0.363187908600

  Triples (T) contribution             -0.007719355992
  Total correlation energy             -0.370907264592

  CCSD total energy                  -115.412288420311
  CCSD[T] energy                     -115.420295920621
  CCSD-T energy                      -115.419858770683
 !CCSD(T) total energy               -115.420007776304

 Timing summary (sec):

 STEP                 CPU(USER)    SYS     CPU(TOT)    WALL
 Transformation          0.02      0.00      0.02      0.02
 CCSD iterations         0.62      0.05      0.67      0.67
 Triples                 0.16      0.00      0.16      0.18

 Program statistics:

 Available memory in ccsd:               999999704
 Min. memory needed in ccsd:                136801
 Max. memory used in ccsd:                  163198
 Max. memory used in cckext:                182024 (19 integral passes)



 **********************************************************************************************************************************
 DATASETS  * FILE   NREC   LENGTH (MB)   RECORD NAMES
              1      20       10.56       500      610      700      900      950      970     1000      129      960     1100   
                                          VAR    BASINP    GEOM    SYMINP    ZMAT    AOBASIS   BASIS     P2S    ABASIS      S 
                                         1400     1410     1200     1210     1080     1600     1650     1300     1700     1380   
                                           T        V       H0       H01     AOSYM     SMH    MOLCAS    ERIS     OPER     JKOP   

              2       3        0.39       700     1000     2100   
                                         GEOM     BASIS     RHF  

 PROGRAMS   *        TOTAL   CCSD(T)       RHF       INT
 CPU TIMES  *         1.05      0.80      0.07      0.14
 REAL TIME  *         1.37 SEC
 DISK USED  *        24.77 MB      
 GA USED    *         0.00 MB       (max)       0.00 MB       (current)
 **********************************************************************************************************************************

        CCSD(T)         RHF-SCF 
   -115.42000778   -115.04910051
 **********************************************************************************************************************************
 Variable memory released
