
 Primary working directories    : /tmp/601555.100.gen6.q
 Secondary working directories  : /tmp/601555.100.gen6.q
 Wavefunction directory         : /home/vulcan/mel64643/wfu/
 Main file repository           : /tmp/601555.100.gen6.q/

 ARCHNAME  : Linux/x86_64
 FC        : /opt/intel/compilers_and_libraries_2016.1.150/linux/bin/intel64/ifort
 FCVERSION : 16.0.1
 BLASLIB   : -mkl
 id        : ccgc

 Nodes     nprocs
 n089         1
 ga_uses_ma=false, calling ma_init with nominal heap.
 GA-space will be limited to   8.0 MW (determined by -G option)

 Using customized tuning parameters: mindgm=10; mindgv=16; mindgc=4; mindgr=1; noblas=0; mincuda=1000; minvec=7
 default implementation of scratch files=df  

 ***,Optimization of min3
 memory,1000,m
 gthresh,energy=1.0d-12,orbital=1.0d-10,oneint=1.0d-16,twoint=1.0d-16,optgrad=1.0d-6,compress=1.0d-13
 geomtyp=xyz
 
  bohr
  geometry = {
  6
  arbitrary comment
  C   -1.3785114229   -0.0233903917    0.0000003426
  O    1.3061602663    0.1225128638    0.0000002962
  H   -2.0764071684    1.9109457656   -0.0000799669
  H   -2.1155971503   -0.9794651266    1.6818848209
  H   -2.1155904921   -0.9795963208   -1.6818126002
  H    1.9562218074   -1.5811389104   -0.0000013027
 }
 
 basis=cc-pvdz
 {rhf;maxit,200}
 {ccsd(t);maxit,200}

 Variables initialized (661), CPU time= 0.00 sec
 Commands  initialized (458), CPU time= 0.01 sec, 486 directives.
 Default parameters read. Elapsed time= 0.05 sec

 Checking input...
 Passed
1


                                         ***  PROGRAM SYSTEM MOLPRO  ***
                         Copyright, University College Cardiff Consultants Limited, 2008

                                    Version 2010.1 linked May 16 2016 07:17:05


 **********************************************************************************************************************************
 LABEL *   Optimization of min3                                                          
 Linux-4.4.3/n089(x86_64) 64 bit mpp version                                             DATE: 06-Nov-21          TIME: 15:39:46  
 **********************************************************************************************************************************

 SHA1:             9e8077add272b0f3cad6f7df79ec5211205f459d
 **********************************************************************************************************************************

 THRESHOLDS:

 ZERO    =  1.00D-12  ONEINT  =  1.00D-16  TWOINT  =  1.00D-16  PREFAC  =  1.00D-14  LOCALI  =  1.00D-09  EORDER  =  1.00D-04
 ENERGY  =  1.00D-12  ETEST   =  0.00D+00  EDENS   =  0.00D+00  THRDEDEF=  1.00D-06  GRADIENT=  1.00D-02  STEP    =  1.00D-03
 ORBITAL =  1.00D-10  CIVEC   =  1.00D-05  COEFF   =  1.00D-04  PRINTCI =  5.00D-02  PUNCHCI =  9.90D+01  OPTGRAD =  1.00D-06
 OPTENERG=  1.00D-06  OPTSTEP =  3.00D-04  THRGRAD =  1.00D-10  COMPRESS=  1.00D-13  VARMIN  =  1.00D-07  VARMAX  =  1.00D-03
 THRDOUB =  0.00D+00  THRDIV  =  1.00D-05  THRRED  =  1.00D-07  THRPSP  =  1.00D+00  THRDC   =  1.00D-10  THRCS   =  1.00D-10
 THRNRM  =  1.00D-08  THREQ   =  0.00D+00  THRDE   =  1.00D+00  THRREF  =  1.00D-05  SPARFAC =  1.00D+00  THRDLP  =  1.00D-07
 THRDIA  =  1.00D-10  THRDLS  =  1.00D-07  THRGPS  =  0.00D+00  THRKEX  =  0.00D+00  THRDIS  =  2.00D-01  THRVAR  =  1.00D-10
 THRLOC  =  1.00D-06  THRGAP  =  1.00D-06  THRLOCT = -1.00D+00  THRGAPT = -1.00D+00  THRORB  =  1.00D-06  THRMLTP =  0.00D+00
 THRCPQCI=  1.00D-10  KEXTA   =  0.00D+00  THRCOARS=  0.00D+00  SYMTOL  =  1.00D-06  GRADTOL =  1.00D-06  THROVL  =  1.00D-08
 THRORTH =  1.00D-08  GRID    =  1.00D-06  GRIDMAX =  1.00D-03  DTMAX   =  0.00D+00

 SETTING GEOMTYP        =    XYZ
 ZUNIT=BOHR
 

 Variable memory set to 1000000000 words,  buffer space   230000 words

 SETTING BASIS          =    CC-PVDZ


 Recomputing integrals since basis changed


 Using spherical harmonics

 Library entry C      S cc-pVDZ              selected for orbital group  1
 Library entry C      P cc-pVDZ              selected for orbital group  1
 Library entry C      D cc-pVDZ              selected for orbital group  1
 Library entry O      S cc-pVDZ              selected for orbital group  2
 Library entry O      P cc-pVDZ              selected for orbital group  2
 Library entry O      D cc-pVDZ              selected for orbital group  2
 Library entry H      S cc-pVDZ              selected for orbital group  3
 Library entry H      P cc-pVDZ              selected for orbital group  3

1PROGRAM * SEWARD (Integral evaluation for generally contracted gaussian basis sets)     Author: Roland Lindh, 1990

 Geometry written to block  1 of record 700


 Point group  C1  



 ATOMIC COORDINATES

 NR  ATOM    CHARGE       X              Y              Z

   1  C       6.00   -1.378511423   -0.023390392    0.000000343
   2  O       8.00    1.306160266    0.122512864    0.000000296
   3  H       1.00   -2.076407168    1.910945766   -0.000079967
   4  H       1.00   -2.115597150   -0.979465127    1.681884821
   5  H       1.00   -2.115590492   -0.979596321   -1.681812600
   6  H       1.00    1.956221807   -1.581138910   -0.000001303

 Bond lengths in Bohr (Angstrom)

 1-2  2.688633452  1-3  2.056383925  1-4  2.070292169  1-5  2.070292276  2-6  1.823460824
     ( 1.422763546)     ( 1.088191506)     ( 1.095551432)     ( 1.095551488)     ( 0.964933909)

 Bond angles

  1-2-6  107.77454777   2-1-3  106.72832908   2-1-4  112.36874196   2-1-5  112.36875311

  3-1-4  108.27634403   3-1-5  108.27617700   4-1-5  108.65678908

 NUCLEAR CHARGE:                   18
 NUMBER OF PRIMITIVE AOS:          82
 NUMBER OF SYMMETRY AOS:           80
 NUMBER OF CONTRACTIONS:           48   (  48A   )
 NUMBER OF CORE ORBITALS:           2   (   2A   )
 NUMBER OF VALENCE ORBITALS:       12   (  12A   )


 NUCLEAR REPULSION ENERGY   40.23919337


 Eigenvalues of metric

         1 0.968E-02 0.177E-01 0.369E-01 0.375E-01 0.384E-01 0.476E-01 0.479E-01 0.520E-01


 Contracted 2-electron integrals neglected if value below      1.0D-16
 AO integral compression algorithm  1   Integral accuracy      1.0D-16

     6.291 MB (compressed) written to integral file ( 98.2%)

     Node minimum: 6.291 MB, node maximum: 6.291 MB


 NUMBER OF SORTED TWO-ELECTRON INTEGRALS:     692076.     BUFFER LENGTH:  32768
 NUMBER OF SEGMENTS:   1  SEGMENT LENGTH:     692076      RECORD LENGTH: 524288

 Memory used in sort:       1.25 MW

 SORT1 READ      832256. AND WROTE      682148. INTEGRALS IN      2 RECORDS. CPU TIME:     0.01 SEC, REAL TIME:     0.02 SEC
 SORT2 READ      682148. AND WROTE      692076. INTEGRALS IN     24 RECORDS. CPU TIME:     0.02 SEC, REAL TIME:     0.02 SEC

 FILE SIZES:   FILE 1:     8.0 MBYTE,  FILE 4:     8.4 MBYTE,   TOTAL:     16.4 MBYTE

 OPERATOR DM      FOR CENTER  0  COORDINATES:    0.000000    0.000000    0.000000


 **********************************************************************************************************************************
 DATASETS  * FILE   NREC   LENGTH (MB)   RECORD NAMES
              1      19        8.03       500      610      700      900      950      970     1000      129      960     1100   
                                          VAR    BASINP    GEOM    SYMINP    ZMAT    AOBASIS   BASIS     P2S    ABASIS      S 
                                         1400     1410     1200     1210     1080     1600     1650     1300     1700   
                                           T        V       H0       H01     AOSYM     SMH    MOLCAS    ERIS     OPER   

 PROGRAMS   *        TOTAL       INT
 CPU TIMES  *         0.18      0.14
 REAL TIME  *         0.39 SEC
 DISK USED  *        23.34 MB      
 GA USED    *         0.00 MB       (max)       0.00 MB       (current)
 **********************************************************************************************************************************

1PROGRAM * RHF-SCF (CLOSED SHELL)       Authors: W. Meyer, H.-J. Werner


 NUMBER OF ELECTRONS:       9+    9-    SPACE SYMMETRY=1    SPIN SYMMETRY: Singlet 
 CONVERGENCE THRESHOLDS:    1.00E-10 (Density)    1.00E-13 (Energy)
 MAX. NUMBER OF ITERATIONS:      200
 INTERPOLATION TYPE:            DIIS
 INTERPOLATION STEPS:              2 (START)      1 (STEP)
 LEVEL SHIFTS:                  0.00 (CLOSED)  0.00 (OPEN) 



 Orbital guess generated from atomic densities. Full valence occupancy:   14

 Molecular orbital dump at record        2100.2

 ITERATION    DDIFF          GRAD             ENERGY        2-EL.EN.            DIPOLE MOMENTS         DIIS
    1      0.000D+00      0.000D+00      -115.01392929    164.276707   -0.48939   -0.90662   -0.00000    0
    2      0.000D+00      0.110D-01      -115.04230513    162.047326   -0.31359   -0.53722   -0.00000    1
    3      0.204D-01      0.532D-02      -115.04838077    163.078591   -0.39761   -0.61281   -0.00000    2
    4      0.641D-02      0.113D-02      -115.04884809    162.921482   -0.38788   -0.60122   -0.00000    3
    5      0.204D-02      0.204D-03      -115.04886951    162.927916   -0.39087   -0.59679   -0.00000    4
    6      0.436D-03      0.359D-04      -115.04887033    162.928103   -0.39122   -0.59655   -0.00000    5
    7      0.941D-04      0.752D-05      -115.04887037    162.926893   -0.39137   -0.59638   -0.00000    6
    8      0.154D-04      0.243D-05      -115.04887037    162.927284   -0.39141   -0.59635   -0.00000    7
    9      0.520D-05      0.502D-06      -115.04887037    162.927244   -0.39143   -0.59635   -0.00000    6
   10      0.145D-05      0.918D-07      -115.04887037    162.927242   -0.39143   -0.59635   -0.00000    6
   11      0.244D-06      0.343D-07      -115.04887037    162.927248   -0.39143   -0.59635   -0.00000    6
   12      0.628D-07      0.146D-07      -115.04887037    162.927246   -0.39143   -0.59635   -0.00000    7
   13      0.272D-07      0.323D-08      -115.04887037    162.927246   -0.39143   -0.59635   -0.00000    7
   14      0.804D-08      0.666D-09      -115.04887037    162.927246   -0.39143   -0.59635   -0.00000    7
   15      0.168D-08      0.157D-09      -115.04887037    162.927246   -0.39143   -0.59635   -0.00000    7
   16      0.351D-09      0.473D-10      -115.04887037    162.927246   -0.39143   -0.59635   -0.00000    7
   17      0.904D-10      0.157D-10      -115.04887037    162.927246   -0.39143   -0.59635   -0.00000    0

 Final occupancy:   9

 !RHF STATE 1.1 Energy               -115.048870370692
 Nuclear energy                        40.23919337
 One-electron energy                 -236.75168689
 Two-electron energy                   81.46362315
 Virial quotient                       -1.00107040
 !RHF STATE 1.1 Dipole moment          -0.39143173    -0.59634784    -0.00000278
 Dipole moment /Debye                  -0.99485507    -1.51566574    -0.00000706

 Orbital energies:

         1.1          2.1          3.1          4.1          5.1          6.1          7.1          8.1          9.1         10.1
    -20.550352   -11.274975    -1.347711    -0.920928    -0.681369    -0.612832    -0.584366    -0.496725    -0.442963     0.184323

        11.1
      0.223653


 **********************************************************************************************************************************
 DATASETS  * FILE   NREC   LENGTH (MB)   RECORD NAMES
              1      19        8.03       500      610      700      900      950      970     1000      129      960     1100   
                                          VAR    BASINP    GEOM    SYMINP    ZMAT    AOBASIS   BASIS     P2S    ABASIS      S 
                                         1400     1410     1200     1210     1080     1600     1650     1300     1700   
                                           T        V       H0       H01     AOSYM     SMH    MOLCAS    ERIS     OPER   

              2       3        0.39       700     1000     2100   
                                         GEOM     BASIS     RHF  

 PROGRAMS   *        TOTAL       RHF       INT
 CPU TIMES  *         0.25      0.07      0.14
 REAL TIME  *         0.50 SEC
 DISK USED  *        23.34 MB      
 GA USED    *         0.00 MB       (max)       0.00 MB       (current)
 **********************************************************************************************************************************


1PROGRAM * CCSD (Closed-shell coupled cluster)     Authors: C. Hampel, H.-J. Werner, 1991, M. Deegan, P.J. Knowles, 1992


 Convergence thresholds:  THRVAR = 1.00D-08  THRDEN = 1.00D-12

 CCSD(T)     terms to be evaluated (factor= 1.000)


 Number of core orbitals:           2 (   2 )
 Number of closed-shell orbitals:   7 (   7 )
 Number of external orbitals:      39 (  39 )

 Molecular orbitals read from record     2100.2  Type=RHF/CANONICAL (state 1.1)

 Number of N-1 electron functions:               7
 Number of N-2 electron functions:              28
 Number of singly external CSFs:               273
 Number of doubly external CSFs:             37401
 Total number of CSFs:                       37675

 Length of J-op  integral file:               0.00 MB
 Length of K-op  integral file:               0.19 MB
 Length of 3-ext integral record:             0.00 MB

 Memory could be reduced to 0.96 Mwords without degradation in triples

 Integral transformation finished. Total CPU:   0.02 sec, npass=  1  Memory used:   0.66 MW

 Reference energy:                   -115.04887037

 MP2 singlet pair energy:              -0.21884609
 MP2 triplet pair energy:              -0.11989476
 MP2 correlation energy:               -0.33874085
 MP2 total energy:                   -115.38761122

 SCS-MP2 correlation energy:           -0.33721649   (PS=  1.200000  PT=  0.333333)
 SCS-MP2 total energy:               -115.38608686

 ITER.      SQ.NORM     CORR.ENERGY   TOTAL ENERGY   ENERGY CHANGE        DEN1      VAR(S)    VAR(P)  DIIS     TIME
   1      1.10756424    -0.36152789  -115.41039826    -0.02278704    -0.01407155  0.92D-03  0.18D-02  1  1     0.05
   2      1.11613815    -0.36348396  -115.41235433    -0.00195607    -0.00928158  0.20D-04  0.16D-03  2  2     0.08
   3      1.11804469    -0.36361291  -115.41248329    -0.00012895    -0.00121728  0.97D-05  0.87D-05  3  3     0.11
   4      1.11856799    -0.36361172  -115.41248209     0.00000119    -0.00025794  0.35D-06  0.69D-06  4  4     0.15
   5      1.11866851    -0.36361214  -115.41248251    -0.00000042    -0.00003669  0.10D-06  0.50D-07  5  5     0.18
   6      1.11868833    -0.36361074  -115.41248111     0.00000140    -0.00000448  0.17D-07  0.43D-08  6  6     0.21
   7      1.11869333    -0.36361031  -115.41248068     0.00000043    -0.00000037  0.21D-08  0.76D-09  6  1     0.25
   8      1.11869466    -0.36361041  -115.41248078    -0.00000010     0.00000078  0.27D-09  0.77D-10  6  3     0.28
   9      1.11869576    -0.36361029  -115.41248066     0.00000013    -0.00000039  0.14D-10  0.11D-10  6  2     0.31
  10      1.11869569    -0.36361029  -115.41248066    -0.00000000     0.00000007  0.11D-11  0.93D-12  6  5     0.35
  11      1.11869572    -0.36361029  -115.41248066     0.00000000    -0.00000000  0.21D-12  0.54D-13  6  4     0.38
  12      1.11869570    -0.36361029  -115.41248066    -0.00000000     0.00000001  0.20D-13  0.11D-13  6  1     0.42
  13      1.11869570    -0.36361029  -115.41248066    -0.00000000    -0.00000000  0.25D-14  0.10D-14  6  6     0.45
  14      1.11869571    -0.36361029  -115.41248066     0.00000000    -0.00000000  0.23D-15  0.13D-15  6  3     0.48
  15      1.11869571    -0.36361029  -115.41248066    -0.00000000    -0.00000000  0.26D-16  0.17D-16  6  2     0.52
  16      1.11869571    -0.36361029  -115.41248066    -0.00000000    -0.00000000  0.60D-17  0.17D-17  6  5     0.55
  17      1.11869571    -0.36361029  -115.41248066    -0.00000000    -0.00000000  0.58D-18  0.27D-18  6  4     0.58
  18      1.11869571    -0.36361029  -115.41248066     0.00000000    -0.00000000  0.88D-19  0.46D-19  6  1     0.62
  19      1.11869571    -0.36361029  -115.41248066    -0.00000000    -0.00000000  0.10D-19  0.46D-20  6  6     0.65
  20      1.11869571    -0.36361029  -115.41248066     0.00000000     0.00000000  0.15D-20  0.60D-21  6  3     0.68

 Norm of t1 vector:      0.04191111      S-energy:    -0.00000000      T1 diagnostic:  0.00792045
                                                                       D1 diagnostic:  0.01766836


 Total CPU time for triples:      0.18 sec


 RESULTS
 =======

  Reference energy                   -115.048870370692
  CCSD singlet pair energy             -0.254869753161
  CCSD triplet pair energy             -0.108740534979
  CCSD correlation energy              -0.363610288141

  Triples (T) contribution             -0.007763027665
  Total correlation energy             -0.371373315806

  CCSD total energy                  -115.412480658834
  CCSD[T] energy                     -115.420535898988
  CCSD-T energy                      -115.420092657195
 !CCSD(T) total energy               -115.420243686498

 Timing summary (sec):

 STEP                 CPU(USER)    SYS     CPU(TOT)    WALL
 Transformation          0.02      0.00      0.02      0.02
 CCSD iterations         0.66      0.04      0.70      0.73
 Triples                 0.18      0.00      0.18      0.18

 Program statistics:

 Available memory in ccsd:               999999704
 Min. memory needed in ccsd:                136801
 Max. memory used in ccsd:                  163198
 Max. memory used in cckext:                182024 (20 integral passes)



 **********************************************************************************************************************************
 DATASETS  * FILE   NREC   LENGTH (MB)   RECORD NAMES
              1      20       10.56       500      610      700      900      950      970     1000      129      960     1100   
                                          VAR    BASINP    GEOM    SYMINP    ZMAT    AOBASIS   BASIS     P2S    ABASIS      S 
                                         1400     1410     1200     1210     1080     1600     1650     1300     1700     1380   
                                           T        V       H0       H01     AOSYM     SMH    MOLCAS    ERIS     OPER     JKOP   

              2       3        0.39       700     1000     2100   
                                         GEOM     BASIS     RHF  

 PROGRAMS   *        TOTAL   CCSD(T)       RHF       INT
 CPU TIMES  *         1.12      0.87      0.07      0.14
 REAL TIME  *         1.44 SEC
 DISK USED  *        24.77 MB      
 GA USED    *         0.00 MB       (max)       0.00 MB       (current)
 **********************************************************************************************************************************

        CCSD(T)         RHF-SCF 
   -115.42024369   -115.04887037
 **********************************************************************************************************************************
 Variable memory released
