
 Primary working directories    : /tmp/795519.36.gen4.q
 Secondary working directories  : /tmp/795519.36.gen4.q
 Wavefunction directory         : /home/vulcan/mel64643/wfu/
 Main file repository           : /tmp/795519.36.gen4.q/

 ARCHNAME  : Linux/x86_64
 FC        : /opt/intel/compilers_and_libraries_2016.1.150/linux/bin/intel64/ifort
 FCVERSION : 16.0.1
 BLASLIB   : -mkl
 id        : ccgc

 Nodes     nprocs
 n040         1
 ga_uses_ma=false, calling ma_init with nominal heap.
 GA-space will be limited to   8.0 MW (determined by -G option)

 Using customized tuning parameters: mindgm=10; mindgv=16; mindgc=4; mindgr=1; noblas=0; mincuda=1000; minvec=7
 default implementation of scratch files=df  

 ***,Optimization of min3
 memory,1000,m
 gthresh,energy=1.0d-12,orbital=1.0d-10,oneint=1.0d-16,twoint=1.0d-16,optgrad=1.0d-6,compress=1.0d-13
 geomtyp=xyz
 
  bohr
  geometry = {
  6
  arbitrary comment
  C   -1.3777262223   -0.0250923868   -0.0015578165
  O    1.3063290105    0.1209681626   -0.0002066138
  H   -2.0770459343    1.9098935604   -0.0045162529
  H   -2.1085693087   -0.9834813517    1.6852084292
  H   -2.1078601264   -0.9749016241   -1.6791341456
  H    1.9411484213   -1.5775184803    0.0001979896
 }
 
 basis=cc-pvdz
 {rhf;maxit,200}
 {ccsd(t);maxit,200}

 Variables initialized (661), CPU time= 0.00 sec
 Commands  initialized (458), CPU time= 0.00 sec, 486 directives.
 Default parameters read. Elapsed time= 0.05 sec

 Checking input...
 Passed
1


                                         ***  PROGRAM SYSTEM MOLPRO  ***
                         Copyright, University College Cardiff Consultants Limited, 2008

                                    Version 2010.1 linked May 16 2016 07:17:05


 **********************************************************************************************************************************
 LABEL *   Optimization of min3                                                          
 Linux-4.4.3/n040(x86_64) 64 bit mpp version                                             DATE: 24-Oct-22          TIME: 15:41:21  
 **********************************************************************************************************************************

 SHA1:             9e8077add272b0f3cad6f7df79ec5211205f459d
 **********************************************************************************************************************************

 THRESHOLDS:

 ZERO    =  1.00D-12  ONEINT  =  1.00D-16  TWOINT  =  1.00D-16  PREFAC  =  1.00D-14  LOCALI  =  1.00D-09  EORDER  =  1.00D-04
 ENERGY  =  1.00D-12  ETEST   =  0.00D+00  EDENS   =  0.00D+00  THRDEDEF=  1.00D-06  GRADIENT=  1.00D-02  STEP    =  1.00D-03
 ORBITAL =  1.00D-10  CIVEC   =  1.00D-05  COEFF   =  1.00D-04  PRINTCI =  5.00D-02  PUNCHCI =  9.90D+01  OPTGRAD =  1.00D-06
 OPTENERG=  1.00D-06  OPTSTEP =  3.00D-04  THRGRAD =  1.00D-10  COMPRESS=  1.00D-13  VARMIN  =  1.00D-07  VARMAX  =  1.00D-03
 THRDOUB =  0.00D+00  THRDIV  =  1.00D-05  THRRED  =  1.00D-07  THRPSP  =  1.00D+00  THRDC   =  1.00D-10  THRCS   =  1.00D-10
 THRNRM  =  1.00D-08  THREQ   =  0.00D+00  THRDE   =  1.00D+00  THRREF  =  1.00D-05  SPARFAC =  1.00D+00  THRDLP  =  1.00D-07
 THRDIA  =  1.00D-10  THRDLS  =  1.00D-07  THRGPS  =  0.00D+00  THRKEX  =  0.00D+00  THRDIS  =  2.00D-01  THRVAR  =  1.00D-10
 THRLOC  =  1.00D-06  THRGAP  =  1.00D-06  THRLOCT = -1.00D+00  THRGAPT = -1.00D+00  THRORB  =  1.00D-06  THRMLTP =  0.00D+00
 THRCPQCI=  1.00D-10  KEXTA   =  0.00D+00  THRCOARS=  0.00D+00  SYMTOL  =  1.00D-06  GRADTOL =  1.00D-06  THROVL  =  1.00D-08
 THRORTH =  1.00D-08  GRID    =  1.00D-06  GRIDMAX =  1.00D-03  DTMAX   =  0.00D+00

 SETTING GEOMTYP        =    XYZ
 ZUNIT=BOHR
 

 Variable memory set to 1000000000 words,  buffer space   230000 words

 SETTING BASIS          =    CC-PVDZ


 Recomputing integrals since basis changed


 Using spherical harmonics

 Library entry C      S cc-pVDZ              selected for orbital group  1
 Library entry C      P cc-pVDZ              selected for orbital group  1
 Library entry C      D cc-pVDZ              selected for orbital group  1
 Library entry O      S cc-pVDZ              selected for orbital group  2
 Library entry O      P cc-pVDZ              selected for orbital group  2
 Library entry O      D cc-pVDZ              selected for orbital group  2
 Library entry H      S cc-pVDZ              selected for orbital group  3
 Library entry H      P cc-pVDZ              selected for orbital group  3

1PROGRAM * SEWARD (Integral evaluation for generally contracted gaussian basis sets)     Author: Roland Lindh, 1990

 Geometry written to block  1 of record 700


 Point group  C1  



 ATOMIC COORDINATES

 NR  ATOM    CHARGE       X              Y              Z

   1  C       6.00   -1.377726222   -0.025092387   -0.001557817
   2  O       8.00    1.306329011    0.120968163   -0.000206614
   3  H       1.00   -2.077045934    1.909893560   -0.004516253
   4  H       1.00   -2.108569309   -0.983481352    1.685208429
   5  H       1.00   -2.107860126   -0.974901624   -1.679134146
   6  H       1.00    1.941148421   -1.577518480    0.000197990

 Bond lengths in Bohr (Angstrom)

 1-2  2.688026786  1-3  2.057480845  1-4  2.073118760  1-5  2.061430437  2-6  1.813243702
     ( 1.422442512)     ( 1.088771971)     ( 1.097047199)     ( 1.090862005)     ( 0.959527242)

 Bond angles

  1-2-6  107.37868874   2-1-3  106.75545087   2-1-4  112.13085312   2-1-5  112.27855701

  3-1-4  108.42826299   3-1-5  108.16565649   4-1-5  108.92109968

 NUCLEAR CHARGE:                   18
 NUMBER OF PRIMITIVE AOS:          82
 NUMBER OF SYMMETRY AOS:           80
 NUMBER OF CONTRACTIONS:           48   (  48A   )
 NUMBER OF CORE ORBITALS:           2   (   2A   )
 NUMBER OF VALENCE ORBITALS:       12   (  12A   )


 NUCLEAR REPULSION ENERGY   40.29124789


 Eigenvalues of metric

         1 0.966E-02 0.177E-01 0.367E-01 0.374E-01 0.382E-01 0.472E-01 0.478E-01 0.517E-01


 Contracted 2-electron integrals neglected if value below      1.0D-16
 AO integral compression algorithm  1   Integral accuracy      1.0D-16

     6.816 MB (compressed) written to integral file (100.0%)

     Node minimum: 6.816 MB, node maximum: 6.816 MB


 NUMBER OF SORTED TWO-ELECTRON INTEGRALS:     692076.     BUFFER LENGTH:  32768
 NUMBER OF SEGMENTS:   1  SEGMENT LENGTH:     692076      RECORD LENGTH: 524288

 Memory used in sort:       1.25 MW

 SORT1 READ      832256. AND WROTE      682150. INTEGRALS IN      2 RECORDS. CPU TIME:     0.00 SEC, REAL TIME:     0.01 SEC
 SORT2 READ      682150. AND WROTE      692076. INTEGRALS IN     26 RECORDS. CPU TIME:     0.02 SEC, REAL TIME:     0.02 SEC

 FILE SIZES:   FILE 1:     8.4 MBYTE,  FILE 4:     8.4 MBYTE,   TOTAL:     16.8 MBYTE

 OPERATOR DM      FOR CENTER  0  COORDINATES:    0.000000    0.000000    0.000000


 **********************************************************************************************************************************
 DATASETS  * FILE   NREC   LENGTH (MB)   RECORD NAMES
              1      19        8.40       500      610      700      900      950      970     1000      129      960     1100   
                                          VAR    BASINP    GEOM    SYMINP    ZMAT    AOBASIS   BASIS     P2S    ABASIS      S 
                                         1400     1410     1200     1210     1080     1600     1650     1300     1700   
                                           T        V       H0       H01     AOSYM     SMH    MOLCAS    ERIS     OPER   

 PROGRAMS   *        TOTAL       INT
 CPU TIMES  *         0.33      0.27
 REAL TIME  *         0.51 SEC
 DISK USED  *        24.24 MB      
 GA USED    *         0.00 MB       (max)       0.00 MB       (current)
 **********************************************************************************************************************************

1PROGRAM * RHF-SCF (CLOSED SHELL)       Authors: W. Meyer, H.-J. Werner


 NUMBER OF ELECTRONS:       9+    9-    SPACE SYMMETRY=1    SPIN SYMMETRY: Singlet 
 CONVERGENCE THRESHOLDS:    1.00E-10 (Density)    1.00E-13 (Energy)
 MAX. NUMBER OF ITERATIONS:      200
 INTERPOLATION TYPE:            DIIS
 INTERPOLATION STEPS:              2 (START)      1 (STEP)
 LEVEL SHIFTS:                  0.00 (CLOSED)  0.00 (OPEN) 



 Orbital guess generated from atomic densities. Full valence occupancy:   14

 Molecular orbital dump at record        2100.2

 ITERATION    DDIFF          GRAD             ENERGY        2-EL.EN.            DIPOLE MOMENTS         DIIS
    1      0.000D+00      0.000D+00      -115.01414627    164.359821   -0.49804   -0.90097    0.00004    0
    2      0.000D+00      0.110D-01      -115.04251310    162.140911   -0.31891   -0.53585   -0.00188    1
    3      0.205D-01      0.531D-02      -115.04856341    163.165961   -0.40292   -0.61119   -0.00222    2
    4      0.640D-02      0.112D-02      -115.04902715    163.010131   -0.39278   -0.60012   -0.00252    3
    5      0.204D-02      0.202D-03      -115.04904818    163.016481   -0.39562   -0.59585   -0.00263    4
    6      0.433D-03      0.355D-04      -115.04904898    163.016646   -0.39593   -0.59565   -0.00266    5
    7      0.931D-04      0.738D-05      -115.04904901    163.015451   -0.39607   -0.59548   -0.00266    6
    8      0.151D-04      0.238D-05      -115.04904901    163.015833   -0.39611   -0.59546   -0.00267    7
    9      0.506D-05      0.490D-06      -115.04904901    163.015792   -0.39612   -0.59546   -0.00267    6
   10      0.141D-05      0.873D-07      -115.04904901    163.015791   -0.39612   -0.59546   -0.00267    6
   11      0.235D-06      0.326D-07      -115.04904901    163.015796   -0.39612   -0.59546   -0.00267    6
   12      0.589D-07      0.136D-07      -115.04904901    163.015794   -0.39612   -0.59546   -0.00267    7
   13      0.253D-07      0.304D-08      -115.04904901    163.015795   -0.39612   -0.59546   -0.00267    7
   14      0.757D-08      0.655D-09      -115.04904901    163.015795   -0.39612   -0.59546   -0.00267    7
   15      0.167D-08      0.153D-09      -115.04904901    163.015795   -0.39612   -0.59546   -0.00267    7
   16      0.340D-09      0.463D-10      -115.04904901    163.015795   -0.39612   -0.59546   -0.00267    7
   17      0.897D-10      0.169D-10      -115.04904901    163.015795   -0.39612   -0.59546   -0.00267    7
   18      0.433D-10      0.303D-11      -115.04904901    163.015795   -0.39612   -0.59546   -0.00267    0

 Final occupancy:   9

 !RHF STATE 1.1 Energy               -115.049049013644
 Nuclear energy                        40.29124789
 One-electron energy                 -236.84819420
 Two-electron energy                   81.50789729
 Virial quotient                       -1.00092936
 !RHF STATE 1.1 Dipole moment          -0.39612161    -0.59545646    -0.00266525
 Dipole moment /Debye                  -1.00677477    -1.51340024    -0.00677394

 Orbital energies:

         1.1          2.1          3.1          4.1          5.1          6.1          7.1          8.1          9.1         10.1
    -20.549787   -11.274646    -1.349227    -0.921449    -0.682405    -0.613807    -0.584329    -0.497256    -0.443295     0.184584

        11.1
      0.224509


 **********************************************************************************************************************************
 DATASETS  * FILE   NREC   LENGTH (MB)   RECORD NAMES
              1      19        8.40       500      610      700      900      950      970     1000      129      960     1100   
                                          VAR    BASINP    GEOM    SYMINP    ZMAT    AOBASIS   BASIS     P2S    ABASIS      S 
                                         1400     1410     1200     1210     1080     1600     1650     1300     1700   
                                           T        V       H0       H01     AOSYM     SMH    MOLCAS    ERIS     OPER   

              2       3        0.39       700     1000     2100   
                                         GEOM     BASIS     RHF  

 PROGRAMS   *        TOTAL       RHF       INT
 CPU TIMES  *         0.43      0.10      0.27
 REAL TIME  *         0.65 SEC
 DISK USED  *        24.24 MB      
 GA USED    *         0.00 MB       (max)       0.00 MB       (current)
 **********************************************************************************************************************************


1PROGRAM * CCSD (Closed-shell coupled cluster)     Authors: C. Hampel, H.-J. Werner, 1991, M. Deegan, P.J. Knowles, 1992


 Convergence thresholds:  THRVAR = 1.00D-08  THRDEN = 1.00D-12

 CCSD(T)     terms to be evaluated (factor= 1.000)


 Number of core orbitals:           2 (   2 )
 Number of closed-shell orbitals:   7 (   7 )
 Number of external orbitals:      39 (  39 )

 Molecular orbitals read from record     2100.2  Type=RHF/CANONICAL (state 1.1)

 Number of N-1 electron functions:               7
 Number of N-2 electron functions:              28
 Number of singly external CSFs:               273
 Number of doubly external CSFs:             37401
 Total number of CSFs:                       37675

 Length of J-op  integral file:               0.00 MB
 Length of K-op  integral file:               0.19 MB
 Length of 3-ext integral record:             0.00 MB

 Memory could be reduced to 0.96 Mwords without degradation in triples

 Integral transformation finished. Total CPU:   0.03 sec, npass=  1  Memory used:   0.66 MW

 Reference energy:                   -115.04904901

 MP2 singlet pair energy:              -0.21866438
 MP2 triplet pair energy:              -0.11983406
 MP2 correlation energy:               -0.33849844
 MP2 total energy:                   -115.38754745

 SCS-MP2 correlation energy:           -0.33696067   (PS=  1.200000  PT=  0.333333)
 SCS-MP2 total energy:               -115.38600969

 ITER.      SQ.NORM     CORR.ENERGY   TOTAL ENERGY   ENERGY CHANGE        DEN1      VAR(S)    VAR(P)  DIIS     TIME
   1      1.10734907    -0.36129404  -115.41034306    -0.02279560    -0.01410999  0.91D-03  0.17D-02  1  1     0.08
   2      1.11587956    -0.36323998  -115.41228900    -0.00194594    -0.00925414  0.20D-04  0.16D-03  2  2     0.12
   3      1.11776483    -0.36336756  -115.41241657    -0.00012758    -0.00120639  0.95D-05  0.86D-05  3  3     0.17
   4      1.11828133    -0.36336621  -115.41241522     0.00000135    -0.00025538  0.34D-06  0.68D-06  4  4     0.22
   5      1.11837989    -0.36336661  -115.41241563    -0.00000040    -0.00003619  0.10D-06  0.49D-07  5  5     0.27
   6      1.11839906    -0.36336525  -115.41241426     0.00000137    -0.00000437  0.16D-07  0.41D-08  6  6     0.32
   7      1.11840386    -0.36336483  -115.41241384     0.00000042    -0.00000035  0.20D-08  0.73D-09  6  1     0.38
   8      1.11840514    -0.36336493  -115.41241394    -0.00000010     0.00000075  0.26D-09  0.73D-10  6  3     0.43
   9      1.11840621    -0.36336480  -115.41241382     0.00000012    -0.00000038  0.13D-10  0.10D-10  6  2     0.48
  10      1.11840613    -0.36336481  -115.41241382    -0.00000000     0.00000007  0.11D-11  0.88D-12  6  5     0.53
  11      1.11840617    -0.36336480  -115.41241382     0.00000000    -0.00000000  0.19D-12  0.51D-13  6  4     0.58
  12      1.11840615    -0.36336481  -115.41241382    -0.00000000     0.00000001  0.19D-13  0.10D-13  6  1     0.63
  13      1.11840615    -0.36336481  -115.41241382    -0.00000000    -0.00000000  0.24D-14  0.96D-15  6  6     0.68
  14      1.11840615    -0.36336481  -115.41241382     0.00000000    -0.00000000  0.24D-15  0.13D-15  6  3     0.73
  15      1.11840615    -0.36336481  -115.41241382    -0.00000000    -0.00000000  0.32D-16  0.17D-16  6  2     0.78
  16      1.11840615    -0.36336481  -115.41241382    -0.00000000    -0.00000000  0.75D-17  0.19D-17  6  5     0.83
  17      1.11840615    -0.36336481  -115.41241382    -0.00000000    -0.00000000  0.99D-18  0.31D-18  6  4     0.88
  18      1.11840615    -0.36336481  -115.41241382     0.00000000    -0.00000000  0.18D-18  0.63D-19  6  1     0.93
  19      1.11840615    -0.36336481  -115.41241382    -0.00000000    -0.00000000  0.31D-19  0.71D-20  6  6     0.98
  20      1.11840615    -0.36336481  -115.41241382     0.00000000     0.00000000  0.55D-20  0.14D-20  6  3     1.03

 Norm of t1 vector:      0.04170822      S-energy:    -0.00000000      T1 diagnostic:  0.00788211
                                                                       D1 diagnostic:  0.01761400


 Total CPU time for triples:      0.24 sec


 RESULTS
 =======

  Reference energy                   -115.049049013644
  CCSD singlet pair energy             -0.254624993499
  CCSD triplet pair energy             -0.108739812478
  CCSD correlation energy              -0.363364805978

  Triples (T) contribution             -0.007741445184
  Total correlation energy             -0.371106251162

  CCSD total energy                  -115.412413819622
  CCSD[T] energy                     -115.420445629321
  CCSD-T energy                      -115.420005080882
 !CCSD(T) total energy               -115.420155264806

 Timing summary (sec):

 STEP                 CPU(USER)    SYS     CPU(TOT)    WALL
 Transformation          0.03      0.00      0.03      0.03
 CCSD iterations         1.00      0.05      1.05      1.07
 Triples                 0.24      0.00      0.24      0.25

 Program statistics:

 Available memory in ccsd:               999999704
 Min. memory needed in ccsd:                136801
 Max. memory used in ccsd:                  163198
 Max. memory used in cckext:                182024 (20 integral passes)



 **********************************************************************************************************************************
 DATASETS  * FILE   NREC   LENGTH (MB)   RECORD NAMES
              1      20       10.94       500      610      700      900      950      970     1000      129      960     1100   
                                          VAR    BASINP    GEOM    SYMINP    ZMAT    AOBASIS   BASIS     P2S    ABASIS      S 
                                         1400     1410     1200     1210     1080     1600     1650     1300     1700     1380   
                                           T        V       H0       H01     AOSYM     SMH    MOLCAS    ERIS     OPER     JKOP   

              2       3        0.39       700     1000     2100   
                                         GEOM     BASIS     RHF  

 PROGRAMS   *        TOTAL   CCSD(T)       RHF       INT
 CPU TIMES  *         1.71      1.28      0.10      0.27
 REAL TIME  *         2.03 SEC
 DISK USED  *        25.67 MB      
 GA USED    *         0.00 MB       (max)       0.00 MB       (current)
 **********************************************************************************************************************************

        CCSD(T)         RHF-SCF 
   -115.42015526   -115.04904901
 **********************************************************************************************************************************
 Variable memory released
