
 Primary working directories    : /tmp/795519.33.gen6.q
 Secondary working directories  : /tmp/795519.33.gen6.q
 Wavefunction directory         : /home/vulcan/mel64643/wfu/
 Main file repository           : /tmp/795519.33.gen6.q/

 ARCHNAME  : Linux/x86_64
 FC        : /opt/intel/compilers_and_libraries_2016.1.150/linux/bin/intel64/ifort
 FCVERSION : 16.0.1
 BLASLIB   : -mkl
 id        : ccgc

 Nodes     nprocs
 n090         1
 ga_uses_ma=false, calling ma_init with nominal heap.
 GA-space will be limited to   8.0 MW (determined by -G option)

 Using customized tuning parameters: mindgm=10; mindgv=16; mindgc=4; mindgr=1; noblas=0; mincuda=1000; minvec=7
 default implementation of scratch files=df  

 ***,Optimization of min3
 memory,1000,m
 gthresh,energy=1.0d-12,orbital=1.0d-10,oneint=1.0d-16,twoint=1.0d-16,optgrad=1.0d-6,compress=1.0d-13
 geomtyp=xyz
 
  bohr
  geometry = {
  6
  arbitrary comment
  C   -1.3724589497   -0.0245259311    0.0000069814
  O    1.3074353245    0.1158232140   -0.0000018743
  H   -2.0800530334    1.9096483942   -0.0000821489
  H   -2.1094294330   -0.9786021230    1.6818503252
  H   -2.1094219749   -0.9787316479   -1.6817808901
  H    1.9402039065   -1.5737440261   -0.0000008034
 }
 
 basis=cc-pvdz
 {rhf;maxit,200}
 {ccsd(t);maxit,200}

 Variables initialized (661), CPU time= 0.00 sec
 Commands  initialized (458), CPU time= 0.01 sec, 486 directives.
 Default parameters read. Elapsed time= 0.04 sec

 Checking input...
 Passed
1


                                         ***  PROGRAM SYSTEM MOLPRO  ***
                         Copyright, University College Cardiff Consultants Limited, 2008

                                    Version 2010.1 linked May 16 2016 07:17:05


 **********************************************************************************************************************************
 LABEL *   Optimization of min3                                                          
 Linux-4.4.3/n090(x86_64) 64 bit mpp version                                             DATE: 24-Oct-22          TIME: 15:41:21  
 **********************************************************************************************************************************

 SHA1:             9e8077add272b0f3cad6f7df79ec5211205f459d
 **********************************************************************************************************************************

 THRESHOLDS:

 ZERO    =  1.00D-12  ONEINT  =  1.00D-16  TWOINT  =  1.00D-16  PREFAC  =  1.00D-14  LOCALI  =  1.00D-09  EORDER  =  1.00D-04
 ENERGY  =  1.00D-12  ETEST   =  0.00D+00  EDENS   =  0.00D+00  THRDEDEF=  1.00D-06  GRADIENT=  1.00D-02  STEP    =  1.00D-03
 ORBITAL =  1.00D-10  CIVEC   =  1.00D-05  COEFF   =  1.00D-04  PRINTCI =  5.00D-02  PUNCHCI =  9.90D+01  OPTGRAD =  1.00D-06
 OPTENERG=  1.00D-06  OPTSTEP =  3.00D-04  THRGRAD =  1.00D-10  COMPRESS=  1.00D-13  VARMIN  =  1.00D-07  VARMAX  =  1.00D-03
 THRDOUB =  0.00D+00  THRDIV  =  1.00D-05  THRRED  =  1.00D-07  THRPSP  =  1.00D+00  THRDC   =  1.00D-10  THRCS   =  1.00D-10
 THRNRM  =  1.00D-08  THREQ   =  0.00D+00  THRDE   =  1.00D+00  THRREF  =  1.00D-05  SPARFAC =  1.00D+00  THRDLP  =  1.00D-07
 THRDIA  =  1.00D-10  THRDLS  =  1.00D-07  THRGPS  =  0.00D+00  THRKEX  =  0.00D+00  THRDIS  =  2.00D-01  THRVAR  =  1.00D-10
 THRLOC  =  1.00D-06  THRGAP  =  1.00D-06  THRLOCT = -1.00D+00  THRGAPT = -1.00D+00  THRORB  =  1.00D-06  THRMLTP =  0.00D+00
 THRCPQCI=  1.00D-10  KEXTA   =  0.00D+00  THRCOARS=  0.00D+00  SYMTOL  =  1.00D-06  GRADTOL =  1.00D-06  THROVL  =  1.00D-08
 THRORTH =  1.00D-08  GRID    =  1.00D-06  GRIDMAX =  1.00D-03  DTMAX   =  0.00D+00

 SETTING GEOMTYP        =    XYZ
 ZUNIT=BOHR
 

 Variable memory set to 1000000000 words,  buffer space   230000 words

 SETTING BASIS          =    CC-PVDZ


 Recomputing integrals since basis changed


 Using spherical harmonics

 Library entry C      S cc-pVDZ              selected for orbital group  1
 Library entry C      P cc-pVDZ              selected for orbital group  1
 Library entry C      D cc-pVDZ              selected for orbital group  1
 Library entry O      S cc-pVDZ              selected for orbital group  2
 Library entry O      P cc-pVDZ              selected for orbital group  2
 Library entry O      D cc-pVDZ              selected for orbital group  2
 Library entry H      S cc-pVDZ              selected for orbital group  3
 Library entry H      P cc-pVDZ              selected for orbital group  3

1PROGRAM * SEWARD (Integral evaluation for generally contracted gaussian basis sets)     Author: Roland Lindh, 1990

 Geometry written to block  1 of record 700


 Point group  C1  



 ATOMIC COORDINATES

 NR  ATOM    CHARGE       X              Y              Z

   1  C       6.00   -1.372458950   -0.024525931    0.000006981
   2  O       8.00    1.307435325    0.115823214   -0.000001874
   3  H       1.00   -2.080053033    1.909648394   -0.000082149
   4  H       1.00   -2.109429433   -0.978602123    1.681850325
   5  H       1.00   -2.109421975   -0.978731648   -1.681780890
   6  H       1.00    1.940203907   -1.573744026   -0.000000803

 Bond lengths in Bohr (Angstrom)

 1-2  2.683566881  1-3  2.059543570  1-4  2.069295510  1-5  2.069307492  2-6  1.804171150
     ( 1.420082432)     ( 1.089863518)     ( 1.095024022)     ( 1.095030363)     ( 0.954726254)

 Bond angles

  1-2-6  107.53378095   2-1-3  107.09652285   2-1-4  112.31969945   2-1-5  112.31921085

  3-1-4  108.09973823   3-1-5  108.09900746   4-1-5  108.73010823

 NUCLEAR CHARGE:                   18
 NUMBER OF PRIMITIVE AOS:          82
 NUMBER OF SYMMETRY AOS:           80
 NUMBER OF CONTRACTIONS:           48   (  48A   )
 NUMBER OF CORE ORBITALS:           2   (   2A   )
 NUMBER OF VALENCE ORBITALS:       12   (  12A   )


 NUCLEAR REPULSION ENERGY   40.33436178


 Eigenvalues of metric

         1 0.967E-02 0.176E-01 0.368E-01 0.374E-01 0.379E-01 0.474E-01 0.479E-01 0.516E-01


 Contracted 2-electron integrals neglected if value below      1.0D-16
 AO integral compression algorithm  1   Integral accuracy      1.0D-16

     6.554 MB (compressed) written to integral file ( 95.5%)

     Node minimum: 6.554 MB, node maximum: 6.554 MB


 NUMBER OF SORTED TWO-ELECTRON INTEGRALS:     692076.     BUFFER LENGTH:  32768
 NUMBER OF SEGMENTS:   1  SEGMENT LENGTH:     692076      RECORD LENGTH: 524288

 Memory used in sort:       1.25 MW

 SORT1 READ      832256. AND WROTE      682150. INTEGRALS IN      2 RECORDS. CPU TIME:     0.01 SEC, REAL TIME:     0.01 SEC
 SORT2 READ      682150. AND WROTE      692076. INTEGRALS IN     25 RECORDS. CPU TIME:     0.02 SEC, REAL TIME:     0.02 SEC

 FILE SIZES:   FILE 1:     8.0 MBYTE,  FILE 4:     8.4 MBYTE,   TOTAL:     16.4 MBYTE

 OPERATOR DM      FOR CENTER  0  COORDINATES:    0.000000    0.000000    0.000000


 **********************************************************************************************************************************
 DATASETS  * FILE   NREC   LENGTH (MB)   RECORD NAMES
              1      19        8.05       500      610      700      900      950      970     1000      129      960     1100   
                                          VAR    BASINP    GEOM    SYMINP    ZMAT    AOBASIS   BASIS     P2S    ABASIS      S 
                                         1400     1410     1200     1210     1080     1600     1650     1300     1700   
                                           T        V       H0       H01     AOSYM     SMH    MOLCAS    ERIS     OPER   

 PROGRAMS   *        TOTAL       INT
 CPU TIMES  *         0.18      0.14
 REAL TIME  *         0.38 SEC
 DISK USED  *        23.62 MB      
 GA USED    *         0.00 MB       (max)       0.00 MB       (current)
 **********************************************************************************************************************************

1PROGRAM * RHF-SCF (CLOSED SHELL)       Authors: W. Meyer, H.-J. Werner


 NUMBER OF ELECTRONS:       9+    9-    SPACE SYMMETRY=1    SPIN SYMMETRY: Singlet 
 CONVERGENCE THRESHOLDS:    1.00E-10 (Density)    1.00E-13 (Energy)
 MAX. NUMBER OF ITERATIONS:      200
 INTERPOLATION TYPE:            DIIS
 INTERPOLATION STEPS:              2 (START)      1 (STEP)
 LEVEL SHIFTS:                  0.00 (CLOSED)  0.00 (OPEN) 



 Orbital guess generated from atomic densities. Full valence occupancy:   14

 Molecular orbital dump at record        2100.2

 ITERATION    DDIFF          GRAD             ENERGY        2-EL.EN.            DIPOLE MOMENTS         DIIS
    1      0.000D+00      0.000D+00      -115.01448978    164.423034   -0.49735   -0.89349   -0.00000    0
    2      0.000D+00      0.110D-01      -115.04278311    162.215415   -0.31685   -0.53370    0.00000    1
    3      0.205D-01      0.528D-02      -115.04877205    163.234317   -0.40013   -0.60786    0.00000    2
    4      0.637D-02      0.112D-02      -115.04923191    163.079047   -0.38963   -0.59719    0.00000    3
    5      0.204D-02      0.200D-03      -115.04925244    163.085409   -0.39227   -0.59301    0.00000    4
    6      0.430D-03      0.348D-04      -115.04925320    163.085533   -0.39252   -0.59283    0.00000    5
    7      0.917D-04      0.716D-05      -115.04925323    163.084366   -0.39264   -0.59267    0.00000    6
    8      0.146D-04      0.231D-05      -115.04925323    163.084737   -0.39267   -0.59264    0.00000    7
    9      0.489D-05      0.476D-06      -115.04925323    163.084696   -0.39268   -0.59264    0.00000    6
   10      0.136D-05      0.822D-07      -115.04925323    163.084695   -0.39268   -0.59264    0.00000    6
   11      0.224D-06      0.308D-07      -115.04925323    163.084700   -0.39268   -0.59264    0.00000    6
   12      0.556D-07      0.124D-07      -115.04925323    163.084699   -0.39268   -0.59264    0.00000    7
   13      0.228D-07      0.280D-08      -115.04925323    163.084699   -0.39268   -0.59264    0.00000    7
   14      0.692D-08      0.617D-09      -115.04925323    163.084699   -0.39268   -0.59264    0.00000    7
   15      0.159D-08      0.140D-09      -115.04925323    163.084699   -0.39268   -0.59264    0.00000    7
   16      0.309D-09      0.414D-10      -115.04925323    163.084699   -0.39268   -0.59264    0.00000    7
   17      0.802D-10      0.148D-10      -115.04925323    163.084699   -0.39268   -0.59264    0.00000    7
   18      0.379D-10      0.272D-11      -115.04925323    163.084699   -0.39268   -0.59264    0.00000    7
   19      0.637D-11      0.594D-12      -115.04925323    163.084699   -0.39268   -0.59264    0.00000    7
   20      0.150D-11      0.258D-12      -115.04925323    163.084699   -0.39268   -0.59264    0.00000    7
   21      0.468D-12      0.622D-13      -115.04925323    163.084699   -0.39268   -0.59264    0.00000    7
   22      0.167D-12      0.166D-13      -115.04925323    163.084699   -0.39268   -0.59264    0.00000    0

 Final occupancy:   9

 !RHF STATE 1.1 Energy               -115.049253232876
 Nuclear energy                        40.33436178
 One-electron energy                 -236.92596446
 Two-electron energy                   81.54234944
 Virial quotient                       -1.00086211
 !RHF STATE 1.1 Dipole moment          -0.39268024    -0.59264466     0.00000199
 Dipole moment /Debye                  -0.99802824    -1.50625381     0.00000506

 Orbital energies:

         1.1          2.1          3.1          4.1          5.1          6.1          7.1          8.1          9.1         10.1
    -20.549596   -11.274895    -1.351218    -0.921676    -0.683829    -0.613756    -0.585463    -0.497028    -0.443172     0.184884

        11.1
      0.224637


 **********************************************************************************************************************************
 DATASETS  * FILE   NREC   LENGTH (MB)   RECORD NAMES
              1      19        8.05       500      610      700      900      950      970     1000      129      960     1100   
                                          VAR    BASINP    GEOM    SYMINP    ZMAT    AOBASIS   BASIS     P2S    ABASIS      S 
                                         1400     1410     1200     1210     1080     1600     1650     1300     1700   
                                           T        V       H0       H01     AOSYM     SMH    MOLCAS    ERIS     OPER   

              2       3        0.39       700     1000     2100   
                                         GEOM     BASIS     RHF  

 PROGRAMS   *        TOTAL       RHF       INT
 CPU TIMES  *         0.27      0.09      0.14
 REAL TIME  *         0.50 SEC
 DISK USED  *        23.62 MB      
 GA USED    *         0.00 MB       (max)       0.00 MB       (current)
 **********************************************************************************************************************************


1PROGRAM * CCSD (Closed-shell coupled cluster)     Authors: C. Hampel, H.-J. Werner, 1991, M. Deegan, P.J. Knowles, 1992


 Convergence thresholds:  THRVAR = 1.00D-08  THRDEN = 1.00D-12

 CCSD(T)     terms to be evaluated (factor= 1.000)


 Number of core orbitals:           2 (   2 )
 Number of closed-shell orbitals:   7 (   7 )
 Number of external orbitals:      39 (  39 )

 Molecular orbitals read from record     2100.2  Type=RHF/CANONICAL (state 1.1)

 Number of N-1 electron functions:               7
 Number of N-2 electron functions:              28
 Number of singly external CSFs:               273
 Number of doubly external CSFs:             37401
 Total number of CSFs:                       37675

 Length of J-op  integral file:               0.00 MB
 Length of K-op  integral file:               0.19 MB
 Length of 3-ext integral record:             0.00 MB

 Memory could be reduced to 0.96 Mwords without degradation in triples

 Integral transformation finished. Total CPU:   0.01 sec, npass=  1  Memory used:   0.66 MW

 Reference energy:                   -115.04925323

 MP2 singlet pair energy:              -0.21851018
 MP2 triplet pair energy:              -0.11977739
 MP2 correlation energy:               -0.33828756
 MP2 total energy:                   -115.38754080

 SCS-MP2 correlation energy:           -0.33674036   (PS=  1.200000  PT=  0.333333)
 SCS-MP2 total energy:               -115.38599360

 ITER.      SQ.NORM     CORR.ENERGY   TOTAL ENERGY   ENERGY CHANGE        DEN1      VAR(S)    VAR(P)  DIIS     TIME
   1      1.10720463    -0.36110715  -115.41036039    -0.02281959    -0.01415958  0.91D-03  0.17D-02  1  1     0.04
   2      1.11570766    -0.36304673  -115.41229996    -0.00193957    -0.00923303  0.20D-04  0.16D-03  2  2     0.08
   3      1.11757657    -0.36317352  -115.41242676    -0.00012680    -0.00119690  0.94D-05  0.85D-05  3  3     0.11
   4      1.11808804    -0.36317205  -115.41242529     0.00000147    -0.00025353  0.33D-06  0.67D-06  4  4     0.14
   5      1.11818532    -0.36317244  -115.41242568    -0.00000039    -0.00003582  0.97D-07  0.49D-07  5  5     0.17
   6      1.11820410    -0.36317111  -115.41242434     0.00000134    -0.00000433  0.15D-07  0.40D-08  6  6     0.21
   7      1.11820875    -0.36317069  -115.41242393     0.00000042    -0.00000034  0.20D-08  0.70D-09  6  1     0.24
   8      1.11820999    -0.36317080  -115.41242403    -0.00000010     0.00000074  0.25D-09  0.70D-10  6  3     0.27
   9      1.11821103    -0.36317067  -115.41242391     0.00000012    -0.00000038  0.12D-10  0.10D-10  6  2     0.31
  10      1.11821096    -0.36317067  -115.41242391    -0.00000000     0.00000007  0.11D-11  0.85D-12  6  5     0.34
  11      1.11821099    -0.36317067  -115.41242391     0.00000000    -0.00000000  0.18D-12  0.49D-13  6  4     0.37
  12      1.11821098    -0.36317067  -115.41242391    -0.00000000     0.00000001  0.18D-13  0.97D-14  6  1     0.40
  13      1.11821098    -0.36317067  -115.41242391    -0.00000000    -0.00000000  0.23D-14  0.91D-15  6  6     0.44
  14      1.11821098    -0.36317067  -115.41242391     0.00000000    -0.00000000  0.22D-15  0.12D-15  6  3     0.47
  15      1.11821098    -0.36317067  -115.41242391    -0.00000000    -0.00000000  0.24D-16  0.16D-16  6  2     0.50
  16      1.11821098    -0.36317067  -115.41242391    -0.00000000    -0.00000000  0.54D-17  0.16D-17  6  5     0.54
  17      1.11821098    -0.36317067  -115.41242391    -0.00000000    -0.00000000  0.52D-18  0.24D-18  6  4     0.57
  18      1.11821098    -0.36317067  -115.41242391     0.00000000    -0.00000000  0.80D-19  0.41D-19  6  1     0.60
  19      1.11821098    -0.36317067  -115.41242391    -0.00000000    -0.00000000  0.89D-20  0.41D-20  6  6     0.63
  20      1.11821098    -0.36317067  -115.41242391     0.00000000     0.00000000  0.12D-20  0.53D-21  6  3     0.66

 Norm of t1 vector:      0.04152639      S-energy:    -0.00000000      T1 diagnostic:  0.00784775
                                                                       D1 diagnostic:  0.01742237


 Total CPU time for triples:      0.16 sec


 RESULTS
 =======

  Reference energy                   -115.049253232876
  CCSD singlet pair energy             -0.254430880720
  CCSD triplet pair energy             -0.108739793920
  CCSD correlation energy              -0.363170674641

  Triples (T) contribution             -0.007722279985
  Total correlation energy             -0.370892954626

  CCSD total energy                  -115.412423907517
  CCSD[T] energy                     -115.420435184391
  CCSD-T energy                      -115.419996693024
 !CCSD(T) total energy               -115.420146187502

 Timing summary (sec):

 STEP                 CPU(USER)    SYS     CPU(TOT)    WALL
 Transformation          0.02      0.00      0.02      0.02
 CCSD iterations         0.64      0.04      0.68      0.71
 Triples                 0.16      0.01      0.17      0.17

 Program statistics:

 Available memory in ccsd:               999999704
 Min. memory needed in ccsd:                136801
 Max. memory used in ccsd:                  163198
 Max. memory used in cckext:                182024 (20 integral passes)



 **********************************************************************************************************************************
 DATASETS  * FILE   NREC   LENGTH (MB)   RECORD NAMES
              1      20       10.59       500      610      700      900      950      970     1000      129      960     1100   
                                          VAR    BASINP    GEOM    SYMINP    ZMAT    AOBASIS   BASIS     P2S    ABASIS      S 
                                         1400     1410     1200     1210     1080     1600     1650     1300     1700     1380   
                                           T        V       H0       H01     AOSYM     SMH    MOLCAS    ERIS     OPER     JKOP   

              2       3        0.39       700     1000     2100   
                                         GEOM     BASIS     RHF  

 PROGRAMS   *        TOTAL   CCSD(T)       RHF       INT
 CPU TIMES  *         1.10      0.83      0.09      0.14
 REAL TIME  *         1.42 SEC
 DISK USED  *        25.05 MB      
 GA USED    *         0.00 MB       (max)       0.00 MB       (current)
 **********************************************************************************************************************************

        CCSD(T)         RHF-SCF 
   -115.42014619   -115.04925323
 **********************************************************************************************************************************
 Variable memory released
