
 Primary working directories    : /tmp/601555.58.gen6.q
 Secondary working directories  : /tmp/601555.58.gen6.q
 Wavefunction directory         : /home/vulcan/mel64643/wfu/
 Main file repository           : /tmp/601555.58.gen6.q/

 ARCHNAME  : Linux/x86_64
 FC        : /opt/intel/compilers_and_libraries_2016.1.150/linux/bin/intel64/ifort
 FCVERSION : 16.0.1
 BLASLIB   : -mkl
 id        : ccgc

 Nodes     nprocs
 n082         1
 ga_uses_ma=false, calling ma_init with nominal heap.
 GA-space will be limited to   8.0 MW (determined by -G option)

 Using customized tuning parameters: mindgm=10; mindgv=16; mindgc=4; mindgr=1; noblas=0; mincuda=1000; minvec=7
 default implementation of scratch files=df  

 ***,Optimization of min3
 memory,1000,m
 gthresh,energy=1.0d-12,orbital=1.0d-10,oneint=1.0d-16,twoint=1.0d-16,optgrad=1.0d-6,compress=1.0d-13
 geomtyp=xyz
 
  bohr
  geometry = {
  6
  arbitrary comment
  C   -1.3748472587   -0.0257921849   -0.0027242565
  O    1.3049742966    0.1203298994    0.0008971008
  H   -2.0783167234    1.9156431118    0.0008506447
  H   -2.1083167413   -0.9809815907    1.6786370916
  H   -2.1084964184   -0.9818189647   -1.6774756320
  H    1.9412786852   -1.5775123908   -0.0001933586
 }
 
 basis=cc-pvdz
 {rhf;maxit,200}
 {ccsd(t);maxit,200}

 Variables initialized (661), CPU time= 0.00 sec
 Commands  initialized (458), CPU time= 0.01 sec, 486 directives.
 Default parameters read. Elapsed time= 0.05 sec

 Checking input...
 Passed
1


                                         ***  PROGRAM SYSTEM MOLPRO  ***
                         Copyright, University College Cardiff Consultants Limited, 2008

                                    Version 2010.1 linked May 16 2016 07:17:05


 **********************************************************************************************************************************
 LABEL *   Optimization of min3                                                          
 Linux-4.4.3/n082(x86_64) 64 bit mpp version                                             DATE: 06-Nov-21          TIME: 15:39:15  
 **********************************************************************************************************************************

 SHA1:             9e8077add272b0f3cad6f7df79ec5211205f459d
 **********************************************************************************************************************************

 THRESHOLDS:

 ZERO    =  1.00D-12  ONEINT  =  1.00D-16  TWOINT  =  1.00D-16  PREFAC  =  1.00D-14  LOCALI  =  1.00D-09  EORDER  =  1.00D-04
 ENERGY  =  1.00D-12  ETEST   =  0.00D+00  EDENS   =  0.00D+00  THRDEDEF=  1.00D-06  GRADIENT=  1.00D-02  STEP    =  1.00D-03
 ORBITAL =  1.00D-10  CIVEC   =  1.00D-05  COEFF   =  1.00D-04  PRINTCI =  5.00D-02  PUNCHCI =  9.90D+01  OPTGRAD =  1.00D-06
 OPTENERG=  1.00D-06  OPTSTEP =  3.00D-04  THRGRAD =  1.00D-10  COMPRESS=  1.00D-13  VARMIN  =  1.00D-07  VARMAX  =  1.00D-03
 THRDOUB =  0.00D+00  THRDIV  =  1.00D-05  THRRED  =  1.00D-07  THRPSP  =  1.00D+00  THRDC   =  1.00D-10  THRCS   =  1.00D-10
 THRNRM  =  1.00D-08  THREQ   =  0.00D+00  THRDE   =  1.00D+00  THRREF  =  1.00D-05  SPARFAC =  1.00D+00  THRDLP  =  1.00D-07
 THRDIA  =  1.00D-10  THRDLS  =  1.00D-07  THRGPS  =  0.00D+00  THRKEX  =  0.00D+00  THRDIS  =  2.00D-01  THRVAR  =  1.00D-10
 THRLOC  =  1.00D-06  THRGAP  =  1.00D-06  THRLOCT = -1.00D+00  THRGAPT = -1.00D+00  THRORB  =  1.00D-06  THRMLTP =  0.00D+00
 THRCPQCI=  1.00D-10  KEXTA   =  0.00D+00  THRCOARS=  0.00D+00  SYMTOL  =  1.00D-06  GRADTOL =  1.00D-06  THROVL  =  1.00D-08
 THRORTH =  1.00D-08  GRID    =  1.00D-06  GRIDMAX =  1.00D-03  DTMAX   =  0.00D+00

 SETTING GEOMTYP        =    XYZ
 ZUNIT=BOHR
 

 Variable memory set to 1000000000 words,  buffer space   230000 words

 SETTING BASIS          =    CC-PVDZ


 Recomputing integrals since basis changed


 Using spherical harmonics

 Library entry C      S cc-pVDZ              selected for orbital group  1
 Library entry C      P cc-pVDZ              selected for orbital group  1
 Library entry C      D cc-pVDZ              selected for orbital group  1
 Library entry O      S cc-pVDZ              selected for orbital group  2
 Library entry O      P cc-pVDZ              selected for orbital group  2
 Library entry O      D cc-pVDZ              selected for orbital group  2
 Library entry H      S cc-pVDZ              selected for orbital group  3
 Library entry H      P cc-pVDZ              selected for orbital group  3

1PROGRAM * SEWARD (Integral evaluation for generally contracted gaussian basis sets)     Author: Roland Lindh, 1990

 Geometry written to block  1 of record 700


 Point group  C1  



 ATOMIC COORDINATES

 NR  ATOM    CHARGE       X              Y              Z

   1  C       6.00   -1.374847259   -0.025792185   -0.002724257
   2  O       8.00    1.304974297    0.120329899    0.000897101
   3  H       1.00   -2.078316723    1.915643112    0.000850645
   4  H       1.00   -2.108316741   -0.980981591    1.678637092
   5  H       1.00   -2.108496418   -0.981818965   -1.677475632
   6  H       1.00    1.941278685   -1.577512391   -0.000193359

 Bond lengths in Bohr (Angstrom)

 1-2  2.683804826  1-3  2.064958372  1-4  2.068173171  1-5  2.063254823  2-6  1.813161026
     ( 1.420208348)     ( 1.092728908)     ( 1.094430106)     ( 1.091827428)     ( 0.959483491)

 Bond angles

  1-2-6  107.42347741   2-1-3  106.79648722   2-1-4  112.22029107   2-1-5  112.41881900

  3-1-4  108.17978132   3-1-5  108.41583935   4-1-5  108.64978003

 NUCLEAR CHARGE:                   18
 NUMBER OF PRIMITIVE AOS:          82
 NUMBER OF SYMMETRY AOS:           80
 NUMBER OF CONTRACTIONS:           48   (  48A   )
 NUMBER OF CORE ORBITALS:           2   (   2A   )
 NUMBER OF VALENCE ORBITALS:       12   (  12A   )


 NUCLEAR REPULSION ENERGY   40.31520089


 Eigenvalues of metric

         1 0.966E-02 0.176E-01 0.369E-01 0.372E-01 0.383E-01 0.473E-01 0.477E-01 0.520E-01


 Contracted 2-electron integrals neglected if value below      1.0D-16
 AO integral compression algorithm  1   Integral accuracy      1.0D-16

     6.816 MB (compressed) written to integral file (100.0%)

     Node minimum: 6.816 MB, node maximum: 6.816 MB


 NUMBER OF SORTED TWO-ELECTRON INTEGRALS:     692076.     BUFFER LENGTH:  32768
 NUMBER OF SEGMENTS:   1  SEGMENT LENGTH:     692076      RECORD LENGTH: 524288

 Memory used in sort:       1.25 MW

 SORT1 READ      832256. AND WROTE      682150. INTEGRALS IN      2 RECORDS. CPU TIME:     0.01 SEC, REAL TIME:     0.01 SEC
 SORT2 READ      682150. AND WROTE      692076. INTEGRALS IN     26 RECORDS. CPU TIME:     0.01 SEC, REAL TIME:     0.02 SEC

 FILE SIZES:   FILE 1:     8.4 MBYTE,  FILE 4:     8.4 MBYTE,   TOTAL:     16.8 MBYTE

 OPERATOR DM      FOR CENTER  0  COORDINATES:    0.000000    0.000000    0.000000


 **********************************************************************************************************************************
 DATASETS  * FILE   NREC   LENGTH (MB)   RECORD NAMES
              1      19        8.40       500      610      700      900      950      970     1000      129      960     1100   
                                          VAR    BASINP    GEOM    SYMINP    ZMAT    AOBASIS   BASIS     P2S    ABASIS      S 
                                         1400     1410     1200     1210     1080     1600     1650     1300     1700   
                                           T        V       H0       H01     AOSYM     SMH    MOLCAS    ERIS     OPER   

 PROGRAMS   *        TOTAL       INT
 CPU TIMES  *         0.18      0.14
 REAL TIME  *         0.38 SEC
 DISK USED  *        24.23 MB      
 GA USED    *         0.00 MB       (max)       0.00 MB       (current)
 **********************************************************************************************************************************

1PROGRAM * RHF-SCF (CLOSED SHELL)       Authors: W. Meyer, H.-J. Werner


 NUMBER OF ELECTRONS:       9+    9-    SPACE SYMMETRY=1    SPIN SYMMETRY: Singlet 
 CONVERGENCE THRESHOLDS:    1.00E-10 (Density)    1.00E-13 (Energy)
 MAX. NUMBER OF ITERATIONS:      200
 INTERPOLATION TYPE:            DIIS
 INTERPOLATION STEPS:              2 (START)      1 (STEP)
 LEVEL SHIFTS:                  0.00 (CLOSED)  0.00 (OPEN) 



 Orbital guess generated from atomic densities. Full valence occupancy:   14

 Molecular orbital dump at record        2100.2

 ITERATION    DDIFF          GRAD             ENERGY        2-EL.EN.            DIPOLE MOMENTS         DIIS
    1      0.000D+00      0.000D+00      -115.01424888    164.402388   -0.49312   -0.90026   -0.00088    0
    2      0.000D+00      0.110D-01      -115.04259873    162.184176   -0.31508   -0.53688   -0.00130    1
    3      0.205D-01      0.530D-02      -115.04862518    163.208522   -0.39866   -0.61243   -0.00171    2
    4      0.639D-02      0.112D-02      -115.04908878    163.052373   -0.38859   -0.60157   -0.00186    3
    5      0.204D-02      0.202D-03      -115.04910978    163.058789   -0.39143   -0.59738   -0.00193    4
    6      0.433D-03      0.355D-04      -115.04911058    163.058931   -0.39174   -0.59720   -0.00194    5
    7      0.930D-04      0.737D-05      -115.04911061    163.057745   -0.39188   -0.59704   -0.00195    6
    8      0.151D-04      0.238D-05      -115.04911061    163.058128   -0.39191   -0.59701   -0.00195    7
    9      0.506D-05      0.492D-06      -115.04911061    163.058086   -0.39193   -0.59701   -0.00195    6
   10      0.142D-05      0.879D-07      -115.04911061    163.058085   -0.39193   -0.59701   -0.00195    6
   11      0.236D-06      0.329D-07      -115.04911061    163.058091   -0.39193   -0.59701   -0.00195    6
   12      0.596D-07      0.137D-07      -115.04911061    163.058089   -0.39193   -0.59701   -0.00195    7
   13      0.255D-07      0.306D-08      -115.04911061    163.058089   -0.39193   -0.59701   -0.00195    7
   14      0.761D-08      0.652D-09      -115.04911061    163.058089   -0.39193   -0.59701   -0.00195    7
   15      0.166D-08      0.151D-09      -115.04911061    163.058089   -0.39193   -0.59701   -0.00195    7
   16      0.337D-09      0.455D-10      -115.04911061    163.058089   -0.39193   -0.59701   -0.00195    7
   17      0.878D-10      0.165D-10      -115.04911061    163.058089   -0.39193   -0.59701   -0.00195    7
   18      0.423D-10      0.284D-11      -115.04911061    163.058089   -0.39193   -0.59701   -0.00195    0

 Final occupancy:   9

 !RHF STATE 1.1 Energy               -115.049110612781
 Nuclear energy                        40.31520089
 One-electron energy                 -236.89335610
 Two-electron energy                   81.52904460
 Virial quotient                       -1.00092225
 !RHF STATE 1.1 Dipole moment          -0.39192857    -0.59701327    -0.00194800
 Dipole moment /Debye                  -0.99611781    -1.51735698    -0.00495101

 Orbital energies:

         1.1          2.1          3.1          4.1          5.1          6.1          7.1          8.1          9.1         10.1
    -20.549944   -11.274706    -1.350112    -0.921146    -0.683192    -0.614002    -0.584425    -0.496953    -0.443154     0.184550

        11.1
      0.224389


 **********************************************************************************************************************************
 DATASETS  * FILE   NREC   LENGTH (MB)   RECORD NAMES
              1      19        8.40       500      610      700      900      950      970     1000      129      960     1100   
                                          VAR    BASINP    GEOM    SYMINP    ZMAT    AOBASIS   BASIS     P2S    ABASIS      S 
                                         1400     1410     1200     1210     1080     1600     1650     1300     1700   
                                           T        V       H0       H01     AOSYM     SMH    MOLCAS    ERIS     OPER   

              2       3        0.39       700     1000     2100   
                                         GEOM     BASIS     RHF  

 PROGRAMS   *        TOTAL       RHF       INT
 CPU TIMES  *         0.26      0.08      0.14
 REAL TIME  *         0.48 SEC
 DISK USED  *        24.23 MB      
 GA USED    *         0.00 MB       (max)       0.00 MB       (current)
 **********************************************************************************************************************************


1PROGRAM * CCSD (Closed-shell coupled cluster)     Authors: C. Hampel, H.-J. Werner, 1991, M. Deegan, P.J. Knowles, 1992


 Convergence thresholds:  THRVAR = 1.00D-08  THRDEN = 1.00D-12

 CCSD(T)     terms to be evaluated (factor= 1.000)


 Number of core orbitals:           2 (   2 )
 Number of closed-shell orbitals:   7 (   7 )
 Number of external orbitals:      39 (  39 )

 Molecular orbitals read from record     2100.2  Type=RHF/CANONICAL (state 1.1)

 Number of N-1 electron functions:               7
 Number of N-2 electron functions:              28
 Number of singly external CSFs:               273
 Number of doubly external CSFs:             37401
 Total number of CSFs:                       37675

 Length of J-op  integral file:               0.00 MB
 Length of K-op  integral file:               0.19 MB
 Length of 3-ext integral record:             0.00 MB

 Memory could be reduced to 0.96 Mwords without degradation in triples

 Integral transformation finished. Total CPU:   0.02 sec, npass=  1  Memory used:   0.66 MW

 Reference energy:                   -115.04911061

 MP2 singlet pair energy:              -0.21864373
 MP2 triplet pair energy:              -0.11983602
 MP2 correlation energy:               -0.33847975
 MP2 total energy:                   -115.38759036

 SCS-MP2 correlation energy:           -0.33693711   (PS=  1.200000  PT=  0.333333)
 SCS-MP2 total energy:               -115.38604772

 ITER.      SQ.NORM     CORR.ENERGY   TOTAL ENERGY   ENERGY CHANGE        DEN1      VAR(S)    VAR(P)  DIIS     TIME
   1      1.10733193    -0.36128157  -115.41039218    -0.02280182    -0.01412212  0.91D-03  0.17D-02  1  1     0.05
   2      1.11585860    -0.36322717  -115.41233779    -0.00194560    -0.00925053  0.20D-04  0.16D-03  2  2     0.08
   3      1.11774039    -0.36335458  -115.41246519    -0.00012741    -0.00120430  0.95D-05  0.86D-05  3  3     0.11
   4      1.11825557    -0.36335327  -115.41246389     0.00000130    -0.00025488  0.33D-06  0.67D-06  4  4     0.14
   5      1.11835366    -0.36335369  -115.41246430    -0.00000042    -0.00003603  0.99D-07  0.49D-07  5  5     0.17
   6      1.11837270    -0.36335233  -115.41246295     0.00000135    -0.00000436  0.16D-07  0.41D-08  6  6     0.21
   7      1.11837745    -0.36335192  -115.41246253     0.00000042    -0.00000035  0.20D-08  0.72D-09  6  1     0.24
   8      1.11837871    -0.36335202  -115.41246263    -0.00000010     0.00000075  0.26D-09  0.72D-10  6  3     0.27
   9      1.11837977    -0.36335189  -115.41246251     0.00000012    -0.00000038  0.13D-10  0.10D-10  6  2     0.30
  10      1.11837970    -0.36335190  -115.41246251    -0.00000000     0.00000007  0.11D-11  0.88D-12  6  5     0.34
  11      1.11837973    -0.36335189  -115.41246251     0.00000000    -0.00000000  0.19D-12  0.50D-13  6  4     0.37
  12      1.11837972    -0.36335190  -115.41246251    -0.00000000     0.00000001  0.19D-13  0.10D-13  6  1     0.40
  13      1.11837972    -0.36335190  -115.41246251    -0.00000000    -0.00000000  0.23D-14  0.94D-15  6  6     0.43
  14      1.11837972    -0.36335190  -115.41246251     0.00000000    -0.00000000  0.22D-15  0.12D-15  6  3     0.47
  15      1.11837972    -0.36335190  -115.41246251    -0.00000000    -0.00000000  0.25D-16  0.16D-16  6  2     0.50
  16      1.11837972    -0.36335190  -115.41246251    -0.00000000    -0.00000000  0.56D-17  0.16D-17  6  5     0.53
  17      1.11837972    -0.36335190  -115.41246251    -0.00000000    -0.00000000  0.55D-18  0.25D-18  6  4     0.56
  18      1.11837972    -0.36335190  -115.41246251     0.00000000    -0.00000000  0.86D-19  0.43D-19  6  1     0.60
  19      1.11837972    -0.36335190  -115.41246251    -0.00000000    -0.00000000  0.10D-19  0.44D-20  6  6     0.63
  20      1.11837972    -0.36335190  -115.41246251     0.00000000     0.00000000  0.16D-20  0.58D-21  6  3     0.66

 Norm of t1 vector:      0.04164307      S-energy:    -0.00000000      T1 diagnostic:  0.00786980
                                                                       D1 diagnostic:  0.01750057


 Total CPU time for triples:      0.16 sec


 RESULTS
 =======

  Reference energy                   -115.049110612781
  CCSD singlet pair energy             -0.254599434164
  CCSD triplet pair energy             -0.108752462321
  CCSD correlation energy              -0.363351896486

  Triples (T) contribution             -0.007736698428
  Total correlation energy             -0.371088594914

  CCSD total energy                  -115.412462509267
  CCSD[T] energy                     -115.420489017342
  CCSD-T energy                      -115.420049328019
 !CCSD(T) total energy               -115.420199207695

 Timing summary (sec):

 STEP                 CPU(USER)    SYS     CPU(TOT)    WALL
 Transformation          0.02      0.00      0.02      0.02
 CCSD iterations         0.65      0.04      0.69      0.71
 Triples                 0.16      0.00      0.16      0.17

 Program statistics:

 Available memory in ccsd:               999999704
 Min. memory needed in ccsd:                136801
 Max. memory used in ccsd:                  163198
 Max. memory used in cckext:                182024 (20 integral passes)



 **********************************************************************************************************************************
 DATASETS  * FILE   NREC   LENGTH (MB)   RECORD NAMES
              1      20       10.93       500      610      700      900      950      970     1000      129      960     1100   
                                          VAR    BASINP    GEOM    SYMINP    ZMAT    AOBASIS   BASIS     P2S    ABASIS      S 
                                         1400     1410     1200     1210     1080     1600     1650     1300     1700     1380   
                                           T        V       H0       H01     AOSYM     SMH    MOLCAS    ERIS     OPER     JKOP   

              2       3        0.39       700     1000     2100   
                                         GEOM     BASIS     RHF  

 PROGRAMS   *        TOTAL   CCSD(T)       RHF       INT
 CPU TIMES  *         1.09      0.83      0.08      0.14
 REAL TIME  *         1.40 SEC
 DISK USED  *        25.66 MB      
 GA USED    *         0.00 MB       (max)       0.00 MB       (current)
 **********************************************************************************************************************************

        CCSD(T)         RHF-SCF 
   -115.42019921   -115.04911061
 **********************************************************************************************************************************
 Variable memory released
