
 Primary working directories    : /tmp/333988.28.gen6.q
 Secondary working directories  : /tmp/333988.28.gen6.q
 Wavefunction directory         : /home/vulcan/mel64643/wfu/
 Main file repository           : /tmp/333988.28.gen6.q/

 ARCHNAME  : Linux/x86_64
 FC        : /opt/intel/compilers_and_libraries_2016.1.150/linux/bin/intel64/ifort
 FCVERSION : 16.0.1
 BLASLIB   : -mkl
 id        : ccgc

 Nodes     nprocs
 n092         3
 Number of processes for MPI-2 version of Molpro:   nprocs(total)=    4   nprocs(compute)=    3   nprocs(helper)=    1
 ga_uses_ma=false, calling ma_init with nominal heap.
 GA-space will be limited to   8.0 MW (determined by -G option)

 Using customized tuning parameters: mindgm=10; mindgv=16; mindgc=4; mindgr=1; noblas=0; mincuda=1000; minvec=7
 default implementation of scratch files=sf  

 ***,Optimization of min3
 memory,1000,m
 gthresh,energy=1.0d-10,orbital=1.0d-10,oneint=1.0d-16,twoint=1.0d-16,optgrad=1.0d-6,compress=1.0d-13
 geomtyp=xyz
 
  bohr
  geometry = {
  12
  arbitrary comment
  C         -3.1025507645          1.5805039654          0.0176655779
  C         -0.8623471153         -0.0598482293         -0.6566638126
  C         -1.1198887926         -2.7833658718          0.2510052280
  O          1.3130402050          1.1016877612          0.5863315930
  O          3.4474396892          0.1214286229         -0.2505336814
  H         -4.8137660929          0.8584422995         -0.8763515294
  H         -2.7870260511          3.5150309395         -0.6193090896
  H         -3.3786845144          1.6012980489          2.0621205764
  H         -0.4663786188          0.0256894618         -2.6787798746
  H         -2.6947275779         -3.6994602850         -0.7179613861
  H         -1.4715634421         -2.8460245625          2.2840086202
  H          0.6035595846         -3.8318472434         -0.1633176048
 }
 
 basis=cc-pvtz
 {rhf;maxit,200}
 {uccsd(t);maxit,200}

 Variables initialized (661), CPU time= 0.00 sec
 Commands  initialized (458), CPU time= 0.01 sec, 486 directives.
 Default parameters read. Elapsed time= 0.05 sec

 Checking input...
 Passed
1


                                         ***  PROGRAM SYSTEM MOLPRO  ***
                         Copyright, University College Cardiff Consultants Limited, 2008

                                    Version 2010.1 linked May 16 2016 07:17:05


 **********************************************************************************************************************************
 LABEL *   Optimization of min3                                                          
 Linux-4.4.3/n092(x86_64) 64 bit mpp version                                             DATE: 15-Jul-20          TIME: 11:13:52  
 **********************************************************************************************************************************

 SHA1:             9e8077add272b0f3cad6f7df79ec5211205f459d
 **********************************************************************************************************************************

 THRESHOLDS:

 ZERO    =  1.00D-12  ONEINT  =  1.00D-16  TWOINT  =  1.00D-16  PREFAC  =  1.00D-14  LOCALI  =  1.00D-09  EORDER  =  1.00D-04
 ENERGY  =  1.00D-10  ETEST   =  0.00D+00  EDENS   =  0.00D+00  THRDEDEF=  1.00D-06  GRADIENT=  1.00D-02  STEP    =  1.00D-03
 ORBITAL =  1.00D-10  CIVEC   =  1.00D-05  COEFF   =  1.00D-04  PRINTCI =  5.00D-02  PUNCHCI =  9.90D+01  OPTGRAD =  1.00D-06
 OPTENERG=  1.00D-06  OPTSTEP =  3.00D-04  THRGRAD =  1.00D-10  COMPRESS=  1.00D-13  VARMIN  =  1.00D-07  VARMAX  =  1.00D-03
 THRDOUB =  0.00D+00  THRDIV  =  1.00D-05  THRRED  =  1.00D-07  THRPSP  =  1.00D+00  THRDC   =  1.00D-10  THRCS   =  1.00D-10
 THRNRM  =  1.00D-08  THREQ   =  0.00D+00  THRDE   =  1.00D+00  THRREF  =  1.00D-05  SPARFAC =  1.00D+00  THRDLP  =  1.00D-07
 THRDIA  =  1.00D-10  THRDLS  =  1.00D-07  THRGPS  =  0.00D+00  THRKEX  =  0.00D+00  THRDIS  =  2.00D-01  THRVAR  =  1.00D-10
 THRLOC  =  1.00D-06  THRGAP  =  1.00D-06  THRLOCT = -1.00D+00  THRGAPT = -1.00D+00  THRORB  =  1.00D-06  THRMLTP =  0.00D+00
 THRCPQCI=  1.00D-10  KEXTA   =  0.00D+00  THRCOARS=  0.00D+00  SYMTOL  =  1.00D-06  GRADTOL =  1.00D-06  THROVL  =  1.00D-08
 THRORTH =  1.00D-08  GRID    =  1.00D-06  GRIDMAX =  1.00D-03  DTMAX   =  0.00D+00

 SETTING GEOMTYP        =    XYZ
 ZUNIT=BOHR
 

 Variable memory set to 1000000000 words,  buffer space   230000 words

 SETTING BASIS          =    CC-PVTZ


 Recomputing integrals since basis changed


 Using spherical harmonics

 Library entry C      S cc-pVTZ              selected for orbital group  1
 Library entry C      P cc-pVTZ              selected for orbital group  1
 Library entry C      D cc-pVTZ              selected for orbital group  1
 Library entry C      F cc-pVTZ              selected for orbital group  1
 Library entry O      S cc-pVTZ              selected for orbital group  2
 Library entry O      P cc-pVTZ              selected for orbital group  2
 Library entry O      D cc-pVTZ              selected for orbital group  2
 Library entry O      F cc-pVTZ              selected for orbital group  2
 Library entry H      S cc-pVTZ              selected for orbital group  3
 Library entry H      P cc-pVTZ              selected for orbital group  3
 Library entry H      D cc-pVTZ              selected for orbital group  3

1PROGRAM * SEWARD (Integral evaluation for generally contracted gaussian basis sets)     Author: Roland Lindh, 1990

 Geometry written to block  1 of record 700


 Point group  C1  



 ATOMIC COORDINATES

 NR  ATOM    CHARGE       X              Y              Z

   1  C       6.00   -3.102550765    1.580503965    0.017665578
   2  C       6.00   -0.862347115   -0.059848229   -0.656663813
   3  C       6.00   -1.119888793   -2.783365872    0.251005228
   4  O       8.00    1.313040205    1.101687761    0.586331593
   5  O       8.00    3.447439689    0.121428623   -0.250533681
   6  H       1.00   -4.813766093    0.858442299   -0.876351529
   7  H       1.00   -2.787026051    3.515030939   -0.619309090
   8  H       1.00   -3.378684514    1.601298049    2.062120576
   9  H       1.00   -0.466378619    0.025689462   -2.678779875
  10  H       1.00   -2.694727578   -3.699460285   -0.717961386
  11  H       1.00   -1.471563442   -2.846024562    2.284008620
  12  H       1.00    0.603559585   -3.831847243   -0.163317605

 Bond lengths in Bohr (Angstrom)

 1-2  2.857269298  1-6  2.061285409  1-7  2.060991797  1-8  2.063123477  2-3  2.882314895
     ( 1.512001792)     ( 1.090785260)     ( 1.090629887)     ( 1.091757924)     ( 1.525255351)

  2- 4  2.761614280   2- 9  2.062295109   3-10  2.063550938   3-11  2.064147273   3-12  2.059429752
       ( 1.461383337)       ( 1.091319570)       ( 1.091984126)       ( 1.092299693)       ( 1.089803289)

 4-5  2.493373743
     ( 1.319436558)

 Bond angles

  1-2-3  113.45901427   1-2-4  105.65907649   1-2-9  110.98558221   2-1-6  110.32950911

  2- 1- 7  110.23670668   2- 1- 8  110.15695803   2- 3-10  109.86490719   2- 3-11  110.73614621

  2- 3-12  110.05572212   2- 4- 5  110.97052189   3- 2- 4  109.03058486   3- 2- 9  111.41510786

  4-2-9  105.82125915   6-1-7  108.77483293   6-1-8  108.79677126   7-1-8  108.49945136

 10- 3-11  108.60115926  10- 3-12  108.55287659  11- 3-12  108.98199848

 NUCLEAR CHARGE:                   41
 NUMBER OF PRIMITIVE AOS:         354
 NUMBER OF SYMMETRY AOS:          322
 NUMBER OF CONTRACTIONS:          248   ( 248A   )
 NUMBER OF CORE ORBITALS:           5   (   5A   )
 NUMBER OF VALENCE ORBITALS:       27   (  27A   )


 NUCLEAR REPULSION ENERGY  186.68631669


 Eigenvalues of metric

         1 0.815E-03 0.961E-03 0.111E-02 0.124E-02 0.137E-02 0.151E-02 0.159E-02 0.164E-02


 Contracted 2-electron integrals neglected if value below      1.0D-16
 AO integral compression algorithm  1   Integral accuracy      1.0D-16

     3370.910 MB (compressed) written to integral file ( 82.1%)

     Node minimum: 1105.199 MB, node maximum: 1147.929 MB


 NUMBER OF SORTED TWO-ELECTRON INTEGRALS:  158903334.     BUFFER LENGTH:  32768
 NUMBER OF SEGMENTS:  10  SEGMENT LENGTH:   15997437      RECORD LENGTH: 524288

 Memory used in sort:      16.55 MW

 SORT1 READ   513525527. AND WROTE   152637738. INTEGRALS IN    442 RECORDS. CPU TIME:     6.22 SEC, REAL TIME:     7.26 SEC
 SORT2 READ   459408160. AND WROTE   476679126. INTEGRALS IN  12792 RECORDS. CPU TIME:     1.27 SEC, REAL TIME:     2.72 SEC

 Node minimum:   158882750.  Node maximum:   158903334. integrals

 OPERATOR DM      FOR CENTER  0  COORDINATES:    0.000000    0.000000    0.000000


 **********************************************************************************************************************************
 DATASETS  * FILE   NREC   LENGTH (MB)   RECORD NAMES
              1      18        5.04       500      610      700      900      950      970     1000      129      960     1100   
                                          VAR    BASINP    GEOM    SYMINP    ZMAT    AOBASIS   BASIS     P2S    ABASIS      S 
                                         1400     1410     1200     1210     1080     1600     1650     1700   
                                           T        V       H0       H01     AOSYM     SMH    MOLCAS    OPER   

 PROGRAMS   *        TOTAL       INT
 CPU TIMES  *        13.48     13.42
 REAL TIME  *        16.63 SEC
 DISK USED  *         8.83 GB      
 GA USED    *         0.01 MB       (max)       0.00 MB       (current)
 **********************************************************************************************************************************

1PROGRAM * RHF-SCF (OPEN SHELL)       Authors: W. Meyer, H.-J. Werner


 NUMBER OF ELECTRONS:      21+   20-    SPACE SYMMETRY=1    SPIN SYMMETRY: Doublet 
 CONVERGENCE THRESHOLDS:    1.00E-10 (Density)    1.00E-11 (Energy)
 MAX. NUMBER OF ITERATIONS:      200
 INTERPOLATION TYPE:            DIIS
 INTERPOLATION STEPS:              2 (START)      1 (STEP)
 LEVEL SHIFTS:                 -0.30 (CLOSED)  0.00 (OPEN) 



 Orbital guess generated from atomic densities. Full valence occupancy:   32

 Molecular orbital dump at record        2100.2

 ITERATION    DDIFF          GRAD             ENERGY        2-EL.EN.            DIPOLE MOMENTS         DIIS
    1      0.000D+00      0.000D+00      -267.26135219    559.889318   -1.76748   -0.05533   -0.09826    0
    2      0.000D+00      0.327D-02      -267.33515483    562.747292   -1.01458   -0.41819   -0.35561    1
    3      0.471D-02      0.229D-02      -267.36149912    561.701391   -1.18623   -0.23294   -0.21524    2
    4      0.211D-02      0.545D-03      -267.36964731    561.887138   -0.97633   -0.30589   -0.29534    3
    5      0.922D-03      0.481D-03      -267.37380639    561.929420   -0.92127   -0.30873   -0.29957    4
    6      0.580D-03      0.269D-03      -267.37569987    561.897004   -0.87939   -0.30266   -0.29779    5
    7      0.481D-03      0.132D-03      -267.37603680    561.883475   -0.88814   -0.29167   -0.29011    6
    8      0.258D-03      0.350D-04      -267.37605811    561.880300   -0.88797   -0.28814   -0.28848    7
    9      0.840D-04      0.187D-04      -267.37606888    561.880596   -0.89039   -0.28873   -0.28856    8
   10      0.446D-04      0.809D-05      -267.37607067    561.880568   -0.89142   -0.28814   -0.28832    9
   11      0.197D-04      0.321D-05      -267.37607091    561.880484   -0.89207   -0.28796   -0.28814    9
   12      0.775D-05      0.144D-05      -267.37607097    561.880691   -0.89222   -0.28804   -0.28817    9
   13      0.361D-05      0.521D-06      -267.37607098    561.880756   -0.89222   -0.28811   -0.28821    9
   14      0.147D-05      0.295D-06      -267.37607098    561.880749   -0.89221   -0.28812   -0.28821    9
   15      0.797D-06      0.140D-06      -267.37607098    561.880753   -0.89221   -0.28813   -0.28821    9
   16      0.400D-06      0.742D-07      -267.37607098    561.880757   -0.89220   -0.28813   -0.28821    9
   17      0.158D-06      0.321D-07      -267.37607098    561.880751   -0.89220   -0.28813   -0.28821    9
   18      0.102D-06      0.185D-07      -267.37607098    561.880749   -0.89220   -0.28813   -0.28821    9
   19      0.563D-07      0.892D-08      -267.37607098    561.880750   -0.89220   -0.28813   -0.28821    9
   20      0.352D-07      0.562D-08      -267.37607098    561.880750   -0.89220   -0.28813   -0.28821    9
   21      0.296D-07      0.482D-08      -267.37607098    561.880749   -0.89220   -0.28813   -0.28821    9
   22      0.324D-07      0.401D-08      -267.37607098    561.880749   -0.89220   -0.28813   -0.28821    9
   23      0.468D-07      0.297D-08      -267.37607098    561.880749   -0.89220   -0.28813   -0.28821    9
   24      0.517D-07      0.206D-08      -267.37607098    561.880748   -0.89220   -0.28813   -0.28821    9
   25      0.437D-07      0.816D-09      -267.37607098    561.880748   -0.89220   -0.28813   -0.28821    9
   26      0.119D-07      0.416D-09      -267.37607098    561.880748   -0.89220   -0.28813   -0.28821    9
   27      0.498D-08      0.172D-09      -267.37607098    561.880748   -0.89220   -0.28813   -0.28821    9
   28      0.905D-09      0.706D-10      -267.37607098    561.880748   -0.89220   -0.28813   -0.28821    9
   29      0.227D-09      0.358D-10      -267.37607098    561.880748   -0.89220   -0.28813   -0.28821    9
   30      0.139D-09      0.169D-10      -267.37607098    561.880748   -0.89220   -0.28813   -0.28821    9
   31      0.405D-10      0.123D-10      -267.37607098    561.880748   -0.89220   -0.28813   -0.28821    0

 Final alpha occupancy:  21
 Final beta  occupancy:  20

 !RHF STATE 1.1 Energy               -267.376070981685
 Nuclear energy                       186.68631669
 One-electron energy                 -735.00276185
 Two-electron energy                  280.94037418
 Virial quotient                       -1.00115589
 !RHF STATE 1.1 Dipole moment          -0.89220171    -0.28812713    -0.28821105
 Dipole moment /Debye                  -2.26760202    -0.73229816    -0.73251144

 Orbital energies:

         1.1          2.1          3.1          4.1          5.1          6.1          7.1          8.1          9.1         10.1
    -20.648768   -20.640862   -11.297523   -11.228673   -11.225752    -1.526407    -1.171632    -1.033506    -0.952486    -0.820040

        11.1         12.1         13.1         14.1         15.1         16.1         17.1         18.1         19.1         20.1
     -0.696166    -0.668918    -0.653367    -0.595102    -0.563724    -0.557633    -0.544587    -0.500968    -0.488947    -0.465028

        21.1         22.1         23.1
     -0.561835     0.137722     0.174435


 **********************************************************************************************************************************
 DATASETS  * FILE   NREC   LENGTH (MB)   RECORD NAMES
              1      18        5.04       500      610      700      900      950      970     1000      129      960     1100   
                                          VAR    BASINP    GEOM    SYMINP    ZMAT    AOBASIS   BASIS     P2S    ABASIS      S 
                                         1400     1410     1200     1210     1080     1600     1650     1700   
                                           T        V       H0       H01     AOSYM     SMH    MOLCAS    OPER   

              2       3        2.21       700     1000     2100   
                                         GEOM     BASIS     RHF  

 PROGRAMS   *        TOTAL       RHF       INT
 CPU TIMES  *        58.10     44.62     13.42
 REAL TIME  *        64.97 SEC
 DISK USED  *         8.87 GB      
 SF USED    *         0.25 MB      
 GA USED    *         0.01 MB       (max)       0.00 MB       (current)
 **********************************************************************************************************************************


1PROGRAM * CCSD (Unrestricted open-shell coupled cluster)     Authors: C. Hampel, H.-J. Werner, 1991, M. Deegan, P.J. Knowles, 1992


 Convergence thresholds:  THRVAR = 1.00D-08  THRDEN = 1.00D-10

 CCSD(T)     terms to be evaluated (factor= 1.000)


 Number of core orbitals:           5 (   5 )
 Number of closed-shell orbitals:  15 (  15 )
 Number of active  orbitals:        1 (   1 )
 Number of external orbitals:     227 ( 227 )

 Memory could be reduced to 332.02 Mwords without degradation in triples

 Number of N-1 electron functions:              31
 Number of N-2 electron functions:             465
 Number of singly external CSFs:              7068
 Number of doubly external CSFs:          18353430
 Total number of CSFs:                    18360498

 Molecular orbitals read from record     2100.2  Type=RHF/CANONICAL (state 1.1)

 Integral transformation finished. Total CPU:  26.77 sec, npass=  1  Memory used: 145.25 MW

 Starting RMP2 calculation

 ITER.      SQ.NORM     CORR.ENERGY   TOTAL ENERGY   ENERGY CHANGE        DEN1      VAR(S)    VAR(P)  DIIS     TIME
   1      1.26515439    -0.96745145  -268.34352243    -0.96745145    -0.00323184  0.27D-04  0.11D-02  1  1    31.36
   2      1.26793339    -0.97093593  -268.34700691    -0.00348449    -0.00000664  0.10D-05  0.23D-05  2  2    34.41
   3      1.26801310    -0.97098873  -268.34705971    -0.00005280    -0.00000008  0.54D-07  0.11D-07  3  3    37.63
   4      1.26801483    -0.97098856  -268.34705954     0.00000017    -0.00000000  0.16D-08  0.12D-09  4  4    41.00
   5      1.26801509    -0.97098865  -268.34705963    -0.00000009    -0.00000000  0.19D-10  0.46D-11  5  5    44.53
   6      1.26801515    -0.97098868  -268.34705966    -0.00000003    -0.00000000  0.51D-13  0.56D-13  6  6    48.23
   7      1.26801515    -0.97098868  -268.34705966     0.00000000    -0.00000000  0.15D-14  0.85D-15  6  1    51.58
   8      1.26801515    -0.97098868  -268.34705966     0.00000000    -0.00000000  0.16D-16  0.79D-17  6  2    55.01
   9      1.26801515    -0.97098868  -268.34705966    -0.00000000    -0.00000000  0.32D-18  0.10D-18  6  3    58.44

 Norm of t1 vector:      0.04599586      S-energy:    -0.00448143      T1 diagnostic:  0.00074657
 Norm of t2 vector:      0.51565447      P-energy:    -0.96650725
                                         Alpha-Beta:  -0.73692214
                                         Alpha-Alpha: -0.11895020
                                         Beta-Beta:   -0.11063491

 Spin contamination <S**2-Sz**2-Sz>     0.00145826
  Reference energy                   -267.376070981686
  RHF-RMP2 correlation energy          -0.970988677418
 !RHF-RMP2 energy                    -268.347059659103

 Starting UCCSD calculation

 ITER.      SQ.NORM     CORR.ENERGY   TOTAL ENERGY   ENERGY CHANGE        DEN1      VAR(S)    VAR(P)  DIIS     TIME
   1      1.27965087    -0.97916510  -268.35523608    -0.97916510    -0.02927530  0.65D-02  0.54D-02  1  1   134.96
   2      1.30599196    -1.00575655  -268.38182753    -0.02659145    -0.00361669  0.61D-03  0.96D-03  2  2   211.83
   3      1.32254746    -1.01256022  -268.38863120    -0.00680367    -0.00090314  0.74D-03  0.75D-04  3  3   288.76
   4      1.33369835    -1.01520658  -268.39127757    -0.00264636    -0.00037953  0.30D-03  0.32D-04  4  4   371.78
   5      1.34853848    -1.01717892  -268.39324990    -0.00197234    -0.00011559  0.99D-04  0.88D-05  5  5   448.64
   6      1.35979309    -1.01818108  -268.39425206    -0.00100216    -0.00001776  0.91D-05  0.31D-05  6  6   526.09
   7      1.36340679    -1.01841794  -268.39448893    -0.00023686    -0.00000309  0.16D-05  0.59D-06  6  1   603.44
   8      1.36399162    -1.01845893  -268.39452991    -0.00004098    -0.00000065  0.26D-06  0.15D-06  6  2   680.80
   9      1.36430220    -1.01847691  -268.39454789    -0.00001798    -0.00000014  0.64D-07  0.31D-07  6  4   757.94
  10      1.36428971    -1.01847572  -268.39454670     0.00000119    -0.00000002  0.10D-07  0.41D-08  6  3   835.28
  11      1.36434908    -1.01848054  -268.39455152    -0.00000483    -0.00000000  0.22D-08  0.90D-09  6  5   912.52
  12      1.36433022    -1.01847667  -268.39454766     0.00000387    -0.00000000  0.68D-09  0.16D-09  6  2   989.93
  13      1.36432585    -1.01847585  -268.39454683     0.00000082    -0.00000000  0.39D-09  0.43D-10  6  6  1067.15
  14      1.36431992    -1.01847503  -268.39454601     0.00000082    -0.00000000  0.28D-09  0.18D-10  6  1  1144.61
  15      1.36431774    -1.01847471  -268.39454570     0.00000032    -0.00000000  0.24D-09  0.11D-10  6  4  1221.81
  16      1.36431962    -1.01847496  -268.39454594    -0.00000024    -0.00000000  0.17D-09  0.93D-11  6  3  1299.22
  17      1.36432263    -1.01847533  -268.39454631    -0.00000037    -0.00000000  0.85D-10  0.90D-11  6  5  1376.69
  18      1.36432422    -1.01847537  -268.39454636    -0.00000005    -0.00000000  0.30D-10  0.41D-11  6  2  1453.89
  19      1.36432450    -1.01847547  -268.39454645    -0.00000009    -0.00000000  0.66D-11  0.13D-11  6  1  1531.24
  20      1.36432339    -1.01847530  -268.39454628     0.00000017    -0.00000000  0.22D-11  0.55D-12  6  2  1608.74
  21      1.36432205    -1.01847517  -268.39454615     0.00000013    -0.00000000  0.37D-12  0.13D-12  6  6  1686.07
  22      1.36432161    -1.01847513  -268.39454611     0.00000004    -0.00000000  0.64D-13  0.33D-13  6  4  1763.53
  23      1.36432142    -1.01847511  -268.39454609     0.00000002    -0.00000000  0.21D-13  0.67D-14  6  5  1841.09
  24      1.36432143    -1.01847511  -268.39454609    -0.00000000    -0.00000000  0.59D-14  0.13D-14  6  3  1918.58
  25      1.36432142    -1.01847511  -268.39454609     0.00000000    -0.00000000  0.29D-14  0.43D-15  6  5  1995.66
  26      1.36432143    -1.01847511  -268.39454609    -0.00000000    -0.00000000  0.40D-15  0.13D-15  6  2  2072.82
  27      1.36432144    -1.01847511  -268.39454609    -0.00000000    -0.00000000  0.10D-15  0.46D-16  6  1  2150.92
  28      1.36432144    -1.01847511  -268.39454609    -0.00000000    -0.00000000  0.36D-16  0.44D-17  6  6  2244.12

 Norm of t1 vector:      0.22977556      S-energy:    -0.00502113      T1 diagnostic:  0.02830555
                                                                       D1 diagnostic:  0.14498345
 Norm of t2 vector:      0.55814392      P-energy:    -1.01345398
                                         Alpha-Beta:  -0.80116320
                                         Alpha-Alpha: -0.10866938
                                         Beta-Beta:   -0.10362140

 Singles amplitudes (print threshold =  0.500E-01):

         I         SYM. A    A   T(IA) [Beta-Beta]

         8         1         1     -0.09660519
         9         1         1      0.09875093
        12         1         1     -0.07530156
        14         1         1     -0.11085904

 Spin contamination <S**2-Sz**2-Sz>     0.00174813

 Memory could be reduced to 360.52 Mwords without degradation in triples
 

 RESULTS
 =======

  Reference energy                   -267.376070981686
  UCCSD singles energy                 -0.005021132708
  UCCSD pair energy                    -1.013453980108
  UCCSD correlation energy             -1.018475112816
  Triples (T) contribution             -0.040771070170
  Total correlation energy             -1.059246182985
 
  RHF-UCCSD energy                   -268.394546094501
  RHF-UCCSD[T] energy                -268.438589737258
  RHF-UCCSD-T energy                 -268.434822324146
 !RHF-UCCSD(T) energy                -268.435317164671

 Program statistics:

 Available memory in ccsd:               999997692
 Min. memory needed in ccsd:              51505734
 Max. memory used in ccsd:                74803578
 Max. memory used in cckext:              59475747 (28 integral passes)
 Max. memory used in cckint:             145249478 ( 1 integral passes)



 **********************************************************************************************************************************
 DATASETS  * FILE   NREC   LENGTH (MB)   RECORD NAMES
              1      18        5.04       500      610      700      900      950      970     1000      129      960     1100   
                                          VAR    BASINP    GEOM    SYMINP    ZMAT    AOBASIS   BASIS     P2S    ABASIS      S 
                                         1400     1410     1200     1210     1080     1600     1650     1700   
                                           T        V       H0       H01     AOSYM     SMH    MOLCAS    OPER   

              2       3        2.21       700     1000     2100   
                                         GEOM     BASIS     RHF  

 PROGRAMS   *        TOTAL  UCCSD(T)       RHF       INT
 CPU TIMES  *      3781.20   3723.10     44.62     13.42
 REAL TIME  *      3863.35 SEC
 DISK USED  *        15.85 GB      
 SF USED    *         6.57 GB      
 GA USED    *         0.01 MB       (max)       0.00 MB       (current)
 **********************************************************************************************************************************

        UCCSD(T)        RHF-SCF 
   -268.43531716   -267.37607098
 **********************************************************************************************************************************
 Variable memory released
