
 Primary working directories    : /tmp/795519.9.gen4.q
 Secondary working directories  : /tmp/795519.9.gen4.q
 Wavefunction directory         : /home/vulcan/mel64643/wfu/
 Main file repository           : /tmp/795519.9.gen4.q/

 ARCHNAME  : Linux/x86_64
 FC        : /opt/intel/compilers_and_libraries_2016.1.150/linux/bin/intel64/ifort
 FCVERSION : 16.0.1
 BLASLIB   : -mkl
 id        : ccgc

 Nodes     nprocs
 n049         1
 ga_uses_ma=false, calling ma_init with nominal heap.
 GA-space will be limited to   8.0 MW (determined by -G option)

 Using customized tuning parameters: mindgm=10; mindgv=16; mindgc=4; mindgr=1; noblas=0; mincuda=1000; minvec=7
 default implementation of scratch files=df  

 ***,Optimization of min3
 memory,1000,m
 gthresh,energy=1.0d-12,orbital=1.0d-10,oneint=1.0d-16,twoint=1.0d-16,optgrad=1.0d-6,compress=1.0d-13
 geomtyp=xyz
 
  bohr
  geometry = {
  6
  arbitrary comment
  C   -1.3758639437   -0.0217777814   -0.0011334172
  O    1.3060704438    0.1199191070   -0.0042769167
  H   -2.0777727872    1.9093702638    0.0019433246
  H   -2.1093019680   -0.9806289643    1.6818107601
  H   -2.1080684573   -0.9796251798   -1.6816378789
  H    1.9412125524   -1.5773895654    0.0032857180
 }
 
 basis=cc-pvdz
 {rhf;maxit,200}
 {ccsd(t);maxit,200}

 Variables initialized (661), CPU time= 0.00 sec
 Commands  initialized (458), CPU time= 0.00 sec, 486 directives.
 Default parameters read. Elapsed time= 0.05 sec

 Checking input...
 Passed
1


                                         ***  PROGRAM SYSTEM MOLPRO  ***
                         Copyright, University College Cardiff Consultants Limited, 2008

                                    Version 2010.1 linked May 16 2016 07:17:05


 **********************************************************************************************************************************
 LABEL *   Optimization of min3                                                          
 Linux-4.4.3/n049(x86_64) 64 bit mpp version                                             DATE: 24-Oct-22          TIME: 15:40:36  
 **********************************************************************************************************************************

 SHA1:             9e8077add272b0f3cad6f7df79ec5211205f459d
 **********************************************************************************************************************************

 THRESHOLDS:

 ZERO    =  1.00D-12  ONEINT  =  1.00D-16  TWOINT  =  1.00D-16  PREFAC  =  1.00D-14  LOCALI  =  1.00D-09  EORDER  =  1.00D-04
 ENERGY  =  1.00D-12  ETEST   =  0.00D+00  EDENS   =  0.00D+00  THRDEDEF=  1.00D-06  GRADIENT=  1.00D-02  STEP    =  1.00D-03
 ORBITAL =  1.00D-10  CIVEC   =  1.00D-05  COEFF   =  1.00D-04  PRINTCI =  5.00D-02  PUNCHCI =  9.90D+01  OPTGRAD =  1.00D-06
 OPTENERG=  1.00D-06  OPTSTEP =  3.00D-04  THRGRAD =  1.00D-10  COMPRESS=  1.00D-13  VARMIN  =  1.00D-07  VARMAX  =  1.00D-03
 THRDOUB =  0.00D+00  THRDIV  =  1.00D-05  THRRED  =  1.00D-07  THRPSP  =  1.00D+00  THRDC   =  1.00D-10  THRCS   =  1.00D-10
 THRNRM  =  1.00D-08  THREQ   =  0.00D+00  THRDE   =  1.00D+00  THRREF  =  1.00D-05  SPARFAC =  1.00D+00  THRDLP  =  1.00D-07
 THRDIA  =  1.00D-10  THRDLS  =  1.00D-07  THRGPS  =  0.00D+00  THRKEX  =  0.00D+00  THRDIS  =  2.00D-01  THRVAR  =  1.00D-10
 THRLOC  =  1.00D-06  THRGAP  =  1.00D-06  THRLOCT = -1.00D+00  THRGAPT = -1.00D+00  THRORB  =  1.00D-06  THRMLTP =  0.00D+00
 THRCPQCI=  1.00D-10  KEXTA   =  0.00D+00  THRCOARS=  0.00D+00  SYMTOL  =  1.00D-06  GRADTOL =  1.00D-06  THROVL  =  1.00D-08
 THRORTH =  1.00D-08  GRID    =  1.00D-06  GRIDMAX =  1.00D-03  DTMAX   =  0.00D+00

 SETTING GEOMTYP        =    XYZ
 ZUNIT=BOHR
 

 Variable memory set to 1000000000 words,  buffer space   230000 words

 SETTING BASIS          =    CC-PVDZ


 Recomputing integrals since basis changed


 Using spherical harmonics

 Library entry C      S cc-pVDZ              selected for orbital group  1
 Library entry C      P cc-pVDZ              selected for orbital group  1
 Library entry C      D cc-pVDZ              selected for orbital group  1
 Library entry O      S cc-pVDZ              selected for orbital group  2
 Library entry O      P cc-pVDZ              selected for orbital group  2
 Library entry O      D cc-pVDZ              selected for orbital group  2
 Library entry H      S cc-pVDZ              selected for orbital group  3
 Library entry H      P cc-pVDZ              selected for orbital group  3

1PROGRAM * SEWARD (Integral evaluation for generally contracted gaussian basis sets)     Author: Roland Lindh, 1990

 Geometry written to block  1 of record 700


 Point group  C1  



 ATOMIC COORDINATES

 NR  ATOM    CHARGE       X              Y              Z

   1  C       6.00   -1.375863944   -0.021777781   -0.001133417
   2  O       8.00    1.306070444    0.119919107   -0.004276917
   3  H       1.00   -2.077772787    1.909370264    0.001943325
   4  H       1.00   -2.109301968   -0.980628964    1.681810760
   5  H       1.00   -2.108068457   -0.979625180   -1.681637879
   6  H       1.00    1.941212552   -1.577389565    0.003285718

 Bond lengths in Bohr (Angstrom)

 1-2  2.685676814  1-3  2.054755037  1-4  2.071141721  1-5  2.068257802  2-6  1.812269136
     ( 1.421198961)     ( 1.087329536)     ( 1.096000996)     ( 1.094474891)     ( 0.959011523)

 Bond angles

  1-2-6  107.49131464   2-1-3  106.95027171   2-1-4  112.27212215   2-1-5  112.14858540

  3-1-4  108.23541643   3-1-5  108.39348048   4-1-5  108.69068059

 NUCLEAR CHARGE:                   18
 NUMBER OF PRIMITIVE AOS:          82
 NUMBER OF SYMMETRY AOS:           80
 NUMBER OF CONTRACTIONS:           48   (  48A   )
 NUMBER OF CORE ORBITALS:           2   (   2A   )
 NUMBER OF VALENCE ORBITALS:       12   (  12A   )


 NUCLEAR REPULSION ENERGY   40.30610024


 Eigenvalues of metric

         1 0.966E-02 0.177E-01 0.368E-01 0.375E-01 0.380E-01 0.475E-01 0.478E-01 0.515E-01


 Contracted 2-electron integrals neglected if value below      1.0D-16
 AO integral compression algorithm  1   Integral accuracy      1.0D-16

     6.816 MB (compressed) written to integral file (100.0%)

     Node minimum: 6.816 MB, node maximum: 6.816 MB


 NUMBER OF SORTED TWO-ELECTRON INTEGRALS:     692076.     BUFFER LENGTH:  32768
 NUMBER OF SEGMENTS:   1  SEGMENT LENGTH:     692076      RECORD LENGTH: 524288

 Memory used in sort:       1.25 MW

 SORT1 READ      832256. AND WROTE      682150. INTEGRALS IN      2 RECORDS. CPU TIME:     0.01 SEC, REAL TIME:     0.02 SEC
 SORT2 READ      682150. AND WROTE      692076. INTEGRALS IN     26 RECORDS. CPU TIME:     0.01 SEC, REAL TIME:     0.02 SEC

 FILE SIZES:   FILE 1:     8.4 MBYTE,  FILE 4:     8.4 MBYTE,   TOTAL:     16.8 MBYTE

 OPERATOR DM      FOR CENTER  0  COORDINATES:    0.000000    0.000000    0.000000


 **********************************************************************************************************************************
 DATASETS  * FILE   NREC   LENGTH (MB)   RECORD NAMES
              1      19        8.43       500      610      700      900      950      970     1000      129      960     1100   
                                          VAR    BASINP    GEOM    SYMINP    ZMAT    AOBASIS   BASIS     P2S    ABASIS      S 
                                         1400     1410     1200     1210     1080     1600     1650     1300     1700   
                                           T        V       H0       H01     AOSYM     SMH    MOLCAS    ERIS     OPER   

 PROGRAMS   *        TOTAL       INT
 CPU TIMES  *         0.22      0.17
 REAL TIME  *         0.41 SEC
 DISK USED  *        24.27 MB      
 GA USED    *         0.00 MB       (max)       0.00 MB       (current)
 **********************************************************************************************************************************

1PROGRAM * RHF-SCF (CLOSED SHELL)       Authors: W. Meyer, H.-J. Werner


 NUMBER OF ELECTRONS:       9+    9-    SPACE SYMMETRY=1    SPIN SYMMETRY: Singlet 
 CONVERGENCE THRESHOLDS:    1.00E-10 (Density)    1.00E-13 (Energy)
 MAX. NUMBER OF ITERATIONS:      200
 INTERPOLATION TYPE:            DIIS
 INTERPOLATION STEPS:              2 (START)      1 (STEP)
 LEVEL SHIFTS:                  0.00 (CLOSED)  0.00 (OPEN) 



 Orbital guess generated from atomic densities. Full valence occupancy:   14

 Molecular orbital dump at record        2100.2

 ITERATION    DDIFF          GRAD             ENERGY        2-EL.EN.            DIPOLE MOMENTS         DIIS
    1      0.000D+00      0.000D+00      -115.01424556    164.385775   -0.49612   -0.90024    0.00566    0
    2      0.000D+00      0.110D-01      -115.04260555    162.166744   -0.31719   -0.53503    0.00295    1
    3      0.205D-01      0.530D-02      -115.04863744    163.191619   -0.40095   -0.60974    0.00333    2
    4      0.639D-02      0.112D-02      -115.04910055    163.035616   -0.39080   -0.59855    0.00318    3
    5      0.204D-02      0.202D-03      -115.04912149    163.042002   -0.39360   -0.59421    0.00312    4
    6      0.432D-03      0.353D-04      -115.04912228    163.042172   -0.39391   -0.59399    0.00312    5
    7      0.928D-04      0.734D-05      -115.04912231    163.040979   -0.39404   -0.59383    0.00311    6
    8      0.149D-04      0.237D-05      -115.04912231    163.041359   -0.39407   -0.59380    0.00311    7
    9      0.503D-05      0.487D-06      -115.04912231    163.041319   -0.39409   -0.59380    0.00311    6
   10      0.140D-05      0.864D-07      -115.04912231    163.041318   -0.39409   -0.59380    0.00311    6
   11      0.233D-06      0.322D-07      -115.04912231    163.041323   -0.39409   -0.59380    0.00311    6
   12      0.583D-07      0.134D-07      -115.04912231    163.041322   -0.39409   -0.59380    0.00311    7
   13      0.249D-07      0.300D-08      -115.04912231    163.041322   -0.39409   -0.59380    0.00311    7
   14      0.746D-08      0.642D-09      -115.04912231    163.041322   -0.39409   -0.59380    0.00311    7
   15      0.164D-08      0.148D-09      -115.04912231    163.041322   -0.39409   -0.59380    0.00311    7
   16      0.329D-09      0.445D-10      -115.04912231    163.041322   -0.39409   -0.59380    0.00311    7
   17      0.859D-10      0.160D-10      -115.04912231    163.041322   -0.39409   -0.59380    0.00311    7
   18      0.410D-10      0.294D-11      -115.04912231    163.041322   -0.39409   -0.59380    0.00311    7
   19      0.685D-11      0.624D-12      -115.04912231    163.041322   -0.39409   -0.59380    0.00311    0

 Final occupancy:   9

 !RHF STATE 1.1 Energy               -115.049122309672
 Nuclear energy                        40.30610024
 One-electron energy                 -236.87588342
 Two-electron energy                   81.52066087
 Virial quotient                       -1.00091911
 !RHF STATE 1.1 Dipole moment          -0.39408917    -0.59379909     0.00311461
 Dipole moment /Debye                  -1.00160915    -1.50918790     0.00791604

 Orbital energies:

         1.1          2.1          3.1          4.1          5.1          6.1          7.1          8.1          9.1         10.1
    -20.549782   -11.274716    -1.349759    -0.921433    -0.682778    -0.613412    -0.585175    -0.497292    -0.442934     0.184573

        11.1
      0.224463


 **********************************************************************************************************************************
 DATASETS  * FILE   NREC   LENGTH (MB)   RECORD NAMES
              1      19        8.43       500      610      700      900      950      970     1000      129      960     1100   
                                          VAR    BASINP    GEOM    SYMINP    ZMAT    AOBASIS   BASIS     P2S    ABASIS      S 
                                         1400     1410     1200     1210     1080     1600     1650     1300     1700   
                                           T        V       H0       H01     AOSYM     SMH    MOLCAS    ERIS     OPER   

              2       3        0.39       700     1000     2100   
                                         GEOM     BASIS     RHF  

 PROGRAMS   *        TOTAL       RHF       INT
 CPU TIMES  *         0.31      0.09      0.17
 REAL TIME  *         0.53 SEC
 DISK USED  *        24.27 MB      
 GA USED    *         0.00 MB       (max)       0.00 MB       (current)
 **********************************************************************************************************************************


1PROGRAM * CCSD (Closed-shell coupled cluster)     Authors: C. Hampel, H.-J. Werner, 1991, M. Deegan, P.J. Knowles, 1992


 Convergence thresholds:  THRVAR = 1.00D-08  THRDEN = 1.00D-12

 CCSD(T)     terms to be evaluated (factor= 1.000)


 Number of core orbitals:           2 (   2 )
 Number of closed-shell orbitals:   7 (   7 )
 Number of external orbitals:      39 (  39 )

 Molecular orbitals read from record     2100.2  Type=RHF/CANONICAL (state 1.1)

 Number of N-1 electron functions:               7
 Number of N-2 electron functions:              28
 Number of singly external CSFs:               273
 Number of doubly external CSFs:             37401
 Total number of CSFs:                       37675

 Length of J-op  integral file:               0.00 MB
 Length of K-op  integral file:               0.19 MB
 Length of 3-ext integral record:             0.00 MB

 Memory could be reduced to 0.96 Mwords without degradation in triples

 Integral transformation finished. Total CPU:   0.02 sec, npass=  1  Memory used:   0.66 MW

 Reference energy:                   -115.04912231

 MP2 singlet pair energy:              -0.21862753
 MP2 triplet pair energy:              -0.11981997
 MP2 correlation energy:               -0.33844750
 MP2 total energy:                   -115.38756981

 SCS-MP2 correlation energy:           -0.33690768   (PS=  1.200000  PT=  0.333333)
 SCS-MP2 total energy:               -115.38602999

 ITER.      SQ.NORM     CORR.ENERGY   TOTAL ENERGY   ENERGY CHANGE        DEN1      VAR(S)    VAR(P)  DIIS     TIME
   1      1.10731462    -0.36124993  -115.41037224    -0.02280243    -0.01412323  0.91D-03  0.17D-02  1  1     0.06
   2      1.11583919    -0.36319485  -115.41231716    -0.00194492    -0.00924945  0.20D-04  0.16D-03  2  2     0.09
   3      1.11772029    -0.36332219  -115.41244450    -0.00012734    -0.00120390  0.95D-05  0.86D-05  3  3     0.13
   4      1.11823561    -0.36332083  -115.41244314     0.00000136    -0.00025497  0.34D-06  0.67D-06  4  4     0.17
   5      1.11833391    -0.36332123  -115.41244354    -0.00000040    -0.00003610  0.10D-06  0.49D-07  5  5     0.21
   6      1.11835305    -0.36331987  -115.41244218     0.00000136    -0.00000438  0.16D-07  0.41D-08  6  6     0.25
   7      1.11835782    -0.36331945  -115.41244176     0.00000042    -0.00000035  0.20D-08  0.72D-09  6  1     0.29
   8      1.11835910    -0.36331955  -115.41244186    -0.00000010     0.00000075  0.26D-09  0.73D-10  6  3     0.32
   9      1.11836016    -0.36331943  -115.41244174     0.00000012    -0.00000038  0.13D-10  0.10D-10  6  2     0.36
  10      1.11836009    -0.36331943  -115.41244174    -0.00000000     0.00000007  0.11D-11  0.88D-12  6  5     0.40
  11      1.11836012    -0.36331943  -115.41244174     0.00000000    -0.00000000  0.19D-12  0.51D-13  6  4     0.44
  12      1.11836011    -0.36331943  -115.41244174    -0.00000000     0.00000001  0.19D-13  0.10D-13  6  1     0.48
  13      1.11836011    -0.36331943  -115.41244174    -0.00000000    -0.00000000  0.24D-14  0.94D-15  6  6     0.52
  14      1.11836011    -0.36331943  -115.41244174     0.00000000    -0.00000000  0.22D-15  0.12D-15  6  3     0.56
  15      1.11836011    -0.36331943  -115.41244174    -0.00000000    -0.00000000  0.26D-16  0.17D-16  6  2     0.60
  16      1.11836011    -0.36331943  -115.41244174    -0.00000000    -0.00000000  0.58D-17  0.16D-17  6  5     0.63
  17      1.11836011    -0.36331943  -115.41244174    -0.00000000    -0.00000000  0.58D-18  0.26D-18  6  4     0.68
  18      1.11836011    -0.36331943  -115.41244174     0.00000000    -0.00000000  0.93D-19  0.44D-19  6  1     0.71
  19      1.11836011    -0.36331943  -115.41244174    -0.00000000    -0.00000000  0.12D-19  0.46D-20  6  6     0.75
  20      1.11836011    -0.36331943  -115.41244174     0.00000000     0.00000000  0.20D-20  0.65D-21  6  3     0.79

 Norm of t1 vector:      0.04166392      S-energy:    -0.00000000      T1 diagnostic:  0.00787374
                                                                       D1 diagnostic:  0.01753497


 Total CPU time for triples:      0.21 sec


 RESULTS
 =======

  Reference energy                   -115.049122309673
  CCSD singlet pair energy             -0.254579557298
  CCSD triplet pair energy             -0.108739871050
  CCSD correlation energy              -0.363319428348

  Triples (T) contribution             -0.007735849488
  Total correlation energy             -0.371055277836

  CCSD total energy                  -115.412441738021
  CCSD[T] energy                     -115.420467519081
  CCSD-T energy                      -115.420027630527
 !CCSD(T) total energy               -115.420177587509

 Timing summary (sec):

 STEP                 CPU(USER)    SYS     CPU(TOT)    WALL
 Transformation          0.02      0.00      0.02      0.03
 CCSD iterations         0.77      0.04      0.81      0.83
 Triples                 0.21      0.00      0.21      0.21

 Program statistics:

 Available memory in ccsd:               999999704
 Min. memory needed in ccsd:                136801
 Max. memory used in ccsd:                  163198
 Max. memory used in cckext:                182024 (20 integral passes)



 **********************************************************************************************************************************
 DATASETS  * FILE   NREC   LENGTH (MB)   RECORD NAMES
              1      20       10.96       500      610      700      900      950      970     1000      129      960     1100   
                                          VAR    BASINP    GEOM    SYMINP    ZMAT    AOBASIS   BASIS     P2S    ABASIS      S 
                                         1400     1410     1200     1210     1080     1600     1650     1300     1700     1380   
                                           T        V       H0       H01     AOSYM     SMH    MOLCAS    ERIS     OPER     JKOP   

              2       3        0.39       700     1000     2100   
                                         GEOM     BASIS     RHF  

 PROGRAMS   *        TOTAL   CCSD(T)       RHF       INT
 CPU TIMES  *         1.32      1.01      0.09      0.17
 REAL TIME  *         1.63 SEC
 DISK USED  *        25.69 MB      
 GA USED    *         0.00 MB       (max)       0.00 MB       (current)
 **********************************************************************************************************************************

        CCSD(T)         RHF-SCF 
   -115.42017759   -115.04912231
 **********************************************************************************************************************************
 Variable memory released
