
 Primary working directories    : /tmp/795519.76.gen4.q
 Secondary working directories  : /tmp/795519.76.gen4.q
 Wavefunction directory         : /home/vulcan/mel64643/wfu/
 Main file repository           : /tmp/795519.76.gen4.q/

 ARCHNAME  : Linux/x86_64
 FC        : /opt/intel/compilers_and_libraries_2016.1.150/linux/bin/intel64/ifort
 FCVERSION : 16.0.1
 BLASLIB   : -mkl
 id        : ccgc

 Nodes     nprocs
 n022         1
 ga_uses_ma=false, calling ma_init with nominal heap.
 GA-space will be limited to   8.0 MW (determined by -G option)

 Using customized tuning parameters: mindgm=10; mindgv=16; mindgc=4; mindgr=1; noblas=0; mincuda=1000; minvec=7
 default implementation of scratch files=df  

 ***,Optimization of min3
 memory,1000,m
 gthresh,energy=1.0d-12,orbital=1.0d-10,oneint=1.0d-16,twoint=1.0d-16,optgrad=1.0d-6,compress=1.0d-13
 geomtyp=xyz
 
  bohr
  geometry = {
  6
  arbitrary comment
  C   -1.3752982831   -0.0227674815    0.0011339946
  O    1.3070468490    0.1210649157    0.0042798526
  H   -2.0774163690    1.9035744063   -0.0021024539
  H   -2.1089559995   -0.9766378755    1.6858085526
  H   -2.1101715093   -0.9779079971   -1.6858364190
  H    1.9410711518   -1.5774580880   -0.0032919369
 }
 
 basis=cc-pvdz
 {rhf;maxit,200}
 {ccsd(t);maxit,200}

 Variables initialized (661), CPU time= 0.01 sec
 Commands  initialized (458), CPU time= 0.00 sec, 486 directives.
 Default parameters read. Elapsed time= 0.05 sec

 Checking input...
 Passed
1


                                         ***  PROGRAM SYSTEM MOLPRO  ***
                         Copyright, University College Cardiff Consultants Limited, 2008

                                    Version 2010.1 linked May 16 2016 07:17:05


 **********************************************************************************************************************************
 LABEL *   Optimization of min3                                                          
 Linux-4.4.3/n022(x86_64) 64 bit mpp version                                             DATE: 24-Oct-22          TIME: 15:42:21  
 **********************************************************************************************************************************

 SHA1:             9e8077add272b0f3cad6f7df79ec5211205f459d
 **********************************************************************************************************************************

 THRESHOLDS:

 ZERO    =  1.00D-12  ONEINT  =  1.00D-16  TWOINT  =  1.00D-16  PREFAC  =  1.00D-14  LOCALI  =  1.00D-09  EORDER  =  1.00D-04
 ENERGY  =  1.00D-12  ETEST   =  0.00D+00  EDENS   =  0.00D+00  THRDEDEF=  1.00D-06  GRADIENT=  1.00D-02  STEP    =  1.00D-03
 ORBITAL =  1.00D-10  CIVEC   =  1.00D-05  COEFF   =  1.00D-04  PRINTCI =  5.00D-02  PUNCHCI =  9.90D+01  OPTGRAD =  1.00D-06
 OPTENERG=  1.00D-06  OPTSTEP =  3.00D-04  THRGRAD =  1.00D-10  COMPRESS=  1.00D-13  VARMIN  =  1.00D-07  VARMAX  =  1.00D-03
 THRDOUB =  0.00D+00  THRDIV  =  1.00D-05  THRRED  =  1.00D-07  THRPSP  =  1.00D+00  THRDC   =  1.00D-10  THRCS   =  1.00D-10
 THRNRM  =  1.00D-08  THREQ   =  0.00D+00  THRDE   =  1.00D+00  THRREF  =  1.00D-05  SPARFAC =  1.00D+00  THRDLP  =  1.00D-07
 THRDIA  =  1.00D-10  THRDLS  =  1.00D-07  THRGPS  =  0.00D+00  THRKEX  =  0.00D+00  THRDIS  =  2.00D-01  THRVAR  =  1.00D-10
 THRLOC  =  1.00D-06  THRGAP  =  1.00D-06  THRLOCT = -1.00D+00  THRGAPT = -1.00D+00  THRORB  =  1.00D-06  THRMLTP =  0.00D+00
 THRCPQCI=  1.00D-10  KEXTA   =  0.00D+00  THRCOARS=  0.00D+00  SYMTOL  =  1.00D-06  GRADTOL =  1.00D-06  THROVL  =  1.00D-08
 THRORTH =  1.00D-08  GRID    =  1.00D-06  GRIDMAX =  1.00D-03  DTMAX   =  0.00D+00

 SETTING GEOMTYP        =    XYZ
 ZUNIT=BOHR
 

 Variable memory set to 1000000000 words,  buffer space   230000 words

 SETTING BASIS          =    CC-PVDZ


 Recomputing integrals since basis changed


 Using spherical harmonics

 Library entry C      S cc-pVDZ              selected for orbital group  1
 Library entry C      P cc-pVDZ              selected for orbital group  1
 Library entry C      D cc-pVDZ              selected for orbital group  1
 Library entry O      S cc-pVDZ              selected for orbital group  2
 Library entry O      P cc-pVDZ              selected for orbital group  2
 Library entry O      D cc-pVDZ              selected for orbital group  2
 Library entry H      S cc-pVDZ              selected for orbital group  3
 Library entry H      P cc-pVDZ              selected for orbital group  3

1PROGRAM * SEWARD (Integral evaluation for generally contracted gaussian basis sets)     Author: Roland Lindh, 1990

 Geometry written to block  1 of record 700


 Point group  C1  



 ATOMIC COORDINATES

 NR  ATOM    CHARGE       X              Y              Z

   1  C       6.00   -1.375298283   -0.022767481    0.001133995
   2  O       8.00    1.307046849    0.121064916    0.004279853
   3  H       1.00   -2.077416369    1.903574406   -0.002102454
   4  H       1.00   -2.108956000   -0.976637876    1.685808553
   5  H       1.00   -2.110171509   -0.977907997   -1.685836419
   6  H       1.00    1.941071152   -1.577458088   -0.003291937

 Bond lengths in Bohr (Angstrom)

 1-2  2.686200488  1-3  2.050310550  1-4  2.070326240  1-5  2.073210370  2-6  1.813015318
     ( 1.421476077)     ( 1.084977614)     ( 1.095569461)     ( 1.097095677)     ( 0.959406386)

 Bond angles

  1-2-6  107.39975610   2-1-3  106.95662665   2-1-4  112.18365101   2-1-5  112.30730719

  3-1-4  108.22864107   3-1-5  108.07021597   4-1-5  108.92039010

 NUCLEAR CHARGE:                   18
 NUMBER OF PRIMITIVE AOS:          82
 NUMBER OF SYMMETRY AOS:           80
 NUMBER OF CONTRACTIONS:           48   (  48A   )
 NUMBER OF CORE ORBITALS:           2   (   2A   )
 NUMBER OF VALENCE ORBITALS:       12   (  12A   )


 NUCLEAR REPULSION ENERGY   40.30047455


 Eigenvalues of metric

         1 0.966E-02 0.176E-01 0.366E-01 0.376E-01 0.380E-01 0.475E-01 0.479E-01 0.514E-01


 Contracted 2-electron integrals neglected if value below      1.0D-16
 AO integral compression algorithm  1   Integral accuracy      1.0D-16

     6.816 MB (compressed) written to integral file (100.0%)

     Node minimum: 6.816 MB, node maximum: 6.816 MB


 NUMBER OF SORTED TWO-ELECTRON INTEGRALS:     692076.     BUFFER LENGTH:  32768
 NUMBER OF SEGMENTS:   1  SEGMENT LENGTH:     692076      RECORD LENGTH: 524288

 Memory used in sort:       1.25 MW

 SORT1 READ      832256. AND WROTE      682150. INTEGRALS IN      2 RECORDS. CPU TIME:     0.01 SEC, REAL TIME:     0.02 SEC
 SORT2 READ      682150. AND WROTE      692076. INTEGRALS IN     26 RECORDS. CPU TIME:     0.01 SEC, REAL TIME:     0.02 SEC

 FILE SIZES:   FILE 1:     8.4 MBYTE,  FILE 4:     8.4 MBYTE,   TOTAL:     16.8 MBYTE

 OPERATOR DM      FOR CENTER  0  COORDINATES:    0.000000    0.000000    0.000000


 **********************************************************************************************************************************
 DATASETS  * FILE   NREC   LENGTH (MB)   RECORD NAMES
              1      19        8.43       500      610      700      900      950      970     1000      129      960     1100   
                                          VAR    BASINP    GEOM    SYMINP    ZMAT    AOBASIS   BASIS     P2S    ABASIS      S 
                                         1400     1410     1200     1210     1080     1600     1650     1300     1700   
                                           T        V       H0       H01     AOSYM     SMH    MOLCAS    ERIS     OPER   

 PROGRAMS   *        TOTAL       INT
 CPU TIMES  *         0.34      0.27
 REAL TIME  *         0.51 SEC
 DISK USED  *        24.27 MB      
 GA USED    *         0.00 MB       (max)       0.00 MB       (current)
 **********************************************************************************************************************************

1PROGRAM * RHF-SCF (CLOSED SHELL)       Authors: W. Meyer, H.-J. Werner


 NUMBER OF ELECTRONS:       9+    9-    SPACE SYMMETRY=1    SPIN SYMMETRY: Singlet 
 CONVERGENCE THRESHOLDS:    1.00E-10 (Density)    1.00E-13 (Energy)
 MAX. NUMBER OF ITERATIONS:      200
 INTERPOLATION TYPE:            DIIS
 INTERPOLATION STEPS:              2 (START)      1 (STEP)
 LEVEL SHIFTS:                  0.00 (CLOSED)  0.00 (OPEN) 



 Orbital guess generated from atomic densities. Full valence occupancy:   14

 Molecular orbital dump at record        2100.2

 ITERATION    DDIFF          GRAD             ENERGY        2-EL.EN.            DIPOLE MOMENTS         DIIS
    1      0.000D+00      0.000D+00      -115.01418990    164.373827   -0.49681   -0.90110   -0.00567    0
    2      0.000D+00      0.110D-01      -115.04255605    162.155476   -0.31766   -0.53435   -0.00295    1
    3      0.205D-01      0.530D-02      -115.04859196    163.180279   -0.40150   -0.60912   -0.00334    2
    4      0.639D-02      0.112D-02      -115.04905552    163.024205   -0.39130   -0.59776   -0.00318    3
    5      0.204D-02      0.202D-03      -115.04907652    163.030610   -0.39412   -0.59337   -0.00313    4
    6      0.433D-03      0.354D-04      -115.04907731    163.030774   -0.39442   -0.59315   -0.00312    5
    7      0.930D-04      0.735D-05      -115.04907734    163.029582   -0.39455   -0.59298   -0.00312    6
    8      0.150D-04      0.237D-05      -115.04907734    163.029963   -0.39458   -0.59295   -0.00312    7
    9      0.502D-05      0.487D-06      -115.04907734    163.029923   -0.39460   -0.59295   -0.00312    6
   10      0.140D-05      0.863D-07      -115.04907734    163.029921   -0.39460   -0.59295   -0.00312    6
   11      0.232D-06      0.321D-07      -115.04907734    163.029927   -0.39460   -0.59295   -0.00312    6
   12      0.582D-07      0.134D-07      -115.04907734    163.029925   -0.39460   -0.59295   -0.00312    7
   13      0.249D-07      0.299D-08      -115.04907734    163.029925   -0.39460   -0.59295   -0.00312    7
   14      0.744D-08      0.643D-09      -115.04907734    163.029925   -0.39460   -0.59295   -0.00312    7
   15      0.165D-08      0.148D-09      -115.04907734    163.029925   -0.39460   -0.59295   -0.00312    7
   16      0.329D-09      0.446D-10      -115.04907734    163.029925   -0.39460   -0.59295   -0.00312    7
   17      0.862D-10      0.160D-10      -115.04907734    163.029925   -0.39460   -0.59295   -0.00312    7
   18      0.410D-10      0.294D-11      -115.04907734    163.029925   -0.39460   -0.59295   -0.00312    7
   19      0.685D-11      0.623D-12      -115.04907734    163.029925   -0.39460   -0.59295   -0.00312    0

 Final occupancy:   9

 !RHF STATE 1.1 Energy               -115.049077344269
 Nuclear energy                        40.30047455
 One-electron energy                 -236.86451452
 Two-electron energy                   81.51496263
 Virial quotient                       -1.00092782
 !RHF STATE 1.1 Dipole moment          -0.39460041    -0.59294869    -0.00312028
 Dipole moment /Debye                  -1.00290852    -1.50702653    -0.00793045

 Orbital energies:

         1.1          2.1          3.1          4.1          5.1          6.1          7.1          8.1          9.1         10.1
    -20.549944   -11.274704    -1.349670    -0.921475    -0.682419    -0.613412    -0.585370    -0.497234    -0.443067     0.184584

        11.1
      0.224415


 **********************************************************************************************************************************
 DATASETS  * FILE   NREC   LENGTH (MB)   RECORD NAMES
              1      19        8.43       500      610      700      900      950      970     1000      129      960     1100   
                                          VAR    BASINP    GEOM    SYMINP    ZMAT    AOBASIS   BASIS     P2S    ABASIS      S 
                                         1400     1410     1200     1210     1080     1600     1650     1300     1700   
                                           T        V       H0       H01     AOSYM     SMH    MOLCAS    ERIS     OPER   

              2       3        0.39       700     1000     2100   
                                         GEOM     BASIS     RHF  

 PROGRAMS   *        TOTAL       RHF       INT
 CPU TIMES  *         0.44      0.10      0.27
 REAL TIME  *         0.65 SEC
 DISK USED  *        24.27 MB      
 GA USED    *         0.00 MB       (max)       0.00 MB       (current)
 **********************************************************************************************************************************


1PROGRAM * CCSD (Closed-shell coupled cluster)     Authors: C. Hampel, H.-J. Werner, 1991, M. Deegan, P.J. Knowles, 1992


 Convergence thresholds:  THRVAR = 1.00D-08  THRDEN = 1.00D-12

 CCSD(T)     terms to be evaluated (factor= 1.000)


 Number of core orbitals:           2 (   2 )
 Number of closed-shell orbitals:   7 (   7 )
 Number of external orbitals:      39 (  39 )

 Molecular orbitals read from record     2100.2  Type=RHF/CANONICAL (state 1.1)

 Number of N-1 electron functions:               7
 Number of N-2 electron functions:              28
 Number of singly external CSFs:               273
 Number of doubly external CSFs:             37401
 Total number of CSFs:                       37675

 Length of J-op  integral file:               0.00 MB
 Length of K-op  integral file:               0.19 MB
 Length of 3-ext integral record:             0.00 MB

 Memory could be reduced to 0.96 Mwords without degradation in triples

 Integral transformation finished. Total CPU:   0.03 sec, npass=  1  Memory used:   0.66 MW

 Reference energy:                   -115.04907734

 MP2 singlet pair energy:              -0.21865380
 MP2 triplet pair energy:              -0.11983810
 MP2 correlation energy:               -0.33849190
 MP2 total energy:                   -115.38756924

 SCS-MP2 correlation energy:           -0.33695048   (PS=  1.200000  PT=  0.333333)
 SCS-MP2 total energy:               -115.38602783

 ITER.      SQ.NORM     CORR.ENERGY   TOTAL ENERGY   ENERGY CHANGE        DEN1      VAR(S)    VAR(P)  DIIS     TIME
   1      1.10734225    -0.36128889  -115.41036623    -0.02279699    -0.01411348  0.91D-03  0.17D-02  1  1     0.07
   2      1.11587101    -0.36323415  -115.41231150    -0.00194526    -0.00925228  0.20D-04  0.16D-03  2  2     0.12
   3      1.11775481    -0.36336161  -115.41243895    -0.00012745    -0.00120533  0.95D-05  0.86D-05  3  3     0.17
   4      1.11827096    -0.36336021  -115.41243756     0.00000139    -0.00025534  0.34D-06  0.68D-06  4  4     0.22
   5      1.11836947    -0.36336061  -115.41243795    -0.00000040    -0.00003618  0.10D-06  0.49D-07  5  5     0.27
   6      1.11838865    -0.36335925  -115.41243659     0.00000136    -0.00000439  0.16D-07  0.41D-08  6  6     0.32
   7      1.11839343    -0.36335883  -115.41243617     0.00000042    -0.00000035  0.20D-08  0.73D-09  6  1     0.37
   8      1.11839471    -0.36335893  -115.41243627    -0.00000010     0.00000075  0.26D-09  0.73D-10  6  3     0.42
   9      1.11839578    -0.36335881  -115.41243615     0.00000012    -0.00000038  0.13D-10  0.10D-10  6  2     0.47
  10      1.11839570    -0.36335881  -115.41243615    -0.00000000     0.00000007  0.11D-11  0.88D-12  6  5     0.52
  11      1.11839574    -0.36335881  -115.41243615     0.00000000    -0.00000000  0.19D-12  0.51D-13  6  4     0.56
  12      1.11839572    -0.36335881  -115.41243615    -0.00000000     0.00000001  0.19D-13  0.10D-13  6  1     0.61
  13      1.11839572    -0.36335881  -115.41243615    -0.00000000    -0.00000000  0.24D-14  0.94D-15  6  6     0.66
  14      1.11839572    -0.36335881  -115.41243615     0.00000000    -0.00000000  0.22D-15  0.12D-15  6  3     0.71
  15      1.11839572    -0.36335881  -115.41243615    -0.00000000    -0.00000000  0.26D-16  0.17D-16  6  2     0.76
  16      1.11839572    -0.36335881  -115.41243615    -0.00000000    -0.00000000  0.58D-17  0.17D-17  6  5     0.81
  17      1.11839572    -0.36335881  -115.41243615    -0.00000000    -0.00000000  0.58D-18  0.26D-18  6  4     0.85
  18      1.11839572    -0.36335881  -115.41243615     0.00000000    -0.00000000  0.93D-19  0.45D-19  6  1     0.90
  19      1.11839572    -0.36335881  -115.41243615    -0.00000000    -0.00000000  0.12D-19  0.46D-20  6  6     0.95
  20      1.11839572    -0.36335881  -115.41243615     0.00000000     0.00000000  0.20D-20  0.66D-21  6  3     1.00

 Norm of t1 vector:      0.04170035      S-energy:    -0.00000000      T1 diagnostic:  0.00788063
                                                                       D1 diagnostic:  0.01753923


 Total CPU time for triples:      0.25 sec


 RESULTS
 =======

  Reference energy                   -115.049077344269
  CCSD singlet pair energy             -0.254609711051
  CCSD triplet pair energy             -0.108749096538
  CCSD correlation energy              -0.363358807590

  Triples (T) contribution             -0.007740663884
  Total correlation energy             -0.371099471474

  CCSD total energy                  -115.412436151859
  CCSD[T] energy                     -115.420467178781
  CCSD-T energy                      -115.420026663765
 !CCSD(T) total energy               -115.420176815743

 Timing summary (sec):

 STEP                 CPU(USER)    SYS     CPU(TOT)    WALL
 Transformation          0.03      0.00      0.03      0.03
 CCSD iterations         0.97      0.05      1.02      1.06
 Triples                 0.25      0.00      0.25      0.25

 Program statistics:

 Available memory in ccsd:               999999704
 Min. memory needed in ccsd:                136801
 Max. memory used in ccsd:                  163198
 Max. memory used in cckext:                182024 (20 integral passes)



 **********************************************************************************************************************************
 DATASETS  * FILE   NREC   LENGTH (MB)   RECORD NAMES
              1      20       10.96       500      610      700      900      950      970     1000      129      960     1100   
                                          VAR    BASINP    GEOM    SYMINP    ZMAT    AOBASIS   BASIS     P2S    ABASIS      S 
                                         1400     1410     1200     1210     1080     1600     1650     1300     1700     1380   
                                           T        V       H0       H01     AOSYM     SMH    MOLCAS    ERIS     OPER     JKOP   

              2       3        0.39       700     1000     2100   
                                         GEOM     BASIS     RHF  

 PROGRAMS   *        TOTAL   CCSD(T)       RHF       INT
 CPU TIMES  *         1.70      1.26      0.10      0.27
 REAL TIME  *         2.02 SEC
 DISK USED  *        25.69 MB      
 GA USED    *         0.00 MB       (max)       0.00 MB       (current)
 **********************************************************************************************************************************

        CCSD(T)         RHF-SCF 
   -115.42017682   -115.04907734
 **********************************************************************************************************************************
 Variable memory released
