
 Working directory              : /scratch/mel64643/tmp/40073454/
 Global scratch directory       : /scratch/mel64643/tmp/40073454/
 Wavefunction directory         : /home/mel64643/wfu/
 Main file repository           : /scratch/mel64643/tmp/40073454/

 id        : ccgc

 Nodes     nprocs
 a1-8         3
 Distribution of processes:   nprocs(total)=    4   nprocs(compute)=    3   nprocs(helper)=    1
 GA implementation: MPI file
 GA implementation (serial work in mppx): MPI file

 Using customized tuning parameters: mindgm=1; mindgv=20; mindgc=4; mindgr=1; noblas=0; minvec=7
 default implementation of scratch files=sf  


 Variables initialized (1015), CPU time= 0.01 sec
 ***,Optimization of min3
 memory,1000,m
 gthresh,energy=1.0d-12,orbital=1.0d-10,oneint=1.0d-16,twoint=1.0d-16,optgrad=1.0d-6,compress=1.0d-13
 geomtyp=xyz
 
  bohr
  geometry = {
  6
  arbitrary comment
  C   -1.3752453088   -0.0215836700    0.0000002338
  O    1.3071679256    0.1208247859    0.0000002632
  H   -2.0757379612    1.8976974598   -0.0000794159
  H   -2.1104139342   -0.9753899239    1.6902634363
  H   -2.1104069169   -0.9755218370   -1.6901916180
  H    1.9409120356   -1.5761589349   -0.0000013094
 }
 
 basis=cc-pvdz
 {rhf;maxit,200}
 {ccsd(t);maxit,200}
 Commands initialized (818), CPU time= 0.01 sec, 672 directives.
 Default parameters read. Elapsed time= 0.11 sec

 Checking input...
 Passed
1


                                         ***  PROGRAM SYSTEM MOLPRO  ***
                                       Copyright, TTI GmbH Stuttgart, 2015
                                    Version 2022.1 linked Mar  4 2022 00:40:14


 **********************************************************************************************************************************
 LABEL *   Optimization of min3                                                          
  64 bit mpp version                                                                     DATE: 07-Aug-25          TIME: 21:27:36  
 **********************************************************************************************************************************

 SHA1:             31073afc4d8441e10870424e0d77336a33bc4286
 **********************************************************************************************************************************

 Memory per process:      1000 MW
 Total memory per node:   3000 MW

 GA preallocation disabled
 GA check disabled

 Variable memory set to 1000.0 MW


 THRESHOLDS:

 ZERO    =  1.00D-12  ONEINT  =  1.00D-16  TWOINT  =  1.00D-16  PREFAC  =  1.00D-14  XXXXXX  =  1.00D-09  EORDER  =  1.00D-04
 ENERGY  =  1.00D-12  ETEST   =  0.00D+00  EDENS   =  0.00D+00  THRDEDEF=  1.00D-06  GRADIENT=  1.00D-05  STEP    =  1.00D-03
 ORBITAL =  1.00D-10  CIVEC   =  1.00D-05  COEFF   =  1.00D-04  PRINTCI =  5.00D-02  PUNCHCI =  9.90D+01  OPTGRAD =  1.00D-06
 OPTENERG=  1.00D-06  OPTSTEP =  3.00D-04  THRGRAD =  1.00D-10  COMPRESS=  1.00D-13  VARMIN  =  1.00D-07  VARMAX  =  1.00D-03
 THRDOUB =  0.00D+00  THRDIV  =  1.00D-05  THRRED  =  1.00D-07  THRPSP  =  1.00D+00  THRDC   =  1.00D-10  THRCS   =  1.00D-10
 THRNRM  =  1.00D-08  THREQ   =  0.00D+00  THRDE   =  1.00D+00  THRREF  =  1.00D-05  SPARFAC =  1.00D+00  THRDLP  =  1.00D-07
 THRDIA  =  1.00D-10  THRDLS  =  1.00D-07  THRGPS  =  0.00D+00  THRKEX  =  0.00D+00  THRDIS  =  2.00D-01  THRVAR  =  1.00D-10
 THRLOC  =  1.00D-06  THRGAP  =  1.00D-06  THRLOCT = -1.00D+00  THRGAPT = -1.00D+00  THRORB  =  1.00D-06  THRMLTP =  0.00D+00
 THRCPQCI=  1.00D-10  KEXTA   =  0.00D+00  THRCOARS=  0.00D+00  SYMTOL  =  1.00D-06  GRADTOL =  1.00D-06  THROVL  =  1.00D-08
 THRORTH =  1.00D-08  THRDLOVL= -1.00D+00  GRID    =  1.00D-06  GRIDMAX =  1.00D-03  DTMAX   =  0.00D+00  THROCCDE=  1.00D-01
 THROCCDE=  1.00D-01  THRPRINT=  2.50D-01

 SETTING GEOMTYP        =    XYZ
 ZUNIT=BOHR

 SETTING BASIS          =    CC-PVDZ


 Recomputing integrals since basis changed


 Using spherical harmonics

 Library entry C      S cc-pVDZ              selected for orbital group  1
 Library entry C      P cc-pVDZ              selected for orbital group  1
 Library entry C      D cc-pVDZ              selected for orbital group  1
 Library entry O      S cc-pVDZ              selected for orbital group  2
 Library entry O      P cc-pVDZ              selected for orbital group  2
 Library entry O      D cc-pVDZ              selected for orbital group  2
 Library entry H      S cc-pVDZ              selected for orbital group  3
 Library entry H      P cc-pVDZ              selected for orbital group  3


 PROGRAM * SEWARD (Integral evaluation for generally contracted gaussian basis sets)     Author: Roland Lindh, 1990

 Geometry written to block  1 of record 700


 Point group  C1  



 ATOMIC COORDINATES

 NR  ATOM    CHARGE       X              Y              Z

   1  C       6.00   -1.375245309   -0.021583670    0.000000234
   2  O       8.00    1.307167926    0.120824786    0.000000263
   3  H       1.00   -2.075737961    1.897697460   -0.000079416
   4  H       1.00   -2.110413934   -0.975389924    1.690263436
   5  H       1.00   -2.110406917   -0.975521837   -1.690191618
   6  H       1.00    1.940912036   -1.576158935   -0.000001309

 Bond lengths in Bohr (Angstrom)

 1-2  2.686190784  1-3  2.043117720  1-4  2.075381645  1-5  2.075381679  2-6  1.811459452
     ( 1.421470947)     ( 1.081171337)     ( 1.098244670)     ( 1.098244688)     ( 0.958583060)

 Bond angles

  1-2-6  107.43934871   2-1-3  107.01193620   2-1-4  112.21601224   2-1-5  112.21601254

  3-1-4  108.07770147   3-1-5  108.07754256   4-1-5  109.05964906

 NUCLEAR CHARGE:                   18
 NUMBER OF PRIMITIVE AOS:          82
 NUMBER OF SYMMETRY AOS:           80
 NUMBER OF CONTRACTIONS:           48   (   48A   )
 NUMBER OF INNER CORE ORBITALS:     0   (    0A   )
 NUMBER OF OUTER CORE ORBITALS:     2   (    2A   )
 NUMBER OF VALENCE ORBITALS:       12   (   12A   )


 NUCLEAR REPULSION ENERGY   40.30465837

 Eigenvalues of metric

         1 0.966E-02 0.176E-01 0.364E-01 0.378E-01 0.379E-01 0.476E-01 0.481E-01 0.511E-01


 Contracted 2-electron integrals neglected if value below      1.0D-16
 AO integral compression algorithm  1   Integral accuracy      1.0D-16

     6.816 MB (compressed) written to integral file ( 98.2%)

     Node minimum: 2.097 MB, node maximum: 2.359 MB


 NUMBER OF SORTED TWO-ELECTRON INTEGRALS:     231084.     BUFFER LENGTH:  32768
 NUMBER OF SEGMENTS:   1  SEGMENT LENGTH:     231084      RECORD LENGTH: 524288

 Memory used in sort:       0.79 MW

 SORT1 READ      832256. AND WROTE      227682. INTEGRALS IN      1 RECORDS. CPU TIME:     0.01 SEC, REAL TIME:     0.03 SEC
 SORT2 READ      682147. AND WROTE      692076. INTEGRALS IN     27 RECORDS. CPU TIME:     0.01 SEC, REAL TIME:     0.02 SEC

 Node minimum:      230300.  Node maximum:      231084. integrals

 OPERATOR DM      FOR CENTER  0  COORDINATES:    0.000000    0.000000    0.000000


 **********************************************************************************************************************************
 DATASETS  * FILE   NREC   LENGTH (MB)   RECORD NAMES
              1      18       28.73       500      610      700      900      950      970     1000      129      960     1100   
                                          VAR    BASINP    GEOM    SYMINP    ZMAT    AOBASIS   BASIS     P2S    ABASIS      S 
                                         1400     1410     1200     1210     1080     1600     1650     1700   
                                           T        V       H0       H01     AOSYM     SMH    MOLCAS    OPER   

 PROGRAMS   *        TOTAL       INT
 CPU TIMES  *         0.47      0.32
 REAL TIME  *         1.53 SEC
 DISK USED  *        29.07 MB (local),      104.31 MB (total)
 GA USED    *         0.00 MB       (max)       0.00 MB       (current)
 **********************************************************************************************************************************


 Program * Restricted Hartree-Fock

 Orbital guess generated from atomic densities. Full valence occupancy:   14

 Initial occupancy:   9

 NELEC=   18   SYM=1   MS2= 0   THRE=1.0D-12   THRD=1.0D-10   THRG=1.0D-10  HFMA2=F  DIIS_START=2   DIIS_MAX=10   DIIS_INCORE=F

 Level shifts:    0.00 (CLOSED)    0.00 (OPEN)    0.30 (GAP_MIN)

 ITER           ETOT              DE          GRAD        DDIFF     DIIS  NEXP   TIME(IT)  TIME(TOT)  DIAG
   1     -115.01417490    -115.01417490     0.00D+00     0.16D+00     0     0       0.00      0.01    start
   2     -115.04254195      -0.02836706     0.10D-01     0.21D-01     1     0       0.00      0.01    diag
   3     -115.04857334      -0.00603138     0.48D-02     0.64D-02     2     0       0.00      0.01    diag
   4     -115.04903621      -0.00046288     0.10D-02     0.20D-02     3     0       0.01      0.02    diag
   5     -115.04905712      -0.00002091     0.18D-03     0.43D-03     4     0       0.00      0.02    diag
   6     -115.04905791      -0.00000078     0.32D-04     0.93D-04     5     0       0.01      0.03    diag
   7     -115.04905794      -0.00000003     0.67D-05     0.15D-04     6     0       0.00      0.03    diag
   8     -115.04905794      -0.00000000     0.22D-05     0.50D-05     7     0       0.01      0.04    fixocc
   9     -115.04905794      -0.00000000     0.44D-06     0.14D-05     8     0       0.00      0.04    diag
  10     -115.04905794      -0.00000000     0.70D-07     0.23D-06     9     0       0.00      0.04    diag/orth
  11     -115.04905794      -0.00000000     0.16D-07     0.46D-07     9     0       0.00      0.04    diag
  12     -115.04905794       0.00000000     0.42D-08     0.13D-07     9     0       0.00      0.04    diag
  13     -115.04905794       0.00000000     0.66D-09     0.19D-08     9     0       0.01      0.05    diag
  14     -115.04905794      -0.00000000     0.14D-09     0.39D-09     9     0       0.00      0.05    diag
  15     -115.04905794       0.00000000     0.60D-10     0.11D-09     9     0       0.00      0.05    diag
  16     -115.04905794      -0.00000000     0.13D-10     0.32D-10     9     0       0.00      0.05    diag
  17     -115.04905794      -0.00000000     0.22D-11     0.45D-11     0     0       0.00      0.05    diag

 Final occupancy:   9

 !RHF STATE 1.1 Energy               -115.049057939689
  RHF One-electron energy            -236.871798621029
  RHF Two-electron energy              81.518082311815
  RHF Kinetic energy                  114.943981172438
  RHF Nuclear energy                   40.304658369524
  RHF Virial quotient                  -1.000914156324

 !RHF STATE 1.1 Dipole moment          -0.39457455    -0.59042709    -0.00000293
 Dipole moment /Debye                  -1.00290848    -1.50071596    -0.00000744

 Orbital energies:

           1.1          2.1          3.1          4.1          5.1          6.1          7.1          8.1          9.1         10.1
    -20.549862   -11.274732    -1.349834    -0.921648    -0.682315    -0.613150    -0.586022    -0.497296    -0.442958     0.184648

          11.1
      0.224498


 HOMO      9.1    -0.442958 =     -12.0535eV
 LUMO     10.1     0.184648 =       5.0245eV
 LUMO-HOMO         0.627606 =      17.0780eV

 Orbitals saved in record  2100.2


 **********************************************************************************************************************************
 DATASETS  * FILE   NREC   LENGTH (MB)   RECORD NAMES
              1      18       28.73       500      610      700      900      950      970     1000      129      960     1100   
                                          VAR    BASINP    GEOM    SYMINP    ZMAT    AOBASIS   BASIS     P2S    ABASIS      S 
                                         1400     1410     1200     1210     1080     1600     1650     1700   
                                           T        V       H0       H01     AOSYM     SMH    MOLCAS    OPER   

              2       4        0.47       700     1000      520     2100   
                                         GEOM     BASIS   MCVARS     RHF  

 PROGRAMS   *        TOTAL   RHF-SCF       INT
 CPU TIMES  *         0.53      0.06      0.32
 REAL TIME  *         2.19 SEC
 DISK USED  *        29.40 MB (local),      105.30 MB (total)
 GA USED    *         0.00 MB       (max)       0.00 MB       (current)
 **********************************************************************************************************************************


 PROGRAM * CCSD (Closed-shell coupled cluster)     Authors: C. Hampel, H.-J. Werner, 1991, M. Deegan, P.J. Knowles, 1992


 Convergence thresholds:  THRVAR = 1.00D-08  THRDEN = 1.00D-12

 CCSD(T)     terms to be evaluated (factor= 1.000)


 Number of core orbitals:           2 (   2 )
 Number of closed-shell orbitals:   7 (   7 )
 Number of external orbitals:      39 (  39 )

 Molecular orbitals read from record     2100.2  Type=RHF/CANONICAL  

 Number of N-1 electron functions:               7
 Number of N-2 electron functions:              28
 Number of singly external CSFs:               273
 Number of doubly external CSFs:             37401
 Total number of CSFs:                       37675

 Length of J-op  integral file:               0.00 MB
 Length of K-op  integral file:               0.16 MB
 Length of 3-ext integral record:             0.00 MB

 Memory could be reduced to 0.73 Mwords without degradation in triples

 Integral transformation finished. Total CPU:   0.02 sec, npass=  1  Memory used:   0.66 MW

 Reference energy:                   -115.04905794

 MP2 singlet pair energy:              -0.21862798
 MP2 triplet pair energy:              -0.11982664
 MP2 correlation energy:               -0.33845463
 MP2 total energy:                   -115.38751257

 SCS-MP2 correlation energy:           -0.33691238   (PS=  1.200000  PT=  0.333333)
 SCS-MP2 total energy:               -115.38597032

 ITER.      SQ.NORM     CORR.ENERGY   TOTAL ENERGY   ENERGY CHANGE        DEN1      VAR(S)    VAR(P)  DIIS     TIME  TIME/IT
   1      1.10731829    -0.36125415  -115.41031209    -0.02279952    -0.01411889  0.91D-03  0.17D-02  1  1     0.05     0.04
   2      1.11584356    -0.36319834  -115.41225628    -0.00194419    -0.00924943  0.20D-04  0.16D-03  2  2     0.07     0.04
   3      1.11772552    -0.36332568  -115.41238362    -0.00012734    -0.00120413  0.95D-05  0.86D-05  3  3     0.09     0.04
   4      1.11824131    -0.36332423  -115.41238217     0.00000145    -0.00025524  0.34D-06  0.68D-06  4  4     0.11     0.04
   5      1.11833981    -0.36332461  -115.41238255    -0.00000039    -0.00003618  0.10D-06  0.49D-07  5  5     0.13     0.05
   6      1.11835900    -0.36332325  -115.41238119     0.00000136    -0.00000439  0.16D-07  0.41D-08  6  6     0.16     0.05
   7      1.11836378    -0.36332283  -115.41238077     0.00000042    -0.00000035  0.20D-08  0.72D-09  6  1     0.17     0.04
   8      1.11836505    -0.36332293  -115.41238087    -0.00000010     0.00000075  0.26D-09  0.73D-10  6  3     0.20     0.04
   9      1.11836612    -0.36332281  -115.41238075     0.00000012    -0.00000038  0.13D-10  0.10D-10  6  2     0.22     0.04
  10      1.11836605    -0.36332281  -115.41238075    -0.00000000     0.00000007  0.11D-11  0.88D-12  6  5     0.24     0.04
  11      1.11836608    -0.36332281  -115.41238075     0.00000000    -0.00000000  0.19D-12  0.50D-13  6  4     0.26     0.04
  12      1.11836606    -0.36332281  -115.41238075    -0.00000000     0.00000001  0.19D-13  0.10D-13  6  1     0.28     0.04
  13      1.11836607    -0.36332281  -115.41238075    -0.00000000    -0.00000000  0.24D-14  0.94D-15  6  6     0.30     0.04
  14      1.11836607    -0.36332281  -115.41238075     0.00000000    -0.00000000  0.22D-15  0.12D-15  6  3     0.32     0.04
  15      1.11836607    -0.36332281  -115.41238075    -0.00000000    -0.00000000  0.25D-16  0.17D-16  6  2     0.34     0.04
  16      1.11836607    -0.36332281  -115.41238075    -0.00000000    -0.00000000  0.56D-17  0.16D-17  6  5     0.36     0.04
  17      1.11836607    -0.36332281  -115.41238075    -0.00000000    -0.00000000  0.54D-18  0.25D-18  6  4     0.38     0.04
  18      1.11836607    -0.36332281  -115.41238075     0.00000000    -0.00000000  0.82D-19  0.43D-19  6  1     0.40     0.04
  19      1.11836607    -0.36332281  -115.41238075    -0.00000000    -0.00000000  0.94D-20  0.43D-20  6  6     0.42     0.04
  20      1.11836607    -0.36332281  -115.41238075     0.00000000     0.00000000  0.13D-20  0.56D-21  6  3     0.44     0.04

 Norm of t1 vector:      0.04169517      S-energy:    -0.00000000      T1 diagnostic:  0.00787965
                                                                       D1 diagnostic:  0.01752234
                                                                       D2 diagnostic:  0.13411649 (internal)


 Total CPU time for triples:      0.08 sec


 RESULTS
 =======

  Reference energy                   -115.049057939689
  CCSD singlet pair energy             -0.254576813559
  CCSD triplet pair energy             -0.108745995480
  CCSD correlation energy              -0.363322809039

  Triples (T) contribution             -0.007738416592
  Total correlation energy             -0.371061225631

  CCSD total energy                  -115.412380748728
  CCSD[T] energy                     -115.420409497934
  CCSD-T energy                      -115.419969038255
 !CCSD(T) total energy               -115.420119165321

 Timing summary (sec):

 STEP                 CPU(USER)    SYS     CPU(TOT)    WALL
 Transformation          0.02      0.01      0.03      0.04
 CCSD iterations         0.42      0.07      0.49      0.83
 Triples                 0.08      0.00      0.08      0.08

 Program statistics:

 Available memory in ccsd:               999999795
 Min. memory needed in ccsd:                136177
 Max. memory used in ccsd:                  162910
 Max. memory used in cckext:                178997 (20 integral passes)



 **********************************************************************************************************************************
 DATASETS  * FILE   NREC   LENGTH (MB)   RECORD NAMES
              1      19       31.13       500      610      700      900      950      970     1000      129      960     1100   
                                          VAR    BASINP    GEOM    SYMINP    ZMAT    AOBASIS   BASIS     P2S    ABASIS      S 
                                         1400     1410     1200     1210     1080     1600     1650     1700     1380   
                                           T        V       H0       H01     AOSYM     SMH    MOLCAS    OPER     JKOP   

              2       4        0.47       700     1000      520     2100   
                                         GEOM     BASIS   MCVARS     RHF  

 PROGRAMS   *        TOTAL   CCSD(T)   RHF-SCF       INT
 CPU TIMES  *         1.07      0.54      0.06      0.32
 REAL TIME  *         3.21 SEC
 DISK USED  *        35.56 MB (local),      115.95 MB (total)
 SF USED    *         5.97 MB
 GA USED    *         0.00 MB       (max)       0.00 MB       (current)
 **********************************************************************************************************************************

 CCSD(T)/cc-pVDZ energy=   -115.420119165321

         CCSD(T)         RHF-SCF
   -115.42011917   -115.04905794
 **********************************************************************************************************************************
 Molpro calculation terminated
