
 Primary working directories    : /tmp/795519.113.gen6.q
 Secondary working directories  : /tmp/795519.113.gen6.q
 Wavefunction directory         : /home/vulcan/mel64643/wfu/
 Main file repository           : /tmp/795519.113.gen6.q/

 ARCHNAME  : Linux/x86_64
 FC        : /opt/intel/compilers_and_libraries_2016.1.150/linux/bin/intel64/ifort
 FCVERSION : 16.0.1
 BLASLIB   : -mkl
 id        : ccgc

 Nodes     nprocs
 n077         1
 ga_uses_ma=false, calling ma_init with nominal heap.
 GA-space will be limited to   8.0 MW (determined by -G option)

 Using customized tuning parameters: mindgm=10; mindgv=16; mindgc=4; mindgr=1; noblas=0; mincuda=1000; minvec=7
 default implementation of scratch files=df  

 ***,Optimization of min3
 memory,1000,m
 gthresh,energy=1.0d-12,orbital=1.0d-10,oneint=1.0d-16,twoint=1.0d-16,optgrad=1.0d-6,compress=1.0d-13
 geomtyp=xyz
 
  bohr
  geometry = {
  6
  arbitrary comment
  C   -1.3739186467   -0.0252233085    0.0000003362
  O    1.2973985120    0.1190492191    0.0000002632
  H   -2.0691383807    1.9085531366   -0.0000798844
  H   -2.1098406841   -0.9802790584    1.6825003376
  H   -2.1098339390   -0.9804103619   -1.6824281169
  H    1.9416089785   -1.5718217470   -0.0000013456
 }
 
 basis=cc-pvdz
 {rhf;maxit,200}
 {ccsd(t);maxit,200}

 Variables initialized (661), CPU time= 0.00 sec
 Commands  initialized (458), CPU time= 0.01 sec, 486 directives.
 Default parameters read. Elapsed time= 0.05 sec

 Checking input...
 Passed
1


                                         ***  PROGRAM SYSTEM MOLPRO  ***
                         Copyright, University College Cardiff Consultants Limited, 2008

                                    Version 2010.1 linked May 16 2016 07:17:05


 **********************************************************************************************************************************
 LABEL *   Optimization of min3                                                          
 Linux-4.4.3/n077(x86_64) 64 bit mpp version                                             DATE: 24-Oct-22          TIME: 15:43:20  
 **********************************************************************************************************************************

 SHA1:             9e8077add272b0f3cad6f7df79ec5211205f459d
 **********************************************************************************************************************************

 THRESHOLDS:

 ZERO    =  1.00D-12  ONEINT  =  1.00D-16  TWOINT  =  1.00D-16  PREFAC  =  1.00D-14  LOCALI  =  1.00D-09  EORDER  =  1.00D-04
 ENERGY  =  1.00D-12  ETEST   =  0.00D+00  EDENS   =  0.00D+00  THRDEDEF=  1.00D-06  GRADIENT=  1.00D-02  STEP    =  1.00D-03
 ORBITAL =  1.00D-10  CIVEC   =  1.00D-05  COEFF   =  1.00D-04  PRINTCI =  5.00D-02  PUNCHCI =  9.90D+01  OPTGRAD =  1.00D-06
 OPTENERG=  1.00D-06  OPTSTEP =  3.00D-04  THRGRAD =  1.00D-10  COMPRESS=  1.00D-13  VARMIN  =  1.00D-07  VARMAX  =  1.00D-03
 THRDOUB =  0.00D+00  THRDIV  =  1.00D-05  THRRED  =  1.00D-07  THRPSP  =  1.00D+00  THRDC   =  1.00D-10  THRCS   =  1.00D-10
 THRNRM  =  1.00D-08  THREQ   =  0.00D+00  THRDE   =  1.00D+00  THRREF  =  1.00D-05  SPARFAC =  1.00D+00  THRDLP  =  1.00D-07
 THRDIA  =  1.00D-10  THRDLS  =  1.00D-07  THRGPS  =  0.00D+00  THRKEX  =  0.00D+00  THRDIS  =  2.00D-01  THRVAR  =  1.00D-10
 THRLOC  =  1.00D-06  THRGAP  =  1.00D-06  THRLOCT = -1.00D+00  THRGAPT = -1.00D+00  THRORB  =  1.00D-06  THRMLTP =  0.00D+00
 THRCPQCI=  1.00D-10  KEXTA   =  0.00D+00  THRCOARS=  0.00D+00  SYMTOL  =  1.00D-06  GRADTOL =  1.00D-06  THROVL  =  1.00D-08
 THRORTH =  1.00D-08  GRID    =  1.00D-06  GRIDMAX =  1.00D-03  DTMAX   =  0.00D+00

 SETTING GEOMTYP        =    XYZ
 ZUNIT=BOHR
 

 Variable memory set to 1000000000 words,  buffer space   230000 words

 SETTING BASIS          =    CC-PVDZ


 Recomputing integrals since basis changed


 Using spherical harmonics

 Library entry C      S cc-pVDZ              selected for orbital group  1
 Library entry C      P cc-pVDZ              selected for orbital group  1
 Library entry C      D cc-pVDZ              selected for orbital group  1
 Library entry O      S cc-pVDZ              selected for orbital group  2
 Library entry O      P cc-pVDZ              selected for orbital group  2
 Library entry O      D cc-pVDZ              selected for orbital group  2
 Library entry H      S cc-pVDZ              selected for orbital group  3
 Library entry H      P cc-pVDZ              selected for orbital group  3

1PROGRAM * SEWARD (Integral evaluation for generally contracted gaussian basis sets)     Author: Roland Lindh, 1990

 Geometry written to block  1 of record 700


 Point group  C1  



 ATOMIC COORDINATES

 NR  ATOM    CHARGE       X              Y              Z

   1  C       6.00   -1.373918647   -0.025223308    0.000000336
   2  O       8.00    1.297398512    0.119049219    0.000000263
   3  H       1.00   -2.069138381    1.908553137   -0.000079884
   4  H       1.00   -2.109840684   -0.980279058    1.682500338
   5  H       1.00   -2.109833939   -0.980410362   -1.682428117
   6  H       1.00    1.941608978   -1.571821747   -0.000001346

 Bond lengths in Bohr (Angstrom)

 1-2  2.675210258  1-3  2.054950565  1-4  2.069907965  1-5  2.069907999  2-6  1.809434096
     ( 1.415660298)     ( 1.087433005)     ( 1.095348120)     ( 1.095348138)     ( 0.957511285)

 Bond angles

  1-2-6  107.76507642   2-1-3  106.68279462   2-1-4  112.32744954   2-1-5  112.32745676

  3-1-4  108.29697051   3-1-5  108.29680938   4-1-5  108.74490467

 NUCLEAR CHARGE:                   18
 NUMBER OF PRIMITIVE AOS:          82
 NUMBER OF SYMMETRY AOS:           80
 NUMBER OF CONTRACTIONS:           48   (  48A   )
 NUMBER OF CORE ORBITALS:           2   (   2A   )
 NUMBER OF VALENCE ORBITALS:       12   (  12A   )


 NUCLEAR REPULSION ENERGY   40.39941633


 Eigenvalues of metric

         1 0.963E-02 0.176E-01 0.367E-01 0.375E-01 0.379E-01 0.474E-01 0.478E-01 0.515E-01


 Contracted 2-electron integrals neglected if value below      1.0D-16
 AO integral compression algorithm  1   Integral accuracy      1.0D-16

     6.291 MB (compressed) written to integral file ( 98.4%)

     Node minimum: 6.291 MB, node maximum: 6.291 MB


 NUMBER OF SORTED TWO-ELECTRON INTEGRALS:     692076.     BUFFER LENGTH:  32768
 NUMBER OF SEGMENTS:   1  SEGMENT LENGTH:     692076      RECORD LENGTH: 524288

 Memory used in sort:       1.25 MW

 SORT1 READ      832256. AND WROTE      682148. INTEGRALS IN      2 RECORDS. CPU TIME:     0.01 SEC, REAL TIME:     0.01 SEC
 SORT2 READ      682148. AND WROTE      692076. INTEGRALS IN     24 RECORDS. CPU TIME:     0.01 SEC, REAL TIME:     0.02 SEC

 FILE SIZES:   FILE 1:     8.0 MBYTE,  FILE 4:     8.4 MBYTE,   TOTAL:     16.4 MBYTE

 OPERATOR DM      FOR CENTER  0  COORDINATES:    0.000000    0.000000    0.000000


 **********************************************************************************************************************************
 DATASETS  * FILE   NREC   LENGTH (MB)   RECORD NAMES
              1      19        8.03       500      610      700      900      950      970     1000      129      960     1100   
                                          VAR    BASINP    GEOM    SYMINP    ZMAT    AOBASIS   BASIS     P2S    ABASIS      S 
                                         1400     1410     1200     1210     1080     1600     1650     1300     1700   
                                           T        V       H0       H01     AOSYM     SMH    MOLCAS    ERIS     OPER   

 PROGRAMS   *        TOTAL       INT
 CPU TIMES  *         0.18      0.14
 REAL TIME  *         0.38 SEC
 DISK USED  *        23.34 MB      
 GA USED    *         0.00 MB       (max)       0.00 MB       (current)
 **********************************************************************************************************************************

1PROGRAM * RHF-SCF (CLOSED SHELL)       Authors: W. Meyer, H.-J. Werner


 NUMBER OF ELECTRONS:       9+    9-    SPACE SYMMETRY=1    SPIN SYMMETRY: Singlet 
 CONVERGENCE THRESHOLDS:    1.00E-10 (Density)    1.00E-13 (Energy)
 MAX. NUMBER OF ITERATIONS:      200
 INTERPOLATION TYPE:            DIIS
 INTERPOLATION STEPS:              2 (START)      1 (STEP)
 LEVEL SHIFTS:                  0.00 (CLOSED)  0.00 (OPEN) 



 Orbital guess generated from atomic densities. Full valence occupancy:   14

 Molecular orbital dump at record        2100.2

 ITERATION    DDIFF          GRAD             ENERGY        2-EL.EN.            DIPOLE MOMENTS         DIIS
    1      0.000D+00      0.000D+00      -115.01451719    164.563413   -0.48168   -0.89757   -0.00000    0
    2      0.000D+00      0.109D-01      -115.04285680    162.338595   -0.30696   -0.53412   -0.00000    1
    3      0.205D-01      0.527D-02      -115.04882783    163.364145   -0.38957   -0.60864   -0.00000    2
    4      0.636D-02      0.112D-02      -115.04928895    163.207598   -0.37968   -0.59756   -0.00000    3
    5      0.204D-02      0.201D-03      -115.04930962    163.214047   -0.38251   -0.59327   -0.00000    4
    6      0.430D-03      0.351D-04      -115.04931040    163.214229   -0.38282   -0.59306   -0.00000    5
    7      0.923D-04      0.729D-05      -115.04931043    163.213043   -0.38295   -0.59290   -0.00000    6
    8      0.148D-04      0.236D-05      -115.04931043    163.213420   -0.38299   -0.59287   -0.00000    7
    9      0.502D-05      0.486D-06      -115.04931043    163.213379   -0.38300   -0.59287   -0.00000    6
   10      0.140D-05      0.871D-07      -115.04931043    163.213378   -0.38300   -0.59287   -0.00000    6
   11      0.234D-06      0.325D-07      -115.04931043    163.213384   -0.38300   -0.59287   -0.00000    6
   12      0.593D-07      0.135D-07      -115.04931043    163.213382   -0.38300   -0.59287   -0.00000    7
   13      0.251D-07      0.302D-08      -115.04931043    163.213382   -0.38300   -0.59287   -0.00000    7
   14      0.748D-08      0.636D-09      -115.04931043    163.213382   -0.38300   -0.59287   -0.00000    7
   15      0.161D-08      0.147D-09      -115.04931043    163.213382   -0.38300   -0.59287   -0.00000    7
   16      0.326D-09      0.439D-10      -115.04931043    163.213382   -0.38300   -0.59287   -0.00000    7
   17      0.836D-10      0.145D-10      -115.04931043    163.213382   -0.38300   -0.59287   -0.00000    0

 Final occupancy:   9

 !RHF STATE 1.1 Energy               -115.049310428109
 Nuclear energy                        40.39941633
 One-electron energy                 -237.05541779
 Two-electron energy                   81.60669104
 Virial quotient                       -1.00080041
 !RHF STATE 1.1 Dipole moment          -0.38300207    -0.59286846    -0.00000282
 Dipole moment /Debye                  -0.97343041    -1.50682263    -0.00000717

 Orbital energies:

         1.1          2.1          3.1          4.1          5.1          6.1          7.1          8.1          9.1         10.1
    -20.549539   -11.274208    -1.351942    -0.921381    -0.684363    -0.614224    -0.586236    -0.496609    -0.442514     0.184766

        11.1
      0.224762


 **********************************************************************************************************************************
 DATASETS  * FILE   NREC   LENGTH (MB)   RECORD NAMES
              1      19        8.03       500      610      700      900      950      970     1000      129      960     1100   
                                          VAR    BASINP    GEOM    SYMINP    ZMAT    AOBASIS   BASIS     P2S    ABASIS      S 
                                         1400     1410     1200     1210     1080     1600     1650     1300     1700   
                                           T        V       H0       H01     AOSYM     SMH    MOLCAS    ERIS     OPER   

              2       3        0.39       700     1000     2100   
                                         GEOM     BASIS     RHF  

 PROGRAMS   *        TOTAL       RHF       INT
 CPU TIMES  *         0.25      0.07      0.14
 REAL TIME  *         0.48 SEC
 DISK USED  *        23.34 MB      
 GA USED    *         0.00 MB       (max)       0.00 MB       (current)
 **********************************************************************************************************************************


1PROGRAM * CCSD (Closed-shell coupled cluster)     Authors: C. Hampel, H.-J. Werner, 1991, M. Deegan, P.J. Knowles, 1992


 Convergence thresholds:  THRVAR = 1.00D-08  THRDEN = 1.00D-12

 CCSD(T)     terms to be evaluated (factor= 1.000)


 Number of core orbitals:           2 (   2 )
 Number of closed-shell orbitals:   7 (   7 )
 Number of external orbitals:      39 (  39 )

 Molecular orbitals read from record     2100.2  Type=RHF/CANONICAL (state 1.1)

 Number of N-1 electron functions:               7
 Number of N-2 electron functions:              28
 Number of singly external CSFs:               273
 Number of doubly external CSFs:             37401
 Total number of CSFs:                       37675

 Length of J-op  integral file:               0.00 MB
 Length of K-op  integral file:               0.19 MB
 Length of 3-ext integral record:             0.00 MB

 Memory could be reduced to 0.96 Mwords without degradation in triples

 Integral transformation finished. Total CPU:   0.01 sec, npass=  1  Memory used:   0.66 MW

 Reference energy:                   -115.04931043

 MP2 singlet pair energy:              -0.21845078
 MP2 triplet pair energy:              -0.11978122
 MP2 correlation energy:               -0.33823199
 MP2 total energy:                   -115.38754242

 SCS-MP2 correlation energy:           -0.33667147   (PS=  1.200000  PT=  0.333333)
 SCS-MP2 total energy:               -115.38598189

 ITER.      SQ.NORM     CORR.ENERGY   TOTAL ENERGY   ENERGY CHANGE        DEN1      VAR(S)    VAR(P)  DIIS     TIME
   1      1.10710896    -0.36104331  -115.41035374    -0.02281132    -0.01416382  0.90D-03  0.17D-02  1  1     0.04
   2      1.11559578    -0.36298139  -115.41229182    -0.00193809    -0.00922382  0.19D-04  0.16D-03  2  2     0.08
   3      1.11745641    -0.36310732  -115.41241775    -0.00012593    -0.00119275  0.94D-05  0.85D-05  3  3     0.11
   4      1.11796526    -0.36310595  -115.41241638     0.00000137    -0.00025242  0.33D-06  0.66D-06  4  4     0.14
   5      1.11806189    -0.36310635  -115.41241678    -0.00000040    -0.00003555  0.97D-07  0.48D-07  5  5     0.17
   6      1.11808062    -0.36310502  -115.41241545     0.00000133    -0.00000431  0.15D-07  0.40D-08  6  6     0.21
   7      1.11808529    -0.36310461  -115.41241503     0.00000041    -0.00000035  0.20D-08  0.70D-09  6  1     0.24
   8      1.11808654    -0.36310471  -115.41241513    -0.00000010     0.00000074  0.25D-09  0.70D-10  6  3     0.27
   9      1.11808758    -0.36310459  -115.41241501     0.00000012    -0.00000038  0.12D-10  0.10D-10  6  2     0.30
  10      1.11808751    -0.36310459  -115.41241502    -0.00000000     0.00000007  0.11D-11  0.85D-12  6  5     0.33
  11      1.11808754    -0.36310459  -115.41241501     0.00000000    -0.00000000  0.19D-12  0.49D-13  6  4     0.37
  12      1.11808752    -0.36310459  -115.41241502    -0.00000000     0.00000001  0.18D-13  0.98D-14  6  1     0.40
  13      1.11808752    -0.36310459  -115.41241502    -0.00000000    -0.00000000  0.23D-14  0.92D-15  6  6     0.43
  14      1.11808753    -0.36310459  -115.41241502     0.00000000    -0.00000000  0.22D-15  0.12D-15  6  3     0.47
  15      1.11808753    -0.36310459  -115.41241502    -0.00000000    -0.00000000  0.24D-16  0.16D-16  6  2     0.50
  16      1.11808753    -0.36310459  -115.41241502    -0.00000000    -0.00000000  0.54D-17  0.16D-17  6  5     0.53
  17      1.11808753    -0.36310459  -115.41241502    -0.00000000    -0.00000000  0.52D-18  0.24D-18  6  4     0.56
  18      1.11808753    -0.36310459  -115.41241502     0.00000000    -0.00000000  0.80D-19  0.41D-19  6  1     0.60
  19      1.11808753    -0.36310459  -115.41241502    -0.00000000    -0.00000000  0.90D-20  0.41D-20  6  6     0.63
  20      1.11808753    -0.36310459  -115.41241502     0.00000000     0.00000000  0.13D-20  0.53D-21  6  3     0.66

 Norm of t1 vector:      0.04144998      S-energy:    -0.00000000      T1 diagnostic:  0.00783331
                                                                       D1 diagnostic:  0.01728239


 Total CPU time for triples:      0.17 sec


 RESULTS
 =======

  Reference energy                   -115.049310428109
  CCSD singlet pair energy             -0.254344228951
  CCSD triplet pair energy             -0.108760358425
  CCSD correlation energy              -0.363104587377

  Triples (T) contribution             -0.007707775609
  Total correlation energy             -0.370812362985

  CCSD total energy                  -115.412415015485
  CCSD[T] energy                     -115.420410198366
  CCSD-T energy                      -115.419974199890
 !CCSD(T) total energy               -115.420122791094

 Timing summary (sec):

 STEP                 CPU(USER)    SYS     CPU(TOT)    WALL
 Transformation          0.01      0.01      0.02      0.02
 CCSD iterations         0.65      0.04      0.69      0.71
 Triples                 0.17      0.00      0.17      0.17

 Program statistics:

 Available memory in ccsd:               999999704
 Min. memory needed in ccsd:                136801
 Max. memory used in ccsd:                  163198
 Max. memory used in cckext:                182024 (20 integral passes)



 **********************************************************************************************************************************
 DATASETS  * FILE   NREC   LENGTH (MB)   RECORD NAMES
              1      20       10.56       500      610      700      900      950      970     1000      129      960     1100   
                                          VAR    BASINP    GEOM    SYMINP    ZMAT    AOBASIS   BASIS     P2S    ABASIS      S 
                                         1400     1410     1200     1210     1080     1600     1650     1300     1700     1380   
                                           T        V       H0       H01     AOSYM     SMH    MOLCAS    ERIS     OPER     JKOP   

              2       3        0.39       700     1000     2100   
                                         GEOM     BASIS     RHF  

 PROGRAMS   *        TOTAL   CCSD(T)       RHF       INT
 CPU TIMES  *         1.09      0.84      0.07      0.14
 REAL TIME  *         1.40 SEC
 DISK USED  *        24.77 MB      
 GA USED    *         0.00 MB       (max)       0.00 MB       (current)
 **********************************************************************************************************************************

        CCSD(T)         RHF-SCF 
   -115.42012279   -115.04931043
 **********************************************************************************************************************************
 Variable memory released
