
 Primary working directories    : /tmp/601555.135.gen6.q
 Secondary working directories  : /tmp/601555.135.gen6.q
 Wavefunction directory         : /home/vulcan/mel64643/wfu/
 Main file repository           : /tmp/601555.135.gen6.q/

 ARCHNAME  : Linux/x86_64
 FC        : /opt/intel/compilers_and_libraries_2016.1.150/linux/bin/intel64/ifort
 FCVERSION : 16.0.1
 BLASLIB   : -mkl
 id        : ccgc

 Nodes     nprocs
 n089         1
 ga_uses_ma=false, calling ma_init with nominal heap.
 GA-space will be limited to   8.0 MW (determined by -G option)

 Using customized tuning parameters: mindgm=10; mindgv=16; mindgc=4; mindgr=1; noblas=0; mincuda=1000; minvec=7
 default implementation of scratch files=df  

 ***,Optimization of min3
 memory,1000,m
 gthresh,energy=1.0d-12,orbital=1.0d-10,oneint=1.0d-16,twoint=1.0d-16,optgrad=1.0d-6,compress=1.0d-13
 geomtyp=xyz
 
  bohr
  geometry = {
  6
  arbitrary comment
  C   -1.3758542793   -0.0219088858    0.0000003190
  O    1.3091156501    0.1205297904    0.0000003026
  H   -2.0856442851    1.9053352962   -0.0000795837
  H   -2.1069692308   -0.9755590558    1.6868213061
  H   -2.1069617669   -0.9756908450   -1.6867494622
  H    1.9425897521   -1.5828384200   -0.0000012918
 }
 
 basis=cc-pvdz
 {rhf;maxit,200}
 {ccsd(t);maxit,200}

 Variables initialized (661), CPU time= 0.00 sec
 Commands  initialized (458), CPU time= 0.01 sec, 486 directives.
 Default parameters read. Elapsed time= 0.04 sec

 Checking input...
 Passed
1


                                         ***  PROGRAM SYSTEM MOLPRO  ***
                         Copyright, University College Cardiff Consultants Limited, 2008

                                    Version 2010.1 linked May 16 2016 07:17:05


 **********************************************************************************************************************************
 LABEL *   Optimization of min3                                                          
 Linux-4.4.3/n089(x86_64) 64 bit mpp version                                             DATE: 06-Nov-21          TIME: 15:40:16  
 **********************************************************************************************************************************

 SHA1:             9e8077add272b0f3cad6f7df79ec5211205f459d
 **********************************************************************************************************************************

 THRESHOLDS:

 ZERO    =  1.00D-12  ONEINT  =  1.00D-16  TWOINT  =  1.00D-16  PREFAC  =  1.00D-14  LOCALI  =  1.00D-09  EORDER  =  1.00D-04
 ENERGY  =  1.00D-12  ETEST   =  0.00D+00  EDENS   =  0.00D+00  THRDEDEF=  1.00D-06  GRADIENT=  1.00D-02  STEP    =  1.00D-03
 ORBITAL =  1.00D-10  CIVEC   =  1.00D-05  COEFF   =  1.00D-04  PRINTCI =  5.00D-02  PUNCHCI =  9.90D+01  OPTGRAD =  1.00D-06
 OPTENERG=  1.00D-06  OPTSTEP =  3.00D-04  THRGRAD =  1.00D-10  COMPRESS=  1.00D-13  VARMIN  =  1.00D-07  VARMAX  =  1.00D-03
 THRDOUB =  0.00D+00  THRDIV  =  1.00D-05  THRRED  =  1.00D-07  THRPSP  =  1.00D+00  THRDC   =  1.00D-10  THRCS   =  1.00D-10
 THRNRM  =  1.00D-08  THREQ   =  0.00D+00  THRDE   =  1.00D+00  THRREF  =  1.00D-05  SPARFAC =  1.00D+00  THRDLP  =  1.00D-07
 THRDIA  =  1.00D-10  THRDLS  =  1.00D-07  THRGPS  =  0.00D+00  THRKEX  =  0.00D+00  THRDIS  =  2.00D-01  THRVAR  =  1.00D-10
 THRLOC  =  1.00D-06  THRGAP  =  1.00D-06  THRLOCT = -1.00D+00  THRGAPT = -1.00D+00  THRORB  =  1.00D-06  THRMLTP =  0.00D+00
 THRCPQCI=  1.00D-10  KEXTA   =  0.00D+00  THRCOARS=  0.00D+00  SYMTOL  =  1.00D-06  GRADTOL =  1.00D-06  THROVL  =  1.00D-08
 THRORTH =  1.00D-08  GRID    =  1.00D-06  GRIDMAX =  1.00D-03  DTMAX   =  0.00D+00

 SETTING GEOMTYP        =    XYZ
 ZUNIT=BOHR
 

 Variable memory set to 1000000000 words,  buffer space   230000 words

 SETTING BASIS          =    CC-PVDZ


 Recomputing integrals since basis changed


 Using spherical harmonics

 Library entry C      S cc-pVDZ              selected for orbital group  1
 Library entry C      P cc-pVDZ              selected for orbital group  1
 Library entry C      D cc-pVDZ              selected for orbital group  1
 Library entry O      S cc-pVDZ              selected for orbital group  2
 Library entry O      P cc-pVDZ              selected for orbital group  2
 Library entry O      D cc-pVDZ              selected for orbital group  2
 Library entry H      S cc-pVDZ              selected for orbital group  3
 Library entry H      P cc-pVDZ              selected for orbital group  3

1PROGRAM * SEWARD (Integral evaluation for generally contracted gaussian basis sets)     Author: Roland Lindh, 1990

 Geometry written to block  1 of record 700


 Point group  C1  



 ATOMIC COORDINATES

 NR  ATOM    CHARGE       X              Y              Z

   1  C       6.00   -1.375854279   -0.021908886    0.000000319
   2  O       8.00    1.309115650    0.120529790    0.000000303
   3  H       1.00   -2.085644285    1.905335296   -0.000079584
   4  H       1.00   -2.106969231   -0.975559056    1.686821306
   5  H       1.00   -2.106961767   -0.975690845   -1.686749462
   6  H       1.00    1.942589752   -1.582838420   -0.000001292

 Bond lengths in Bohr (Angstrom)

 1-2  2.688745488  1-3  2.053794536  1-4  2.071072853  1-5  2.071072912  2-6  1.817347710
     ( 1.422822833)     ( 1.086821260)     ( 1.095964552)     ( 1.095964583)     ( 0.961698989)

 Bond angles

  1-2-6  107.36319933   2-1-3  107.18166885   2-1-4  112.14243325   2-1-5  112.14241787

  3-1-4  108.06646235   3-1-5  108.06631631   4-1-5  109.06603804

 NUCLEAR CHARGE:                   18
 NUMBER OF PRIMITIVE AOS:          82
 NUMBER OF SYMMETRY AOS:           80
 NUMBER OF CONTRACTIONS:           48   (  48A   )
 NUMBER OF CORE ORBITALS:           2   (   2A   )
 NUMBER OF VALENCE ORBITALS:       12   (  12A   )


 NUCLEAR REPULSION ENERGY   40.26239311


 Eigenvalues of metric

         1 0.968E-02 0.177E-01 0.368E-01 0.376E-01 0.383E-01 0.474E-01 0.479E-01 0.517E-01


 Contracted 2-electron integrals neglected if value below      1.0D-16
 AO integral compression algorithm  1   Integral accuracy      1.0D-16

     6.291 MB (compressed) written to integral file ( 97.9%)

     Node minimum: 6.291 MB, node maximum: 6.291 MB


 NUMBER OF SORTED TWO-ELECTRON INTEGRALS:     692076.     BUFFER LENGTH:  32768
 NUMBER OF SEGMENTS:   1  SEGMENT LENGTH:     692076      RECORD LENGTH: 524288

 Memory used in sort:       1.25 MW

 SORT1 READ      832256. AND WROTE      682146. INTEGRALS IN      2 RECORDS. CPU TIME:     0.01 SEC, REAL TIME:     0.01 SEC
 SORT2 READ      682146. AND WROTE      692076. INTEGRALS IN     24 RECORDS. CPU TIME:     0.02 SEC, REAL TIME:     0.02 SEC

 FILE SIZES:   FILE 1:     8.0 MBYTE,  FILE 4:     8.4 MBYTE,   TOTAL:     16.4 MBYTE

 OPERATOR DM      FOR CENTER  0  COORDINATES:    0.000000    0.000000    0.000000


 **********************************************************************************************************************************
 DATASETS  * FILE   NREC   LENGTH (MB)   RECORD NAMES
              1      19        8.02       500      610      700      900      950      970     1000      129      960     1100   
                                          VAR    BASINP    GEOM    SYMINP    ZMAT    AOBASIS   BASIS     P2S    ABASIS      S 
                                         1400     1410     1200     1210     1080     1600     1650     1300     1700   
                                           T        V       H0       H01     AOSYM     SMH    MOLCAS    ERIS     OPER   

 PROGRAMS   *        TOTAL       INT
 CPU TIMES  *         0.18      0.14
 REAL TIME  *         0.39 SEC
 DISK USED  *        23.33 MB      
 GA USED    *         0.00 MB       (max)       0.00 MB       (current)
 **********************************************************************************************************************************

1PROGRAM * RHF-SCF (CLOSED SHELL)       Authors: W. Meyer, H.-J. Werner


 NUMBER OF ELECTRONS:       9+    9-    SPACE SYMMETRY=1    SPIN SYMMETRY: Singlet 
 CONVERGENCE THRESHOLDS:    1.00E-10 (Density)    1.00E-13 (Energy)
 MAX. NUMBER OF ITERATIONS:      200
 INTERPOLATION TYPE:            DIIS
 INTERPOLATION STEPS:              2 (START)      1 (STEP)
 LEVEL SHIFTS:                  0.00 (CLOSED)  0.00 (OPEN) 



 Orbital guess generated from atomic densities. Full valence occupancy:   14

 Molecular orbital dump at record        2100.2

 ITERATION    DDIFF          GRAD             ENERGY        2-EL.EN.            DIPOLE MOMENTS         DIIS
    1      0.000D+00      0.000D+00      -115.01403899    164.308014   -0.49908   -0.90246   -0.00000    0
    2      0.000D+00      0.110D-01      -115.04242314    162.087377   -0.31967   -0.53526   -0.00000    1
    3      0.205D-01      0.531D-02      -115.04848710    163.113848   -0.40383   -0.61027   -0.00000    2
    4      0.640D-02      0.112D-02      -115.04895237    162.957602   -0.39371   -0.59887   -0.00000    3
    5      0.204D-02      0.203D-03      -115.04897358    162.964028   -0.39657   -0.59447   -0.00000    4
    6      0.435D-03      0.356D-04      -115.04897438    162.964181   -0.39689   -0.59424   -0.00000    5
    7      0.934D-04      0.741D-05      -115.04897441    162.962988   -0.39703   -0.59407   -0.00000    6
    8      0.151D-04      0.239D-05      -115.04897442    162.963374   -0.39707   -0.59404   -0.00000    7
    9      0.507D-05      0.493D-06      -115.04897442    162.963333   -0.39708   -0.59404   -0.00000    6
   10      0.142D-05      0.883D-07      -115.04897442    162.963332   -0.39708   -0.59404   -0.00000    6
   11      0.237D-06      0.329D-07      -115.04897442    162.963338   -0.39708   -0.59404   -0.00000    6
   12      0.596D-07      0.138D-07      -115.04897442    162.963336   -0.39708   -0.59404   -0.00000    7
   13      0.258D-07      0.307D-08      -115.04897442    162.963336   -0.39708   -0.59404   -0.00000    7
   14      0.765D-08      0.654D-09      -115.04897442    162.963336   -0.39708   -0.59404   -0.00000    7
   15      0.167D-08      0.152D-09      -115.04897442    162.963336   -0.39708   -0.59404   -0.00000    7
   16      0.338D-09      0.456D-10      -115.04897442    162.963336   -0.39708   -0.59404   -0.00000    7
   17      0.882D-10      0.164D-10      -115.04897442    162.963336   -0.39708   -0.59404   -0.00000    7
   18      0.419D-10      0.295D-11      -115.04897442    162.963336   -0.39708   -0.59404   -0.00000    7
   19      0.691D-11      0.659D-12      -115.04897442    162.963336   -0.39708   -0.59404   -0.00000    7
   20      0.167D-11      0.262D-12      -115.04897442    162.963336   -0.39708   -0.59404   -0.00000    0

 Final occupancy:   9

 !RHF STATE 1.1 Energy               -115.048974417222
 Nuclear energy                        40.26239311
 One-electron energy                 -236.79303545
 Two-electron energy                   81.48166792
 Virial quotient                       -1.00100455
 !RHF STATE 1.1 Dipole moment          -0.39708303    -0.59404179    -0.00000281
 Dipole moment /Debye                  -1.00921830    -1.50980474    -0.00000713

 Orbital energies:

         1.1          2.1          3.1          4.1          5.1          6.1          7.1          8.1          9.1         10.1
    -20.550125   -11.274949    -1.348661    -0.921162    -0.681437    -0.613493    -0.585007    -0.496819    -0.443196     0.184418

        11.1
      0.224035


 **********************************************************************************************************************************
 DATASETS  * FILE   NREC   LENGTH (MB)   RECORD NAMES
              1      19        8.02       500      610      700      900      950      970     1000      129      960     1100   
                                          VAR    BASINP    GEOM    SYMINP    ZMAT    AOBASIS   BASIS     P2S    ABASIS      S 
                                         1400     1410     1200     1210     1080     1600     1650     1300     1700   
                                           T        V       H0       H01     AOSYM     SMH    MOLCAS    ERIS     OPER   

              2       3        0.39       700     1000     2100   
                                         GEOM     BASIS     RHF  

 PROGRAMS   *        TOTAL       RHF       INT
 CPU TIMES  *         0.26      0.08      0.14
 REAL TIME  *         0.51 SEC
 DISK USED  *        23.33 MB      
 GA USED    *         0.00 MB       (max)       0.00 MB       (current)
 **********************************************************************************************************************************


1PROGRAM * CCSD (Closed-shell coupled cluster)     Authors: C. Hampel, H.-J. Werner, 1991, M. Deegan, P.J. Knowles, 1992


 Convergence thresholds:  THRVAR = 1.00D-08  THRDEN = 1.00D-12

 CCSD(T)     terms to be evaluated (factor= 1.000)


 Number of core orbitals:           2 (   2 )
 Number of closed-shell orbitals:   7 (   7 )
 Number of external orbitals:      39 (  39 )

 Molecular orbitals read from record     2100.2  Type=RHF/CANONICAL (state 1.1)

 Number of N-1 electron functions:               7
 Number of N-2 electron functions:              28
 Number of singly external CSFs:               273
 Number of doubly external CSFs:             37401
 Total number of CSFs:                       37675

 Length of J-op  integral file:               0.00 MB
 Length of K-op  integral file:               0.19 MB
 Length of 3-ext integral record:             0.00 MB

 Memory could be reduced to 0.96 Mwords without degradation in triples

 Integral transformation finished. Total CPU:   0.02 sec, npass=  1  Memory used:   0.66 MW

 Reference energy:                   -115.04897442

 MP2 singlet pair energy:              -0.21875903
 MP2 triplet pair energy:              -0.11986404
 MP2 correlation energy:               -0.33862308
 MP2 total energy:                   -115.38759749

 SCS-MP2 correlation energy:           -0.33709291   (PS=  1.200000  PT=  0.333333)
 SCS-MP2 total energy:               -115.38606733

 ITER.      SQ.NORM     CORR.ENERGY   TOTAL ENERGY   ENERGY CHANGE        DEN1      VAR(S)    VAR(P)  DIIS     TIME
   1      1.10746452    -0.36141821  -115.41039262    -0.02279513    -0.01409505  0.92D-03  0.17D-02  1  1     0.05
   2      1.11601661    -0.36336902  -115.41234343    -0.00195081    -0.00926778  0.20D-04  0.16D-03  2  2     0.08
   3      1.11791135    -0.36349721  -115.41247163    -0.00012819    -0.00121137  0.96D-05  0.87D-05  3  3     0.11
   4      1.11843066    -0.36349595  -115.41247036     0.00000126    -0.00025654  0.34D-06  0.68D-06  4  4     0.15
   5      1.11852991    -0.36349636  -115.41247078    -0.00000042    -0.00003641  0.10D-06  0.50D-07  5  5     0.18
   6      1.11854930    -0.36349499  -115.41246941     0.00000137    -0.00000442  0.16D-07  0.42D-08  6  6     0.21
   7      1.11855415    -0.36349457  -115.41246899     0.00000042    -0.00000036  0.21D-08  0.74D-09  6  1     0.25
   8      1.11855544    -0.36349467  -115.41246909    -0.00000010     0.00000076  0.26D-09  0.75D-10  6  3     0.28
   9      1.11855652    -0.36349455  -115.41246897     0.00000013    -0.00000039  0.13D-10  0.11D-10  6  2     0.31
  10      1.11855644    -0.36349455  -115.41246897    -0.00000000     0.00000007  0.11D-11  0.90D-12  6  5     0.35
  11      1.11855648    -0.36349455  -115.41246897     0.00000000    -0.00000000  0.20D-12  0.52D-13  6  4     0.38
  12      1.11855646    -0.36349455  -115.41246897    -0.00000000     0.00000001  0.19D-13  0.10D-13  6  1     0.41
  13      1.11855646    -0.36349455  -115.41246897    -0.00000000    -0.00000000  0.24D-14  0.97D-15  6  6     0.45
  14      1.11855646    -0.36349455  -115.41246897     0.00000000    -0.00000000  0.22D-15  0.13D-15  6  3     0.48
  15      1.11855646    -0.36349455  -115.41246897    -0.00000000    -0.00000000  0.26D-16  0.17D-16  6  2     0.51
  16      1.11855646    -0.36349455  -115.41246897    -0.00000000    -0.00000000  0.58D-17  0.17D-17  6  5     0.55
  17      1.11855646    -0.36349455  -115.41246897    -0.00000000    -0.00000000  0.55D-18  0.26D-18  6  4     0.58
  18      1.11855646    -0.36349455  -115.41246897     0.00000000    -0.00000000  0.85D-19  0.44D-19  6  1     0.61
  19      1.11855646    -0.36349455  -115.41246897    -0.00000000    -0.00000000  0.98D-20  0.44D-20  6  6     0.65
  20      1.11855646    -0.36349455  -115.41246897     0.00000000     0.00000000  0.14D-20  0.57D-21  6  3     0.68

 Norm of t1 vector:      0.04177369      S-energy:    -0.00000000      T1 diagnostic:  0.00789449
                                                                       D1 diagnostic:  0.01761748


 Total CPU time for triples:      0.17 sec


 RESULTS
 =======

  Reference energy                   -115.048974417222
  CCSD singlet pair energy             -0.254753082369
  CCSD triplet pair energy             -0.108741468583
  CCSD correlation energy              -0.363494550952

  Triples (T) contribution             -0.007753635905
  Total correlation energy             -0.371248186857

  CCSD total energy                  -115.412468968174
  CCSD[T] energy                     -115.420513782120
  CCSD-T energy                      -115.420071957483
 !CCSD(T) total energy               -115.420222604079

 Timing summary (sec):

 STEP                 CPU(USER)    SYS     CPU(TOT)    WALL
 Transformation          0.02      0.01      0.03      0.02
 CCSD iterations         0.66      0.04      0.70      0.73
 Triples                 0.17      0.00      0.17      0.17

 Program statistics:

 Available memory in ccsd:               999999704
 Min. memory needed in ccsd:                136801
 Max. memory used in ccsd:                  163198
 Max. memory used in cckext:                182024 (20 integral passes)



 **********************************************************************************************************************************
 DATASETS  * FILE   NREC   LENGTH (MB)   RECORD NAMES
              1      20       10.55       500      610      700      900      950      970     1000      129      960     1100   
                                          VAR    BASINP    GEOM    SYMINP    ZMAT    AOBASIS   BASIS     P2S    ABASIS      S 
                                         1400     1410     1200     1210     1080     1600     1650     1300     1700     1380   
                                           T        V       H0       H01     AOSYM     SMH    MOLCAS    ERIS     OPER     JKOP   

              2       3        0.39       700     1000     2100   
                                         GEOM     BASIS     RHF  

 PROGRAMS   *        TOTAL   CCSD(T)       RHF       INT
 CPU TIMES  *         1.12      0.86      0.08      0.14
 REAL TIME  *         1.46 SEC
 DISK USED  *        24.76 MB      
 GA USED    *         0.00 MB       (max)       0.00 MB       (current)
 **********************************************************************************************************************************

        CCSD(T)         RHF-SCF 
   -115.42022260   -115.04897442
 **********************************************************************************************************************************
 Variable memory released
