
 Primary working directories    : /tmp/601555.93.gen4.q
 Secondary working directories  : /tmp/601555.93.gen4.q
 Wavefunction directory         : /home/vulcan/mel64643/wfu/
 Main file repository           : /tmp/601555.93.gen4.q/

 ARCHNAME  : Linux/x86_64
 FC        : /opt/intel/compilers_and_libraries_2016.1.150/linux/bin/intel64/ifort
 FCVERSION : 16.0.1
 BLASLIB   : -mkl
 id        : ccgc

 Nodes     nprocs
 n031         1
 ga_uses_ma=false, calling ma_init with nominal heap.
 GA-space will be limited to   8.0 MW (determined by -G option)

 Using customized tuning parameters: mindgm=10; mindgv=16; mindgc=4; mindgr=1; noblas=0; mincuda=1000; minvec=7
 default implementation of scratch files=df  

 ***,Optimization of min3
 memory,1000,m
 gthresh,energy=1.0d-12,orbital=1.0d-10,oneint=1.0d-16,twoint=1.0d-16,optgrad=1.0d-6,compress=1.0d-13
 geomtyp=xyz
 
  bohr
  geometry = {
  6
  arbitrary comment
  C   -1.3753413452   -0.0238316060    0.0000003257
  O    1.3087762876    0.1164582117    0.0000002981
  H   -2.0787731626    1.9039030056   -0.0000795559
  H   -2.1092359756   -0.9763923757    1.6859751207
  H   -2.1092288660   -0.9765241330   -1.6859032796
  H    1.9400789018   -1.5737452226   -0.0000013190
 }
 
 basis=cc-pvdz
 {rhf;maxit,200}
 {ccsd(t);maxit,200}

 Variables initialized (661), CPU time= 0.00 sec
 Commands  initialized (458), CPU time= 0.01 sec, 486 directives.
 Default parameters read. Elapsed time= 0.06 sec

 Checking input...
 Passed
1


                                         ***  PROGRAM SYSTEM MOLPRO  ***
                         Copyright, University College Cardiff Consultants Limited, 2008

                                    Version 2010.1 linked May 16 2016 07:17:05


 **********************************************************************************************************************************
 LABEL *   Optimization of min3                                                          
 Linux-4.4.3/n031(x86_64) 64 bit mpp version                                             DATE: 06-Nov-21          TIME: 15:39:46  
 **********************************************************************************************************************************

 SHA1:             9e8077add272b0f3cad6f7df79ec5211205f459d
 **********************************************************************************************************************************

 THRESHOLDS:

 ZERO    =  1.00D-12  ONEINT  =  1.00D-16  TWOINT  =  1.00D-16  PREFAC  =  1.00D-14  LOCALI  =  1.00D-09  EORDER  =  1.00D-04
 ENERGY  =  1.00D-12  ETEST   =  0.00D+00  EDENS   =  0.00D+00  THRDEDEF=  1.00D-06  GRADIENT=  1.00D-02  STEP    =  1.00D-03
 ORBITAL =  1.00D-10  CIVEC   =  1.00D-05  COEFF   =  1.00D-04  PRINTCI =  5.00D-02  PUNCHCI =  9.90D+01  OPTGRAD =  1.00D-06
 OPTENERG=  1.00D-06  OPTSTEP =  3.00D-04  THRGRAD =  1.00D-10  COMPRESS=  1.00D-13  VARMIN  =  1.00D-07  VARMAX  =  1.00D-03
 THRDOUB =  0.00D+00  THRDIV  =  1.00D-05  THRRED  =  1.00D-07  THRPSP  =  1.00D+00  THRDC   =  1.00D-10  THRCS   =  1.00D-10
 THRNRM  =  1.00D-08  THREQ   =  0.00D+00  THRDE   =  1.00D+00  THRREF  =  1.00D-05  SPARFAC =  1.00D+00  THRDLP  =  1.00D-07
 THRDIA  =  1.00D-10  THRDLS  =  1.00D-07  THRGPS  =  0.00D+00  THRKEX  =  0.00D+00  THRDIS  =  2.00D-01  THRVAR  =  1.00D-10
 THRLOC  =  1.00D-06  THRGAP  =  1.00D-06  THRLOCT = -1.00D+00  THRGAPT = -1.00D+00  THRORB  =  1.00D-06  THRMLTP =  0.00D+00
 THRCPQCI=  1.00D-10  KEXTA   =  0.00D+00  THRCOARS=  0.00D+00  SYMTOL  =  1.00D-06  GRADTOL =  1.00D-06  THROVL  =  1.00D-08
 THRORTH =  1.00D-08  GRID    =  1.00D-06  GRIDMAX =  1.00D-03  DTMAX   =  0.00D+00

 SETTING GEOMTYP        =    XYZ
 ZUNIT=BOHR
 

 Variable memory set to 1000000000 words,  buffer space   230000 words

 SETTING BASIS          =    CC-PVDZ


 Recomputing integrals since basis changed


 Using spherical harmonics

 Library entry C      S cc-pVDZ              selected for orbital group  1
 Library entry C      P cc-pVDZ              selected for orbital group  1
 Library entry C      D cc-pVDZ              selected for orbital group  1
 Library entry O      S cc-pVDZ              selected for orbital group  2
 Library entry O      P cc-pVDZ              selected for orbital group  2
 Library entry O      D cc-pVDZ              selected for orbital group  2
 Library entry H      S cc-pVDZ              selected for orbital group  3
 Library entry H      P cc-pVDZ              selected for orbital group  3

1PROGRAM * SEWARD (Integral evaluation for generally contracted gaussian basis sets)     Author: Roland Lindh, 1990

 Geometry written to block  1 of record 700


 Point group  C1  



 ATOMIC COORDINATES

 NR  ATOM    CHARGE       X              Y              Z

   1  C       6.00   -1.375341345   -0.023831606    0.000000326
   2  O       8.00    1.308776288    0.116458212    0.000000298
   3  H       1.00   -2.078773163    1.903903006   -0.000079556
   4  H       1.00   -2.109235976   -0.976392376    1.685975121
   5  H       1.00   -2.109228866   -0.976524133   -1.685903280
   6  H       1.00    1.940078902   -1.573745223   -0.000001319

 Bond lengths in Bohr (Angstrom)

 1-2  2.687781371  1-3  2.052066534  1-4  2.070865606  1-5  2.070865739  2-6  1.804253486
     ( 1.422312644)     ( 1.085906841)     ( 1.095854882)     ( 1.095854952)     ( 0.954769824)

 Bond angles

  1-2-6  107.48907067   2-1-3  107.05512864   2-1-4  112.20466381   2-1-5  112.20465461

  3-1-4  108.09911975   3-1-5  108.09897164   4-1-5  109.00145994

 NUCLEAR CHARGE:                   18
 NUMBER OF PRIMITIVE AOS:          82
 NUMBER OF SYMMETRY AOS:           80
 NUMBER OF CONTRACTIONS:           48   (  48A   )
 NUMBER OF CORE ORBITALS:           2   (   2A   )
 NUMBER OF VALENCE ORBITALS:       12   (  12A   )


 NUCLEAR REPULSION ENERGY   40.31048104


 Eigenvalues of metric

         1 0.966E-02 0.176E-01 0.367E-01 0.376E-01 0.378E-01 0.474E-01 0.479E-01 0.513E-01


 Contracted 2-electron integrals neglected if value below      1.0D-16
 AO integral compression algorithm  1   Integral accuracy      1.0D-16

     6.291 MB (compressed) written to integral file ( 98.1%)

     Node minimum: 6.291 MB, node maximum: 6.291 MB


 NUMBER OF SORTED TWO-ELECTRON INTEGRALS:     692076.     BUFFER LENGTH:  32768
 NUMBER OF SEGMENTS:   1  SEGMENT LENGTH:     692076      RECORD LENGTH: 524288

 Memory used in sort:       1.25 MW

 SORT1 READ      832256. AND WROTE      682148. INTEGRALS IN      2 RECORDS. CPU TIME:     0.01 SEC, REAL TIME:     0.02 SEC
 SORT2 READ      682148. AND WROTE      692076. INTEGRALS IN     24 RECORDS. CPU TIME:     0.02 SEC, REAL TIME:     0.02 SEC

 FILE SIZES:   FILE 1:     8.0 MBYTE,  FILE 4:     8.4 MBYTE,   TOTAL:     16.4 MBYTE

 OPERATOR DM      FOR CENTER  0  COORDINATES:    0.000000    0.000000    0.000000


 **********************************************************************************************************************************
 DATASETS  * FILE   NREC   LENGTH (MB)   RECORD NAMES
              1      19        8.03       500      610      700      900      950      970     1000      129      960     1100   
                                          VAR    BASINP    GEOM    SYMINP    ZMAT    AOBASIS   BASIS     P2S    ABASIS      S 
                                         1400     1410     1200     1210     1080     1600     1650     1300     1700   
                                           T        V       H0       H01     AOSYM     SMH    MOLCAS    ERIS     OPER   

 PROGRAMS   *        TOTAL       INT
 CPU TIMES  *         0.34      0.28
 REAL TIME  *         0.52 SEC
 DISK USED  *        23.33 MB      
 GA USED    *         0.00 MB       (max)       0.00 MB       (current)
 **********************************************************************************************************************************

1PROGRAM * RHF-SCF (CLOSED SHELL)       Authors: W. Meyer, H.-J. Werner


 NUMBER OF ELECTRONS:       9+    9-    SPACE SYMMETRY=1    SPIN SYMMETRY: Singlet 
 CONVERGENCE THRESHOLDS:    1.00E-10 (Density)    1.00E-13 (Energy)
 MAX. NUMBER OF ITERATIONS:      200
 INTERPOLATION TYPE:            DIIS
 INTERPOLATION STEPS:              2 (START)      1 (STEP)
 LEVEL SHIFTS:                  0.00 (CLOSED)  0.00 (OPEN) 



 Orbital guess generated from atomic densities. Full valence occupancy:   14

 Molecular orbital dump at record        2100.2

 ITERATION    DDIFF          GRAD             ENERGY        2-EL.EN.            DIPOLE MOMENTS         DIIS
    1      0.000D+00      0.000D+00      -115.01437624    164.380633   -0.50226   -0.89419   -0.00000    0
    2      0.000D+00      0.110D-01      -115.04268718    162.172266   -0.32067   -0.53267   -0.00000    1
    3      0.205D-01      0.529D-02      -115.04869993    163.191878   -0.40438   -0.60663   -0.00000    2
    4      0.638D-02      0.112D-02      -115.04915996    163.036924   -0.39381   -0.59575   -0.00000    3
    5      0.204D-02      0.200D-03      -115.04918052    163.043218   -0.39646   -0.59149   -0.00000    4
    6      0.430D-03      0.348D-04      -115.04918128    163.043365   -0.39670   -0.59129   -0.00000    5
    7      0.918D-04      0.718D-05      -115.04918131    163.042189   -0.39682   -0.59112   -0.00000    6
    8      0.146D-04      0.231D-05      -115.04918131    163.042559   -0.39685   -0.59110   -0.00000    7
    9      0.489D-05      0.474D-06      -115.04918131    163.042519   -0.39686   -0.59110   -0.00000    6
   10      0.136D-05      0.815D-07      -115.04918131    163.042518   -0.39686   -0.59110   -0.00000    6
   11      0.222D-06      0.304D-07      -115.04918131    163.042523   -0.39686   -0.59110   -0.00000    6
   12      0.548D-07      0.122D-07      -115.04918131    163.042521   -0.39686   -0.59110   -0.00000    7
   13      0.225D-07      0.276D-08      -115.04918131    163.042522   -0.39686   -0.59110   -0.00000    7
   14      0.684D-08      0.614D-09      -115.04918131    163.042522   -0.39686   -0.59110   -0.00000    7
   15      0.159D-08      0.139D-09      -115.04918131    163.042522   -0.39686   -0.59110   -0.00000    7
   16      0.307D-09      0.413D-10      -115.04918131    163.042522   -0.39686   -0.59110   -0.00000    7
   17      0.803D-10      0.147D-10      -115.04918131    163.042522   -0.39686   -0.59110   -0.00000    7
   18      0.376D-10      0.245D-11      -115.04918131    163.042522   -0.39686   -0.59110   -0.00000    0

 Final occupancy:   9

 !RHF STATE 1.1 Energy               -115.049181313671
 Nuclear energy                        40.31048104
 One-electron energy                 -236.88092320
 Two-electron energy                   81.52126084
 Virial quotient                       -1.00086890
 !RHF STATE 1.1 Dipole moment          -0.39685890    -0.59109839    -0.00000280
 Dipole moment /Debye                  -1.00864865    -1.50232386    -0.00000712

 Orbital energies:

         1.1          2.1          3.1          4.1          5.1          6.1          7.1          8.1          9.1         10.1
    -20.549438   -11.274835    -1.350336    -0.921980    -0.683035    -0.613560    -0.585381    -0.497322    -0.443313     0.184916

        11.1
      0.224755


 **********************************************************************************************************************************
 DATASETS  * FILE   NREC   LENGTH (MB)   RECORD NAMES
              1      19        8.03       500      610      700      900      950      970     1000      129      960     1100   
                                          VAR    BASINP    GEOM    SYMINP    ZMAT    AOBASIS   BASIS     P2S    ABASIS      S 
                                         1400     1410     1200     1210     1080     1600     1650     1300     1700   
                                           T        V       H0       H01     AOSYM     SMH    MOLCAS    ERIS     OPER   

              2       3        0.39       700     1000     2100   
                                         GEOM     BASIS     RHF  

 PROGRAMS   *        TOTAL       RHF       INT
 CPU TIMES  *         0.44      0.10      0.28
 REAL TIME  *         0.66 SEC
 DISK USED  *        23.33 MB      
 GA USED    *         0.00 MB       (max)       0.00 MB       (current)
 **********************************************************************************************************************************


1PROGRAM * CCSD (Closed-shell coupled cluster)     Authors: C. Hampel, H.-J. Werner, 1991, M. Deegan, P.J. Knowles, 1992


 Convergence thresholds:  THRVAR = 1.00D-08  THRDEN = 1.00D-12

 CCSD(T)     terms to be evaluated (factor= 1.000)


 Number of core orbitals:           2 (   2 )
 Number of closed-shell orbitals:   7 (   7 )
 Number of external orbitals:      39 (  39 )

 Molecular orbitals read from record     2100.2  Type=RHF/CANONICAL (state 1.1)

 Number of N-1 electron functions:               7
 Number of N-2 electron functions:              28
 Number of singly external CSFs:               273
 Number of doubly external CSFs:             37401
 Total number of CSFs:                       37675

 Length of J-op  integral file:               0.00 MB
 Length of K-op  integral file:               0.19 MB
 Length of 3-ext integral record:             0.00 MB

 Memory could be reduced to 0.96 Mwords without degradation in triples

 Integral transformation finished. Total CPU:   0.02 sec, npass=  1  Memory used:   0.66 MW

 Reference energy:                   -115.04918131

 MP2 singlet pair energy:              -0.21853059
 MP2 triplet pair energy:              -0.11977521
 MP2 correlation energy:               -0.33830580
 MP2 total energy:                   -115.38748712

 SCS-MP2 correlation energy:           -0.33676351   (PS=  1.200000  PT=  0.333333)
 SCS-MP2 total energy:               -115.38594482

 ITER.      SQ.NORM     CORR.ENERGY   TOTAL ENERGY   ENERGY CHANGE        DEN1      VAR(S)    VAR(P)  DIIS     TIME
   1      1.10722184    -0.36111938  -115.41030069    -0.02281358    -0.01414769  0.91D-03  0.17D-02  1  1     0.07
   2      1.11572875    -0.36305932  -115.41224064    -0.00193995    -0.00923665  0.20D-04  0.16D-03  2  2     0.12
   3      1.11760114    -0.36318629  -115.41236761    -0.00012697    -0.00119898  0.95D-05  0.86D-05  3  3     0.17
   4      1.11811393    -0.36318478  -115.41236609     0.00000152    -0.00025402  0.33D-06  0.67D-06  4  4     0.22
   5      1.11821166    -0.36318515  -115.41236647    -0.00000038    -0.00003597  0.98D-07  0.49D-07  5  5     0.27
   6      1.11823058    -0.36318381  -115.41236512     0.00000135    -0.00000435  0.16D-07  0.41D-08  6  6     0.32
   7      1.11823527    -0.36318339  -115.41236470     0.00000042    -0.00000035  0.20D-08  0.71D-09  6  1     0.37
   8      1.11823652    -0.36318349  -115.41236481    -0.00000010     0.00000074  0.25D-09  0.71D-10  6  3     0.42
   9      1.11823758    -0.36318337  -115.41236468     0.00000012    -0.00000038  0.12D-10  0.10D-10  6  2     0.47
  10      1.11823751    -0.36318337  -115.41236468    -0.00000000     0.00000007  0.11D-11  0.86D-12  6  5     0.52
  11      1.11823754    -0.36318337  -115.41236468     0.00000000    -0.00000000  0.19D-12  0.49D-13  6  4     0.57
  12      1.11823752    -0.36318337  -115.41236468    -0.00000000     0.00000001  0.18D-13  0.98D-14  6  1     0.62
  13      1.11823753    -0.36318337  -115.41236468    -0.00000000    -0.00000000  0.23D-14  0.92D-15  6  6     0.67
  14      1.11823753    -0.36318337  -115.41236468     0.00000000    -0.00000000  0.22D-15  0.12D-15  6  3     0.73
  15      1.11823753    -0.36318337  -115.41236468    -0.00000000    -0.00000000  0.24D-16  0.16D-16  6  2     0.78
  16      1.11823753    -0.36318337  -115.41236468    -0.00000000    -0.00000000  0.54D-17  0.16D-17  6  5     0.83
  17      1.11823753    -0.36318337  -115.41236468    -0.00000000    -0.00000000  0.52D-18  0.25D-18  6  4     0.88
  18      1.11823753    -0.36318337  -115.41236468     0.00000000    -0.00000000  0.81D-19  0.41D-19  6  1     0.93
  19      1.11823753    -0.36318337  -115.41236468    -0.00000000    -0.00000000  0.90D-20  0.42D-20  6  6     0.98
  20      1.11823753    -0.36318337  -115.41236468     0.00000000     0.00000000  0.13D-20  0.54D-21  6  3     1.02

 Norm of t1 vector:      0.04159078      S-energy:    -0.00000000      T1 diagnostic:  0.00785992
                                                                       D1 diagnostic:  0.01753535


 Total CPU time for triples:      0.25 sec


 RESULTS
 =======

  Reference energy                   -115.049181313671
  CCSD singlet pair energy             -0.254456303698
  CCSD triplet pair energy             -0.108727066850
  CCSD correlation energy              -0.363183370548

  Triples (T) contribution             -0.007726987233
  Total correlation energy             -0.370910357781

  CCSD total energy                  -115.412364684220
  CCSD[T] energy                     -115.420381214945
  CCSD-T energy                      -115.419941875225
 !CCSD(T) total energy               -115.420091671453

 Timing summary (sec):

 STEP                 CPU(USER)    SYS     CPU(TOT)    WALL
 Transformation          0.02      0.00      0.02      0.03
 CCSD iterations         1.00      0.05      1.05      1.08
 Triples                 0.25      0.01      0.26      0.25

 Program statistics:

 Available memory in ccsd:               999999704
 Min. memory needed in ccsd:                136801
 Max. memory used in ccsd:                  163198
 Max. memory used in cckext:                182024 (20 integral passes)



 **********************************************************************************************************************************
 DATASETS  * FILE   NREC   LENGTH (MB)   RECORD NAMES
              1      20       10.56       500      610      700      900      950      970     1000      129      960     1100   
                                          VAR    BASINP    GEOM    SYMINP    ZMAT    AOBASIS   BASIS     P2S    ABASIS      S 
                                         1400     1410     1200     1210     1080     1600     1650     1300     1700     1380   
                                           T        V       H0       H01     AOSYM     SMH    MOLCAS    ERIS     OPER     JKOP   

              2       3        0.39       700     1000     2100   
                                         GEOM     BASIS     RHF  

 PROGRAMS   *        TOTAL   CCSD(T)       RHF       INT
 CPU TIMES  *         1.73      1.28      0.10      0.28
 REAL TIME  *         2.05 SEC
 DISK USED  *        24.76 MB      
 GA USED    *         0.00 MB       (max)       0.00 MB       (current)
 **********************************************************************************************************************************

        CCSD(T)         RHF-SCF 
   -115.42009167   -115.04918131
 **********************************************************************************************************************************
 Variable memory released
