
 Working directory              : /scratch/mel64643/tmp/40073402/
 Global scratch directory       : /scratch/mel64643/tmp/40073402/
 Wavefunction directory         : /home/mel64643/wfu/
 Main file repository           : /scratch/mel64643/tmp/40073402/

 id        : ccgc

 Nodes     nprocs
 a1-8         3
 Distribution of processes:   nprocs(total)=    4   nprocs(compute)=    3   nprocs(helper)=    1
 GA implementation: MPI file
 GA implementation (serial work in mppx): MPI file

 Using customized tuning parameters: mindgm=1; mindgv=20; mindgc=4; mindgr=1; noblas=0; minvec=7
 default implementation of scratch files=sf  


 Variables initialized (1015), CPU time= 0.01 sec
 ***,Optimization of min3
 memory,1000,m
 gthresh,energy=1.0d-12,orbital=1.0d-10,oneint=1.0d-16,twoint=1.0d-16,optgrad=1.0d-6,compress=1.0d-13
 geomtyp=xyz
 
  bohr
  geometry = {
  6
  arbitrary comment
  C   -1.3749147508   -0.0269778718    0.0027753628
  O    1.3048468514    0.1205792206    0.0003974403
  H   -2.0799931624    1.9215178562    0.0089296017
  H   -2.1056094226   -0.9746193522    1.6672391326
  H   -2.1094823602   -0.9918106865   -1.6800530406
  H    1.9414286845   -1.5788212863    0.0007030932
 }
 
 basis=cc-pvdz
 {rhf;maxit,200}
 {ccsd(t);maxit,200}
 Commands initialized (818), CPU time= 0.01 sec, 672 directives.
 Default parameters read. Elapsed time= 0.09 sec

 Checking input...
 Passed
1


                                         ***  PROGRAM SYSTEM MOLPRO  ***
                                       Copyright, TTI GmbH Stuttgart, 2015
                                    Version 2022.1 linked Mar  4 2022 00:40:14


 **********************************************************************************************************************************
 LABEL *   Optimization of min3                                                          
  64 bit mpp version                                                                     DATE: 07-Aug-25          TIME: 21:26:56  
 **********************************************************************************************************************************

 SHA1:             31073afc4d8441e10870424e0d77336a33bc4286
 **********************************************************************************************************************************

 Memory per process:      1000 MW
 Total memory per node:   3000 MW

 GA preallocation disabled
 GA check disabled

 Variable memory set to 1000.0 MW


 THRESHOLDS:

 ZERO    =  1.00D-12  ONEINT  =  1.00D-16  TWOINT  =  1.00D-16  PREFAC  =  1.00D-14  XXXXXX  =  1.00D-09  EORDER  =  1.00D-04
 ENERGY  =  1.00D-12  ETEST   =  0.00D+00  EDENS   =  0.00D+00  THRDEDEF=  1.00D-06  GRADIENT=  1.00D-05  STEP    =  1.00D-03
 ORBITAL =  1.00D-10  CIVEC   =  1.00D-05  COEFF   =  1.00D-04  PRINTCI =  5.00D-02  PUNCHCI =  9.90D+01  OPTGRAD =  1.00D-06
 OPTENERG=  1.00D-06  OPTSTEP =  3.00D-04  THRGRAD =  1.00D-10  COMPRESS=  1.00D-13  VARMIN  =  1.00D-07  VARMAX  =  1.00D-03
 THRDOUB =  0.00D+00  THRDIV  =  1.00D-05  THRRED  =  1.00D-07  THRPSP  =  1.00D+00  THRDC   =  1.00D-10  THRCS   =  1.00D-10
 THRNRM  =  1.00D-08  THREQ   =  0.00D+00  THRDE   =  1.00D+00  THRREF  =  1.00D-05  SPARFAC =  1.00D+00  THRDLP  =  1.00D-07
 THRDIA  =  1.00D-10  THRDLS  =  1.00D-07  THRGPS  =  0.00D+00  THRKEX  =  0.00D+00  THRDIS  =  2.00D-01  THRVAR  =  1.00D-10
 THRLOC  =  1.00D-06  THRGAP  =  1.00D-06  THRLOCT = -1.00D+00  THRGAPT = -1.00D+00  THRORB  =  1.00D-06  THRMLTP =  0.00D+00
 THRCPQCI=  1.00D-10  KEXTA   =  0.00D+00  THRCOARS=  0.00D+00  SYMTOL  =  1.00D-06  GRADTOL =  1.00D-06  THROVL  =  1.00D-08
 THRORTH =  1.00D-08  THRDLOVL= -1.00D+00  GRID    =  1.00D-06  GRIDMAX =  1.00D-03  DTMAX   =  0.00D+00  THROCCDE=  1.00D-01
 THROCCDE=  1.00D-01  THRPRINT=  2.50D-01

 SETTING GEOMTYP        =    XYZ
 ZUNIT=BOHR

 SETTING BASIS          =    CC-PVDZ


 Recomputing integrals since basis changed


 Using spherical harmonics

 Library entry C      S cc-pVDZ              selected for orbital group  1
 Library entry C      P cc-pVDZ              selected for orbital group  1
 Library entry C      D cc-pVDZ              selected for orbital group  1
 Library entry O      S cc-pVDZ              selected for orbital group  2
 Library entry O      P cc-pVDZ              selected for orbital group  2
 Library entry O      D cc-pVDZ              selected for orbital group  2
 Library entry H      S cc-pVDZ              selected for orbital group  3
 Library entry H      P cc-pVDZ              selected for orbital group  3


 PROGRAM * SEWARD (Integral evaluation for generally contracted gaussian basis sets)     Author: Roland Lindh, 1990

 Geometry written to block  1 of record 700


 Point group  C1  



 ATOMIC COORDINATES

 NR  ATOM    CHARGE       X              Y              Z

   1  C       6.00   -1.374914751   -0.026977872    0.002775363
   2  O       8.00    1.304846851    0.120579221    0.000397440
   3  H       1.00   -2.079993162    1.921517856    0.008929602
   4  H       1.00   -2.105609423   -0.974619352    1.667239133
   5  H       1.00   -2.109482360   -0.991810687   -1.680053041
   6  H       1.00    1.941428684   -1.578821286    0.000703093

 Bond lengths in Bohr (Angstrom)

 1-2  2.683822087  1-3  2.072150825  1-4  2.049970419  1-5  2.074223558  2-6  1.814717225
     ( 1.420217487)     ( 1.096534994)     ( 1.084797629)     ( 1.097631837)     ( 0.960307000)

 Bond angles

  1-2-6  107.38380731   2-1-3  106.74140350   2-1-4  112.45994334   2-1-5  112.23836243

  3-1-4  108.11885454   3-1-5  108.62083286   4-1-5  108.51046546

 NUCLEAR CHARGE:                   18
 NUMBER OF PRIMITIVE AOS:          82
 NUMBER OF SYMMETRY AOS:           80
 NUMBER OF CONTRACTIONS:           48   (   48A   )
 NUMBER OF INNER CORE ORBITALS:     0   (    0A   )
 NUMBER OF OUTER CORE ORBITALS:     2   (    2A   )
 NUMBER OF VALENCE ORBITALS:       12   (   12A   )


 NUCLEAR REPULSION ENERGY   40.31152090

 Eigenvalues of metric

         1 0.966E-02 0.177E-01 0.365E-01 0.375E-01 0.385E-01 0.468E-01 0.480E-01 0.523E-01


 Contracted 2-electron integrals neglected if value below      1.0D-16
 AO integral compression algorithm  1   Integral accuracy      1.0D-16

     7.340 MB (compressed) written to integral file (100.0%)

     Node minimum: 2.359 MB, node maximum: 2.621 MB


 NUMBER OF SORTED TWO-ELECTRON INTEGRALS:     231084.     BUFFER LENGTH:  32768
 NUMBER OF SEGMENTS:   1  SEGMENT LENGTH:     231084      RECORD LENGTH: 524288

 Memory used in sort:       0.79 MW

 SORT1 READ      832256. AND WROTE      227683. INTEGRALS IN      1 RECORDS. CPU TIME:     0.01 SEC, REAL TIME:     0.02 SEC
 SORT2 READ      682150. AND WROTE      692076. INTEGRALS IN     27 RECORDS. CPU TIME:     0.01 SEC, REAL TIME:     0.01 SEC

 Node minimum:      230300.  Node maximum:      231084. integrals

 OPERATOR DM      FOR CENTER  0  COORDINATES:    0.000000    0.000000    0.000000


 **********************************************************************************************************************************
 DATASETS  * FILE   NREC   LENGTH (MB)   RECORD NAMES
              1      18       28.73       500      610      700      900      950      970     1000      129      960     1100   
                                          VAR    BASINP    GEOM    SYMINP    ZMAT    AOBASIS   BASIS     P2S    ABASIS      S 
                                         1400     1410     1200     1210     1080     1600     1650     1700   
                                           T        V       H0       H01     AOSYM     SMH    MOLCAS    OPER   

 PROGRAMS   *        TOTAL       INT
 CPU TIMES  *         0.37      0.24
 REAL TIME  *         1.28 SEC
 DISK USED  *        29.07 MB (local),      104.69 MB (total)
 GA USED    *         0.00 MB       (max)       0.00 MB       (current)
 **********************************************************************************************************************************


 Program * Restricted Hartree-Fock

 Orbital guess generated from atomic densities. Full valence occupancy:   14

 Initial occupancy:   9

 NELEC=   18   SYM=1   MS2= 0   THRE=1.0D-12   THRD=1.0D-10   THRG=1.0D-10  HFMA2=F  DIIS_START=2   DIIS_MAX=10   DIIS_INCORE=F

 Level shifts:    0.00 (CLOSED)    0.00 (OPEN)    0.30 (GAP_MIN)

 ITER           ETOT              DE          GRAD        DDIFF     DIIS  NEXP   TIME(IT)  TIME(TOT)  DIAG
   1     -115.01411336    -115.01411336     0.00D+00     0.16D+00     0     0       0.01      0.01    start
   2     -115.04246554      -0.02835219     0.10D-01     0.20D-01     1     0       0.00      0.01    diag
   3     -115.04849590      -0.00603036     0.48D-02     0.64D-02     2     0       0.00      0.01    diag
   4     -115.04896040      -0.00046450     0.10D-02     0.20D-02     3     0       0.00      0.01    diag
   5     -115.04898151      -0.00002111     0.19D-03     0.43D-03     4     0       0.01      0.02    diag
   6     -115.04898232      -0.00000081     0.33D-04     0.93D-04     5     0       0.01      0.03    diag
   7     -115.04898235      -0.00000003     0.68D-05     0.15D-04     6     0       0.00      0.03    diag
   8     -115.04898235      -0.00000000     0.22D-05     0.51D-05     7     0       0.00      0.03    fixocc
   9     -115.04898236      -0.00000000     0.45D-06     0.14D-05     8     0       0.00      0.03    diag
  10     -115.04898236      -0.00000000     0.74D-07     0.24D-06     9     0       0.00      0.03    diag/orth
  11     -115.04898236      -0.00000000     0.18D-07     0.49D-07     9     0       0.01      0.04    diag
  12     -115.04898236      -0.00000000     0.46D-08     0.14D-07     9     0       0.00      0.04    diag
  13     -115.04898236      -0.00000000     0.71D-09     0.20D-08     9     0       0.00      0.04    diag
  14     -115.04898236       0.00000000     0.16D-09     0.42D-09     9     0       0.00      0.04    diag
  15     -115.04898236      -0.00000000     0.70D-10     0.13D-09     9     0       0.00      0.04    diag
  16     -115.04898236      -0.00000000     0.21D-10     0.48D-10     9     0       0.01      0.05    diag
  17     -115.04898236       0.00000000     0.54D-11     0.88D-11     0     0       0.00      0.05    diag

 Final occupancy:   9

 !RHF STATE 1.1 Energy               -115.048982355108
  RHF One-electron energy            -236.886618268804
  RHF Two-electron energy              81.526115009533
  RHF Kinetic energy                  114.941929165413
  RHF Nuclear energy                   40.311520904163
  RHF Virial quotient                  -1.000931367609

 !RHF STATE 1.1 Dipole moment          -0.39189523    -0.59955457     0.00580248
 Dipole moment /Debye                  -0.99609831    -1.52391572     0.01474842

 Orbital energies:

           1.1          2.1          3.1          4.1          5.1          6.1          7.1          8.1          9.1         10.1
    -20.550033   -11.274682    -1.349953    -0.921038    -0.683312    -0.614253    -0.583791    -0.496873    -0.443260     0.184474

          11.1
      0.224292


 HOMO      9.1    -0.443260 =     -12.0617eV
 LUMO     10.1     0.184474 =       5.0198eV
 LUMO-HOMO         0.627734 =      17.0815eV

 Orbitals saved in record  2100.2


 **********************************************************************************************************************************
 DATASETS  * FILE   NREC   LENGTH (MB)   RECORD NAMES
              1      18       28.73       500      610      700      900      950      970     1000      129      960     1100   
                                          VAR    BASINP    GEOM    SYMINP    ZMAT    AOBASIS   BASIS     P2S    ABASIS      S 
                                         1400     1410     1200     1210     1080     1600     1650     1700   
                                           T        V       H0       H01     AOSYM     SMH    MOLCAS    OPER   

              2       4        0.47       700     1000      520     2100   
                                         GEOM     BASIS   MCVARS     RHF  

 PROGRAMS   *        TOTAL   RHF-SCF       INT
 CPU TIMES  *         0.42      0.05      0.24
 REAL TIME  *         1.51 SEC
 DISK USED  *        29.40 MB (local),      105.68 MB (total)
 GA USED    *         0.00 MB       (max)       0.00 MB       (current)
 **********************************************************************************************************************************


 PROGRAM * CCSD (Closed-shell coupled cluster)     Authors: C. Hampel, H.-J. Werner, 1991, M. Deegan, P.J. Knowles, 1992


 Convergence thresholds:  THRVAR = 1.00D-08  THRDEN = 1.00D-12

 CCSD(T)     terms to be evaluated (factor= 1.000)


 Number of core orbitals:           2 (   2 )
 Number of closed-shell orbitals:   7 (   7 )
 Number of external orbitals:      39 (  39 )

 Molecular orbitals read from record     2100.2  Type=RHF/CANONICAL  

 Number of N-1 electron functions:               7
 Number of N-2 electron functions:              28
 Number of singly external CSFs:               273
 Number of doubly external CSFs:             37401
 Total number of CSFs:                       37675

 Length of J-op  integral file:               0.00 MB
 Length of K-op  integral file:               0.16 MB
 Length of 3-ext integral record:             0.00 MB

 Memory could be reduced to 0.73 Mwords without degradation in triples

 Integral transformation finished. Total CPU:   0.02 sec, npass=  1  Memory used:   0.66 MW

 Reference energy:                   -115.04898236

 MP2 singlet pair energy:              -0.21866930
 MP2 triplet pair energy:              -0.11984695
 MP2 correlation energy:               -0.33851625
 MP2 total energy:                   -115.38749860

 SCS-MP2 correlation energy:           -0.33697460   (PS=  1.200000  PT=  0.333333)
 SCS-MP2 total energy:               -115.38595695

 ITER.      SQ.NORM     CORR.ENERGY   TOTAL ENERGY   ENERGY CHANGE        DEN1      VAR(S)    VAR(P)  DIIS     TIME  TIME/IT
   1      1.10735915    -0.36131622  -115.41029857    -0.02279997    -0.01411673  0.91D-03  0.17D-02  1  1     0.05     0.04
   2      1.11589129    -0.36326341  -115.41224576    -0.00194719    -0.00925407  0.20D-04  0.16D-03  2  2     0.07     0.04
   3      1.11777599    -0.36339100  -115.41237336    -0.00012760    -0.00120587  0.95D-05  0.86D-05  3  3     0.08     0.04
   4      1.11829197    -0.36338976  -115.41237211     0.00000125    -0.00025515  0.33D-06  0.67D-06  4  4     0.10     0.03
   5      1.11839018    -0.36339019  -115.41237254    -0.00000043    -0.00003605  0.99D-07  0.49D-07  5  5     0.12     0.03
   6      1.11840922    -0.36338883  -115.41237118     0.00000136    -0.00000435  0.16D-07  0.41D-08  6  6     0.14     0.04
   7      1.11841398    -0.36338841  -115.41237077     0.00000042    -0.00000035  0.20D-08  0.72D-09  6  1     0.16     0.04
   8      1.11841525    -0.36338851  -115.41237087    -0.00000010     0.00000075  0.26D-09  0.72D-10  6  3     0.18     0.04
   9      1.11841631    -0.36338839  -115.41237075     0.00000012    -0.00000038  0.13D-10  0.10D-10  6  2     0.20     0.04
  10      1.11841637    -0.36338839  -115.41237074     0.00000000     0.00000000  0.14D-11  0.12D-11  6  4     0.22     0.04
  11      1.11841633    -0.36338839  -115.41237074     0.00000000     0.00000003  0.33D-12  0.86D-13  6  5     0.24     0.03
  12      1.11841628    -0.36338839  -115.41237075    -0.00000000     0.00000003  0.34D-13  0.13D-13  6  6     0.26     0.03
  13      1.11841626    -0.36338839  -115.41237075    -0.00000000     0.00000001  0.41D-14  0.16D-14  6  3     0.27     0.03
  14      1.11841626    -0.36338839  -115.41237075    -0.00000000     0.00000000  0.39D-15  0.16D-15  6  1     0.29     0.03
  15      1.11841626    -0.36338839  -115.41237075     0.00000000    -0.00000000  0.72D-16  0.36D-16  6  2     0.31     0.03
  16      1.11841626    -0.36338839  -115.41237075     0.00000000    -0.00000000  0.11D-16  0.31D-17  6  4     0.33     0.03
  17      1.11841626    -0.36338839  -115.41237075    -0.00000000     0.00000000  0.23D-17  0.45D-18  6  5     0.35     0.03
  18      1.11841626    -0.36338839  -115.41237075    -0.00000000    -0.00000000  0.51D-18  0.11D-18  6  6     0.37     0.03
  19      1.11841626    -0.36338839  -115.41237075     0.00000000    -0.00000000  0.34D-19  0.13D-19  6  1     0.39     0.03
  20      1.11841626    -0.36338839  -115.41237075     0.00000000     0.00000000  0.42D-20  0.15D-20  6  3     0.41     0.03
  21      1.11841626    -0.36338839  -115.41237075    -0.00000000     0.00000000  0.11D-20  0.31D-21  6  2     0.42     0.03

 Norm of t1 vector:      0.04165767      S-energy:     0.00000000      T1 diagnostic:  0.00787256
                                                                       D1 diagnostic:  0.01751784
                                                                       D2 diagnostic:  0.13467421 (internal)


 Total CPU time for triples:      0.09 sec


 RESULTS
 =======

  Reference energy                   -115.048982355108
  CCSD singlet pair energy             -0.254633383647
  CCSD triplet pair energy             -0.108755009098
  CCSD correlation energy              -0.363388392744

  Triples (T) contribution             -0.007739274068
  Total correlation energy             -0.371127666812

  CCSD total energy                  -115.412370747853
  CCSD[T] energy                     -115.420399915649
  CCSD-T energy                      -115.419960099605
 !CCSD(T) total energy               -115.420110021921

 Timing summary (sec):

 STEP                 CPU(USER)    SYS     CPU(TOT)    WALL
 Transformation          0.03      0.01      0.04      0.04
 CCSD iterations         0.39      0.07      0.46      0.69
 Triples                 0.09      0.01      0.10      0.09

 Program statistics:

 Available memory in ccsd:               999999795
 Min. memory needed in ccsd:                136177
 Max. memory used in ccsd:                  162910
 Max. memory used in cckext:                178997 (21 integral passes)



 **********************************************************************************************************************************
 DATASETS  * FILE   NREC   LENGTH (MB)   RECORD NAMES
              1      19       31.13       500      610      700      900      950      970     1000      129      960     1100   
                                          VAR    BASINP    GEOM    SYMINP    ZMAT    AOBASIS   BASIS     P2S    ABASIS      S 
                                         1400     1410     1200     1210     1080     1600     1650     1700     1380   
                                           T        V       H0       H01     AOSYM     SMH    MOLCAS    OPER     JKOP   

              2       4        0.47       700     1000      520     2100   
                                         GEOM     BASIS   MCVARS     RHF  

 PROGRAMS   *        TOTAL   CCSD(T)   RHF-SCF       INT
 CPU TIMES  *         0.96      0.54      0.05      0.24
 REAL TIME  *         2.38 SEC
 DISK USED  *        35.56 MB (local),      116.33 MB (total)
 SF USED    *         5.97 MB
 GA USED    *         0.00 MB       (max)       0.00 MB       (current)
 **********************************************************************************************************************************

 CCSD(T)/cc-pVDZ energy=   -115.420110021921

         CCSD(T)         RHF-SCF
   -115.42011002   -115.04898236
 **********************************************************************************************************************************
 Molpro calculation terminated
