
 Primary working directories    : /tmp/333988.54.gen4.q
 Secondary working directories  : /tmp/333988.54.gen4.q
 Wavefunction directory         : /home/vulcan/mel64643/wfu/
 Main file repository           : /tmp/333988.54.gen4.q/

 ARCHNAME  : Linux/x86_64
 FC        : /opt/intel/compilers_and_libraries_2016.1.150/linux/bin/intel64/ifort
 FCVERSION : 16.0.1
 BLASLIB   : -mkl
 id        : ccgc

 Nodes     nprocs
 n024         3
 Number of processes for MPI-2 version of Molpro:   nprocs(total)=    4   nprocs(compute)=    3   nprocs(helper)=    1
 ga_uses_ma=false, calling ma_init with nominal heap.
 GA-space will be limited to   8.0 MW (determined by -G option)

 Using customized tuning parameters: mindgm=10; mindgv=16; mindgc=4; mindgr=1; noblas=0; mincuda=1000; minvec=7
 default implementation of scratch files=sf  

 ***,Optimization of min3
 memory,1000,m
 gthresh,energy=1.0d-10,orbital=1.0d-10,oneint=1.0d-16,twoint=1.0d-16,optgrad=1.0d-6,compress=1.0d-13
 geomtyp=xyz
 
  bohr
  geometry = {
  12
  arbitrary comment
  C         -3.1019396650          1.5861882559          0.0187460134
  C         -0.8640742698         -0.0710298903         -0.6559657876
  C         -1.1170324714         -2.7790923815          0.2487168021
  O          1.3114910474          1.1049410789          0.5889827627
  O          3.4492796324          0.1200671304         -0.2518183006
  H         -4.7967021617          0.8508668348         -0.8725436646
  H         -2.8069430099          3.5200290696         -0.6180094131
  H         -3.3945300501          1.5972187654          2.0746272186
  H         -0.4596243893         -0.0042380358         -2.6792593065
  H         -2.7144472751         -3.7022330748         -0.7277191195
  H         -1.4677285819         -2.8233161626          2.2585987222
  H          0.6060527255         -3.8306508440         -0.1609008035
 }
 
 basis=cc-pvtz
 {rhf;maxit,200}
 {uccsd(t);maxit,200}

 Variables initialized (661), CPU time= 0.00 sec
 Commands  initialized (458), CPU time= 0.01 sec, 486 directives.
 Default parameters read. Elapsed time= 0.05 sec

 Checking input...
 Passed
1


                                         ***  PROGRAM SYSTEM MOLPRO  ***
                         Copyright, University College Cardiff Consultants Limited, 2008

                                    Version 2010.1 linked May 16 2016 07:17:05


 **********************************************************************************************************************************
 LABEL *   Optimization of min3                                                          
 Linux-4.4.3/n024(x86_64) 64 bit mpp version                                             DATE: 15-Jul-20          TIME: 20:09:23  
 **********************************************************************************************************************************

 SHA1:             9e8077add272b0f3cad6f7df79ec5211205f459d
 **********************************************************************************************************************************

 THRESHOLDS:

 ZERO    =  1.00D-12  ONEINT  =  1.00D-16  TWOINT  =  1.00D-16  PREFAC  =  1.00D-14  LOCALI  =  1.00D-09  EORDER  =  1.00D-04
 ENERGY  =  1.00D-10  ETEST   =  0.00D+00  EDENS   =  0.00D+00  THRDEDEF=  1.00D-06  GRADIENT=  1.00D-02  STEP    =  1.00D-03
 ORBITAL =  1.00D-10  CIVEC   =  1.00D-05  COEFF   =  1.00D-04  PRINTCI =  5.00D-02  PUNCHCI =  9.90D+01  OPTGRAD =  1.00D-06
 OPTENERG=  1.00D-06  OPTSTEP =  3.00D-04  THRGRAD =  1.00D-10  COMPRESS=  1.00D-13  VARMIN  =  1.00D-07  VARMAX  =  1.00D-03
 THRDOUB =  0.00D+00  THRDIV  =  1.00D-05  THRRED  =  1.00D-07  THRPSP  =  1.00D+00  THRDC   =  1.00D-10  THRCS   =  1.00D-10
 THRNRM  =  1.00D-08  THREQ   =  0.00D+00  THRDE   =  1.00D+00  THRREF  =  1.00D-05  SPARFAC =  1.00D+00  THRDLP  =  1.00D-07
 THRDIA  =  1.00D-10  THRDLS  =  1.00D-07  THRGPS  =  0.00D+00  THRKEX  =  0.00D+00  THRDIS  =  2.00D-01  THRVAR  =  1.00D-10
 THRLOC  =  1.00D-06  THRGAP  =  1.00D-06  THRLOCT = -1.00D+00  THRGAPT = -1.00D+00  THRORB  =  1.00D-06  THRMLTP =  0.00D+00
 THRCPQCI=  1.00D-10  KEXTA   =  0.00D+00  THRCOARS=  0.00D+00  SYMTOL  =  1.00D-06  GRADTOL =  1.00D-06  THROVL  =  1.00D-08
 THRORTH =  1.00D-08  GRID    =  1.00D-06  GRIDMAX =  1.00D-03  DTMAX   =  0.00D+00

 SETTING GEOMTYP        =    XYZ
 ZUNIT=BOHR
 

 Variable memory set to 1000000000 words,  buffer space   230000 words

 SETTING BASIS          =    CC-PVTZ


 Recomputing integrals since basis changed


 Using spherical harmonics

 Library entry C      S cc-pVTZ              selected for orbital group  1
 Library entry C      P cc-pVTZ              selected for orbital group  1
 Library entry C      D cc-pVTZ              selected for orbital group  1
 Library entry C      F cc-pVTZ              selected for orbital group  1
 Library entry O      S cc-pVTZ              selected for orbital group  2
 Library entry O      P cc-pVTZ              selected for orbital group  2
 Library entry O      D cc-pVTZ              selected for orbital group  2
 Library entry O      F cc-pVTZ              selected for orbital group  2
 Library entry H      S cc-pVTZ              selected for orbital group  3
 Library entry H      P cc-pVTZ              selected for orbital group  3
 Library entry H      D cc-pVTZ              selected for orbital group  3

1PROGRAM * SEWARD (Integral evaluation for generally contracted gaussian basis sets)     Author: Roland Lindh, 1990

 Geometry written to block  1 of record 700


 Point group  C1  



 ATOMIC COORDINATES

 NR  ATOM    CHARGE       X              Y              Z

   1  C       6.00   -3.101939665    1.586188256    0.018746013
   2  C       6.00   -0.864074270   -0.071029890   -0.655965788
   3  C       6.00   -1.117032471   -2.779092381    0.248716802
   4  O       8.00    1.311491047    1.104941079    0.588982763
   5  O       8.00    3.449279632    0.120067130   -0.251818301
   6  H       1.00   -4.796702162    0.850866835   -0.872543665
   7  H       1.00   -2.806943010    3.520029070   -0.618009413
   8  H       1.00   -3.394530050    1.597218765    2.074627219
   9  H       1.00   -0.459624389   -0.004238036   -2.679259307
  10  H       1.00   -2.714447275   -3.702233075   -0.727719120
  11  H       1.00   -1.467728582   -2.823316163    2.258598722
  12  H       1.00    0.606052726   -3.830650844   -0.160900803

 Bond lengths in Bohr (Angstrom)

 1-2  2.865248598  1-6  2.051174006  1-7  2.057236202  1-8  2.076626672  2-3  2.866363706
     ( 1.516224256)     ( 1.085434536)     ( 1.088642512)     ( 1.098903507)     ( 1.516814346)

  2- 4  2.768734199   2- 9  2.064402461   3-10  2.087426622   3-11  2.040727527   3-12  2.059753475
       ( 1.465151036)       ( 1.092434733)       ( 1.104618594)       ( 1.079906497)       ( 1.089974595)

 4-5  2.499412562
     ( 1.322632164)

 Bond angles

  1-2-3  113.77795920   1-2-4  105.19868555   1-2-9  111.41352523   2-1-6  109.61250563

  2- 1- 7  111.02717156   2- 1- 8  110.25791157   2- 3-10  109.73750738   2- 3-11  110.27273017

  2- 3-12  110.22690971   2- 4- 5  110.69859852   3- 2- 4  109.19002737   3- 2- 9  110.92786274

  4-2-9  105.84323269   6-1-7  108.72155826   6-1-8  108.40157685   7-1-8  108.76204187

 10- 3-11  108.63923103  10- 3-12  108.74611583  11- 3-12  109.18126303

 NUCLEAR CHARGE:                   41
 NUMBER OF PRIMITIVE AOS:         354
 NUMBER OF SYMMETRY AOS:          322
 NUMBER OF CONTRACTIONS:          248   ( 248A   )
 NUMBER OF CORE ORBITALS:           5   (   5A   )
 NUMBER OF VALENCE ORBITALS:       27   (  27A   )


 NUCLEAR REPULSION ENERGY  186.62399908


 Eigenvalues of metric

         1 0.808E-03 0.960E-03 0.110E-02 0.124E-02 0.136E-02 0.148E-02 0.159E-02 0.164E-02


 Contracted 2-electron integrals neglected if value below      1.0D-16
 AO integral compression algorithm  1   Integral accuracy      1.0D-16

     3371.696 MB (compressed) written to integral file ( 82.1%)

     Node minimum: 1079.771 MB, node maximum: 1149.239 MB


 NUMBER OF SORTED TWO-ELECTRON INTEGRALS:  158903334.     BUFFER LENGTH:  32768
 NUMBER OF SEGMENTS:  10  SEGMENT LENGTH:   15997437      RECORD LENGTH: 524288

 Memory used in sort:      16.55 MW

 SORT1 READ   513535872. AND WROTE   152611950. INTEGRALS IN    442 RECORDS. CPU TIME:    23.49 SEC, REAL TIME:    27.72 SEC
 SORT2 READ   459343901. AND WROTE   476679126. INTEGRALS IN  12357 RECORDS. CPU TIME:     1.33 SEC, REAL TIME:    16.34 SEC

 Node minimum:   158882750.  Node maximum:   158903334. integrals

 OPERATOR DM      FOR CENTER  0  COORDINATES:    0.000000    0.000000    0.000000


 **********************************************************************************************************************************
 DATASETS  * FILE   NREC   LENGTH (MB)   RECORD NAMES
              1      18        5.04       500      610      700      900      950      970     1000      129      960     1100   
                                          VAR    BASINP    GEOM    SYMINP    ZMAT    AOBASIS   BASIS     P2S    ABASIS      S 
                                         1400     1410     1200     1210     1080     1600     1650     1700   
                                           T        V       H0       H01     AOSYM     SMH    MOLCAS    OPER   

 PROGRAMS   *        TOTAL       INT
 CPU TIMES  *        33.74     33.67
 REAL TIME  *        54.37 SEC
 DISK USED  *         8.85 GB      
 GA USED    *         0.01 MB       (max)       0.00 MB       (current)
 **********************************************************************************************************************************

1PROGRAM * RHF-SCF (OPEN SHELL)       Authors: W. Meyer, H.-J. Werner


 NUMBER OF ELECTRONS:      21+   20-    SPACE SYMMETRY=1    SPIN SYMMETRY: Doublet 
 CONVERGENCE THRESHOLDS:    1.00E-10 (Density)    1.00E-11 (Energy)
 MAX. NUMBER OF ITERATIONS:      200
 INTERPOLATION TYPE:            DIIS
 INTERPOLATION STEPS:              2 (START)      1 (STEP)
 LEVEL SHIFTS:                 -0.30 (CLOSED)  0.00 (OPEN) 



 Orbital guess generated from atomic densities. Full valence occupancy:   32

 Molecular orbital dump at record        2100.2

 ITERATION    DDIFF          GRAD             ENERGY        2-EL.EN.            DIPOLE MOMENTS         DIIS
    1      0.000D+00      0.000D+00      -267.26072481    559.797062   -1.77662   -0.07182   -0.10065    0
    2      0.000D+00      0.326D-02      -267.33434187    562.641620   -1.01512   -0.43142   -0.35831    1
    3      0.471D-02      0.230D-02      -267.36088743    561.594142   -1.18832   -0.24247   -0.21545    2
    4      0.211D-02      0.547D-03      -267.36913524    561.780974   -0.97643   -0.31488   -0.29570    3
    5      0.927D-03      0.485D-03      -267.37336425    561.823058   -0.92063   -0.31665   -0.29947    4
    6      0.583D-03      0.272D-03      -267.37528985    561.789938   -0.87923   -0.30985   -0.29716    5
    7      0.485D-03      0.133D-03      -267.37562563    561.775746   -0.88919   -0.29825   -0.28899    6
    8      0.258D-03      0.357D-04      -267.37564760    561.772999   -0.88874   -0.29499   -0.28751    7
    9      0.848D-04      0.189D-04      -267.37565854    561.773214   -0.89128   -0.29551   -0.28755    8
   10      0.448D-04      0.820D-05      -267.37566034    561.773114   -0.89245   -0.29488   -0.28725    9
   11      0.199D-04      0.321D-05      -267.37566059    561.773063   -0.89308   -0.29472   -0.28709    9
   12      0.786D-05      0.149D-05      -267.37566066    561.773288   -0.89322   -0.29481   -0.28713    9
   13      0.371D-05      0.529D-06      -267.37566066    561.773342   -0.89323   -0.29487   -0.28716    9
   14      0.149D-05      0.301D-06      -267.37566066    561.773341   -0.89322   -0.29489   -0.28716    9
   15      0.827D-06      0.148D-06      -267.37566066    561.773348   -0.89321   -0.29490   -0.28716    9
   16      0.425D-06      0.743D-07      -267.37566066    561.773351   -0.89321   -0.29490   -0.28716    9
   17      0.181D-06      0.350D-07      -267.37566066    561.773347   -0.89320   -0.29490   -0.28716    9
   18      0.123D-06      0.216D-07      -267.37566066    561.773344   -0.89321   -0.29490   -0.28716    9
   19      0.750D-07      0.135D-07      -267.37566066    561.773347   -0.89320   -0.29490   -0.28716    9
   20      0.704D-07      0.105D-07      -267.37566066    561.773346   -0.89320   -0.29490   -0.28716    9
   21      0.757D-07      0.879D-08      -267.37566066    561.773346   -0.89320   -0.29490   -0.28716    9
   22      0.101D-06      0.680D-08      -267.37566066    561.773348   -0.89320   -0.29490   -0.28716    9
   23      0.122D-06      0.404D-08      -267.37566066    561.773348   -0.89320   -0.29490   -0.28716    9
   24      0.808D-07      0.237D-08      -267.37566066    561.773348   -0.89320   -0.29490   -0.28716    9
   25      0.368D-07      0.996D-09      -267.37566066    561.773348   -0.89320   -0.29490   -0.28716    9
   26      0.138D-07      0.437D-09      -267.37566066    561.773348   -0.89320   -0.29490   -0.28716    9
   27      0.153D-08      0.212D-09      -267.37566066    561.773348   -0.89320   -0.29490   -0.28716    9
   28      0.652D-09      0.102D-09      -267.37566066    561.773348   -0.89320   -0.29490   -0.28716    9
   29      0.572D-09      0.551D-10      -267.37566066    561.773348   -0.89320   -0.29490   -0.28716    9
   30      0.217D-09      0.277D-10      -267.37566066    561.773348   -0.89320   -0.29490   -0.28716    9
   31      0.789D-10      0.136D-10      -267.37566066    561.773348   -0.89320   -0.29490   -0.28716    9
   32      0.563D-10      0.131D-10      -267.37566066    561.773348   -0.89320   -0.29490   -0.28716    0

 Final alpha occupancy:  21
 Final beta  occupancy:  20

 !RHF STATE 1.1 Energy               -267.375660664897
 Nuclear energy                       186.62399908
 One-electron energy                 -734.88633383
 Two-electron energy                  280.88667409
 Virial quotient                       -1.00117034
 !RHF STATE 1.1 Dipole moment          -0.89320346    -0.29489627    -0.28716094
 Dipole moment /Debye                  -2.27014805    -0.74950247    -0.72984251

 Orbital energies:

         1.1          2.1          3.1          4.1          5.1          6.1          7.1          8.1          9.1         10.1
    -20.648731   -20.640451   -11.297592   -11.229037   -11.225584    -1.523624    -1.170922    -1.034499    -0.952935    -0.819392

        11.1         12.1         13.1         14.1         15.1         16.1         17.1         18.1         19.1         20.1
     -0.695094    -0.668078    -0.652380    -0.595832    -0.563637    -0.557365    -0.543376    -0.501540    -0.489771    -0.465176

        21.1         22.1         23.1
     -0.562959     0.137640     0.175054


 **********************************************************************************************************************************
 DATASETS  * FILE   NREC   LENGTH (MB)   RECORD NAMES
              1      18        5.04       500      610      700      900      950      970     1000      129      960     1100   
                                          VAR    BASINP    GEOM    SYMINP    ZMAT    AOBASIS   BASIS     P2S    ABASIS      S 
                                         1400     1410     1200     1210     1080     1600     1650     1700   
                                           T        V       H0       H01     AOSYM     SMH    MOLCAS    OPER   

              2       3        2.21       700     1000     2100   
                                         GEOM     BASIS     RHF  

 PROGRAMS   *        TOTAL       RHF       INT
 CPU TIMES  *        85.04     51.30     33.67
 REAL TIME  *       109.47 SEC
 DISK USED  *         8.89 GB      
 SF USED    *         0.25 MB      
 GA USED    *         0.01 MB       (max)       0.00 MB       (current)
 **********************************************************************************************************************************


1PROGRAM * CCSD (Unrestricted open-shell coupled cluster)     Authors: C. Hampel, H.-J. Werner, 1991, M. Deegan, P.J. Knowles, 1992


 Convergence thresholds:  THRVAR = 1.00D-08  THRDEN = 1.00D-10

 CCSD(T)     terms to be evaluated (factor= 1.000)


 Number of core orbitals:           5 (   5 )
 Number of closed-shell orbitals:  15 (  15 )
 Number of active  orbitals:        1 (   1 )
 Number of external orbitals:     227 ( 227 )

 Memory could be reduced to 332.02 Mwords without degradation in triples

 Number of N-1 electron functions:              31
 Number of N-2 electron functions:             465
 Number of singly external CSFs:              7068
 Number of doubly external CSFs:          18353430
 Total number of CSFs:                    18360498

 Molecular orbitals read from record     2100.2  Type=RHF/CANONICAL (state 1.1)

 Integral transformation finished. Total CPU:  33.67 sec, npass=  1  Memory used: 145.25 MW

 Starting RMP2 calculation

 ITER.      SQ.NORM     CORR.ENERGY   TOTAL ENERGY   ENERGY CHANGE        DEN1      VAR(S)    VAR(P)  DIIS     TIME
   1      1.26540107    -0.96762739  -268.34328806    -0.96762739    -0.00323732  0.26D-04  0.11D-02  1  1    38.32
   2      1.26818716    -0.97111797  -268.34677863    -0.00349057    -0.00000666  0.10D-05  0.23D-05  2  2    41.90
   3      1.26826715    -0.97117090  -268.34683157    -0.00005294    -0.00000008  0.54D-07  0.11D-07  3  3    45.63
   4      1.26826886    -0.97117072  -268.34683138     0.00000019    -0.00000000  0.16D-08  0.12D-09  4  4    51.12
   5      1.26826912    -0.97117080  -268.34683147    -0.00000009    -0.00000000  0.19D-10  0.46D-11  5  5    57.00
   6      1.26826917    -0.97117084  -268.34683150    -0.00000003    -0.00000000  0.50D-13  0.56D-13  6  6    62.36
   7      1.26826917    -0.97117083  -268.34683150     0.00000000    -0.00000000  0.15D-14  0.86D-15  6  1    67.46
   8      1.26826917    -0.97117083  -268.34683150     0.00000000    -0.00000000  0.16D-16  0.80D-17  6  2    72.59
   9      1.26826917    -0.97117083  -268.34683150    -0.00000000    -0.00000000  0.31D-18  0.10D-18  6  3    80.53

 Norm of t1 vector:      0.04589157      S-energy:    -0.00446744      T1 diagnostic:  0.00074407
 Norm of t2 vector:      0.51591001      P-energy:    -0.96670340
                                         Alpha-Beta:  -0.73710384
                                         Alpha-Alpha: -0.11899169
                                         Beta-Beta:   -0.11060786

 Spin contamination <S**2-Sz**2-Sz>     0.00145397
  Reference energy                   -267.375660664897
  RHF-RMP2 correlation energy          -0.971170834326
 !RHF-RMP2 energy                    -268.346831499222

 Starting UCCSD calculation

 ITER.      SQ.NORM     CORR.ENERGY   TOTAL ENERGY   ENERGY CHANGE        DEN1      VAR(S)    VAR(P)  DIIS     TIME
   1      1.27987634    -0.97928057  -268.35494123    -0.97928057    -0.02933927  0.65D-02  0.54D-02  1  1   189.93
   2      1.30628960    -1.00591078  -268.38157145    -0.02663021    -0.00363656  0.62D-03  0.97D-03  2  2   298.85
   3      1.32294463    -1.01273738  -268.38839805    -0.00682660    -0.00091219  0.75D-03  0.76D-04  3  3   409.63
   4      1.33418302    -1.01539702  -268.39105769    -0.00265964    -0.00038520  0.31D-03  0.33D-04  4  4   519.02
   5      1.34925062    -1.01739377  -268.39305444    -0.00199675    -0.00011802  0.10D-03  0.90D-05  5  5   630.07
   6      1.36078016    -1.01841648  -268.39407714    -0.00102270    -0.00001817  0.93D-05  0.32D-05  6  6   741.15
   7      1.36447782    -1.01865753  -268.39431820    -0.00024105    -0.00000317  0.16D-05  0.61D-06  6  1   851.89
   8      1.36508404    -1.01869983  -268.39436049    -0.00004230    -0.00000068  0.27D-06  0.15D-06  6  2   961.19
   9      1.36540553    -1.01871834  -268.39437900    -0.00001851    -0.00000015  0.66D-07  0.32D-07  6  4  1071.93
  10      1.36539202    -1.01871708  -268.39437774     0.00000126    -0.00000002  0.11D-07  0.43D-08  6  3  1181.75
  11      1.36545465    -1.01872218  -268.39438284    -0.00000510    -0.00000000  0.25D-08  0.95D-09  6  5  1292.61
  12      1.36544715    -1.01871969  -268.39438035     0.00000249    -0.00000000  0.11D-08  0.22D-09  6  6  1403.49
  13      1.36544281    -1.01871853  -268.39437919     0.00000116    -0.00000000  0.71D-09  0.59D-10  6  1  1512.88
  14      1.36542988    -1.01871702  -268.39437769     0.00000151    -0.00000000  0.48D-09  0.25D-10  6  2  1622.33
  15      1.36542364    -1.01871627  -268.39437694     0.00000075    -0.00000000  0.39D-09  0.19D-10  6  3  1731.41
  16      1.36542048    -1.01871611  -268.39437677     0.00000017    -0.00000000  0.29D-09  0.16D-10  6  4  1840.85
  17      1.36542002    -1.01871613  -268.39437680    -0.00000003    -0.00000000  0.14D-09  0.15D-10  6  5  1950.08
  18      1.36542310    -1.01871633  -268.39437699    -0.00000020    -0.00000000  0.29D-10  0.59D-11  6  6  2059.43
  19      1.36542640    -1.01871666  -268.39437733    -0.00000033    -0.00000000  0.26D-11  0.17D-11  6  2  2168.67
  20      1.36542584    -1.01871653  -268.39437719     0.00000013    -0.00000000  0.62D-12  0.17D-12  6  1  2278.19
  21      1.36542614    -1.01871657  -268.39437724    -0.00000004    -0.00000000  0.22D-12  0.61D-13  6  4  2387.72
  22      1.36542606    -1.01871656  -268.39437723     0.00000001    -0.00000000  0.61D-13  0.14D-13  6  3  2497.04
  23      1.36542607    -1.01871657  -268.39437723    -0.00000001    -0.00000000  0.17D-13  0.59D-14  6  6  2606.48
  24      1.36542606    -1.01871656  -268.39437723     0.00000000    -0.00000000  0.17D-14  0.57D-15  6  1  2715.91
  25      1.36542607    -1.01871656  -268.39437723     0.00000000    -0.00000000  0.64D-15  0.17D-15  6  5  2825.11
  26      1.36542608    -1.01871656  -268.39437723    -0.00000000    -0.00000000  0.17D-15  0.69D-16  6  2  2934.53
  27      1.36542609    -1.01871656  -268.39437723    -0.00000000    -0.00000000  0.44D-16  0.92D-17  6  4  3044.05
  28      1.36542609    -1.01871657  -268.39437723    -0.00000000    -0.00000000  0.11D-16  0.38D-17  6  3  3153.44
  29      1.36542609    -1.01871657  -268.39437723    -0.00000000    -0.00000000  0.44D-17  0.72D-18  6  6  3263.17
  30      1.36542609    -1.01871657  -268.39437723     0.00000000    -0.00000000  0.30D-17  0.27D-18  6  1  3372.51

 Norm of t1 vector:      0.23120802      S-energy:    -0.00501470      T1 diagnostic:  0.02849067
                                                                       D1 diagnostic:  0.14600192
 Norm of t2 vector:      0.55854180      P-energy:    -1.01370187
                                         Alpha-Beta:  -0.80140465
                                         Alpha-Alpha: -0.10868263
                                         Beta-Beta:   -0.10361458

 Singles amplitudes (print threshold =  0.500E-01):

         I         SYM. A    A   T(IA) [Beta-Beta]

         8         1         1     -0.09709110
         9         1         1      0.09895352
        11         1         1     -0.05124185
        12         1         1     -0.07439533
        14         1         1     -0.11176363

 Spin contamination <S**2-Sz**2-Sz>     0.00176060

 Memory could be reduced to 360.52 Mwords without degradation in triples
 

 RESULTS
 =======

  Reference energy                   -267.375660664897
  UCCSD singles energy                 -0.005014696898
  UCCSD pair energy                    -1.013701868416
  UCCSD correlation energy             -1.018716565314
  Triples (T) contribution             -0.040840581739
  Total correlation energy             -1.059557147053
 
  RHF-UCCSD energy                   -268.394377230211
  RHF-UCCSD[T] energy                -268.438539961182
  RHF-UCCSD-T energy                 -268.434719942638
 !RHF-UCCSD(T) energy                -268.435217811949

 Program statistics:

 Available memory in ccsd:               999997692
 Min. memory needed in ccsd:              51505734
 Max. memory used in ccsd:                74803578
 Max. memory used in cckext:              59475747 (30 integral passes)
 Max. memory used in cckint:             145249478 ( 1 integral passes)



 **********************************************************************************************************************************
 DATASETS  * FILE   NREC   LENGTH (MB)   RECORD NAMES
              1      18        5.04       500      610      700      900      950      970     1000      129      960     1100   
                                          VAR    BASINP    GEOM    SYMINP    ZMAT    AOBASIS   BASIS     P2S    ABASIS      S 
                                         1400     1410     1200     1210     1080     1600     1650     1700   
                                           T        V       H0       H01     AOSYM     SMH    MOLCAS    OPER   

              2       3        2.21       700     1000     2100   
                                         GEOM     BASIS     RHF  

 PROGRAMS   *        TOTAL  UCCSD(T)       RHF       INT
 CPU TIMES  *      5515.68   5430.64     51.30     33.67
 REAL TIME  *      5657.77 SEC
 DISK USED  *        15.87 GB      
 SF USED    *         6.57 GB      
 GA USED    *         0.01 MB       (max)       0.00 MB       (current)
 **********************************************************************************************************************************

        UCCSD(T)        RHF-SCF 
   -268.43521781   -267.37566066
 **********************************************************************************************************************************
 Variable memory released
