
 Working directory              : /scratch/mel64643/tmp/40073490/
 Global scratch directory       : /scratch/mel64643/tmp/40073490/
 Wavefunction directory         : /home/mel64643/wfu/
 Main file repository           : /scratch/mel64643/tmp/40073490/

 id        : ccgc

 Nodes     nprocs
 a1-8         3
 Distribution of processes:   nprocs(total)=    4   nprocs(compute)=    3   nprocs(helper)=    1
 GA implementation: MPI file
 GA implementation (serial work in mppx): MPI file

 Using customized tuning parameters: mindgm=1; mindgv=20; mindgc=4; mindgr=1; noblas=0; minvec=7
 default implementation of scratch files=sf  


 Variables initialized (1015), CPU time= 0.00 sec
 ***,Optimization of min3
 memory,1000,m
 gthresh,energy=1.0d-12,orbital=1.0d-10,oneint=1.0d-16,twoint=1.0d-16,optgrad=1.0d-6,compress=1.0d-13
 geomtyp=xyz
 
  bohr
  geometry = {
  6
  arbitrary comment
  C   -1.3802645463   -0.0247307652    0.0000003664
  O    1.3127004062    0.1164123672    0.0000002968
  H   -2.0768114324    1.9231983782   -0.0000803843
  H   -2.1232968372   -0.9842406245    1.6913965075
  H   -2.1232902599   -0.9843726799   -1.6913238098
  H    1.9672385096   -1.5763987959   -0.0000013866
 }
 
 basis=cc-pvdz
 {rhf;maxit,200}
 {ccsd(t);maxit,200}
 Commands initialized (818), CPU time= 0.01 sec, 672 directives.
 Default parameters read. Elapsed time= 0.09 sec

 Checking input...
 Passed
1


                                         ***  PROGRAM SYSTEM MOLPRO  ***
                                       Copyright, TTI GmbH Stuttgart, 2015
                                    Version 2022.1 linked Mar  4 2022 00:40:14


 **********************************************************************************************************************************
 LABEL *   Optimization of min3                                                          
  64 bit mpp version                                                                     DATE: 07-Aug-25          TIME: 21:27:57  
 **********************************************************************************************************************************

 SHA1:             31073afc4d8441e10870424e0d77336a33bc4286
 **********************************************************************************************************************************

 Memory per process:      1000 MW
 Total memory per node:   3000 MW

 GA preallocation disabled
 GA check disabled

 Variable memory set to 1000.0 MW


 THRESHOLDS:

 ZERO    =  1.00D-12  ONEINT  =  1.00D-16  TWOINT  =  1.00D-16  PREFAC  =  1.00D-14  XXXXXX  =  1.00D-09  EORDER  =  1.00D-04
 ENERGY  =  1.00D-12  ETEST   =  0.00D+00  EDENS   =  0.00D+00  THRDEDEF=  1.00D-06  GRADIENT=  1.00D-05  STEP    =  1.00D-03
 ORBITAL =  1.00D-10  CIVEC   =  1.00D-05  COEFF   =  1.00D-04  PRINTCI =  5.00D-02  PUNCHCI =  9.90D+01  OPTGRAD =  1.00D-06
 OPTENERG=  1.00D-06  OPTSTEP =  3.00D-04  THRGRAD =  1.00D-10  COMPRESS=  1.00D-13  VARMIN  =  1.00D-07  VARMAX  =  1.00D-03
 THRDOUB =  0.00D+00  THRDIV  =  1.00D-05  THRRED  =  1.00D-07  THRPSP  =  1.00D+00  THRDC   =  1.00D-10  THRCS   =  1.00D-10
 THRNRM  =  1.00D-08  THREQ   =  0.00D+00  THRDE   =  1.00D+00  THRREF  =  1.00D-05  SPARFAC =  1.00D+00  THRDLP  =  1.00D-07
 THRDIA  =  1.00D-10  THRDLS  =  1.00D-07  THRGPS  =  0.00D+00  THRKEX  =  0.00D+00  THRDIS  =  2.00D-01  THRVAR  =  1.00D-10
 THRLOC  =  1.00D-06  THRGAP  =  1.00D-06  THRLOCT = -1.00D+00  THRGAPT = -1.00D+00  THRORB  =  1.00D-06  THRMLTP =  0.00D+00
 THRCPQCI=  1.00D-10  KEXTA   =  0.00D+00  THRCOARS=  0.00D+00  SYMTOL  =  1.00D-06  GRADTOL =  1.00D-06  THROVL  =  1.00D-08
 THRORTH =  1.00D-08  THRDLOVL= -1.00D+00  GRID    =  1.00D-06  GRIDMAX =  1.00D-03  DTMAX   =  0.00D+00  THROCCDE=  1.00D-01
 THROCCDE=  1.00D-01  THRPRINT=  2.50D-01

 SETTING GEOMTYP        =    XYZ
 ZUNIT=BOHR

 SETTING BASIS          =    CC-PVDZ


 Recomputing integrals since basis changed


 Using spherical harmonics

 Library entry C      S cc-pVDZ              selected for orbital group  1
 Library entry C      P cc-pVDZ              selected for orbital group  1
 Library entry C      D cc-pVDZ              selected for orbital group  1
 Library entry O      S cc-pVDZ              selected for orbital group  2
 Library entry O      P cc-pVDZ              selected for orbital group  2
 Library entry O      D cc-pVDZ              selected for orbital group  2
 Library entry H      S cc-pVDZ              selected for orbital group  3
 Library entry H      P cc-pVDZ              selected for orbital group  3


 PROGRAM * SEWARD (Integral evaluation for generally contracted gaussian basis sets)     Author: Roland Lindh, 1990

 Geometry written to block  1 of record 700


 Point group  C1  



 ATOMIC COORDINATES

 NR  ATOM    CHARGE       X              Y              Z

   1  C       6.00   -1.380264546   -0.024730765    0.000000366
   2  O       8.00    1.312700406    0.116412367    0.000000297
   3  H       1.00   -2.076811432    1.923198378   -0.000080384
   4  H       1.00   -2.123296837   -0.984240625    1.691396507
   5  H       1.00   -2.123290260   -0.984372680   -1.691323810
   6  H       1.00    1.967238510   -1.576398796   -0.000001387

 Bond lengths in Bohr (Angstrom)

 1-2  2.696661198  1-3  2.068720745  1-4  2.081724540  1-5  2.081724594  2-6  1.814946215
     ( 1.427011652)     ( 1.094719874)     ( 1.101601186)     ( 1.101601214)     ( 0.960428176)

 Bond angles

  1-2-6  108.13913749   2-1-3  106.67597100   2-1-4  112.36877624   2-1-5  112.36878326

  3-1-4  108.29196143   3-1-5  108.29180203   4-1-5  108.67794845

 NUCLEAR CHARGE:                   18
 NUMBER OF PRIMITIVE AOS:          82
 NUMBER OF SYMMETRY AOS:           80
 NUMBER OF CONTRACTIONS:           48   (   48A   )
 NUMBER OF INNER CORE ORBITALS:     0   (    0A   )
 NUMBER OF OUTER CORE ORBITALS:     2   (    2A   )
 NUMBER OF VALENCE ORBITALS:       12   (   12A   )


 NUCLEAR REPULSION ENERGY   40.12166949

 Eigenvalues of metric

         1 0.974E-02 0.178E-01 0.375E-01 0.382E-01 0.384E-01 0.481E-01 0.491E-01 0.524E-01


 Contracted 2-electron integrals neglected if value below      1.0D-16
 AO integral compression algorithm  1   Integral accuracy      1.0D-16

     6.816 MB (compressed) written to integral file ( 98.3%)

     Node minimum: 2.097 MB, node maximum: 2.359 MB


 NUMBER OF SORTED TWO-ELECTRON INTEGRALS:     231084.     BUFFER LENGTH:  32768
 NUMBER OF SEGMENTS:   1  SEGMENT LENGTH:     231084      RECORD LENGTH: 524288

 Memory used in sort:       0.79 MW

 SORT1 READ      832256. AND WROTE      227682. INTEGRALS IN      1 RECORDS. CPU TIME:     0.01 SEC, REAL TIME:     0.03 SEC
 SORT2 READ      682148. AND WROTE      692076. INTEGRALS IN     27 RECORDS. CPU TIME:     0.01 SEC, REAL TIME:     0.01 SEC

 Node minimum:      230300.  Node maximum:      231084. integrals

 OPERATOR DM      FOR CENTER  0  COORDINATES:    0.000000    0.000000    0.000000


 **********************************************************************************************************************************
 DATASETS  * FILE   NREC   LENGTH (MB)   RECORD NAMES
              1      18       28.73       500      610      700      900      950      970     1000      129      960     1100   
                                          VAR    BASINP    GEOM    SYMINP    ZMAT    AOBASIS   BASIS     P2S    ABASIS      S 
                                         1400     1410     1200     1210     1080     1600     1650     1700   
                                           T        V       H0       H01     AOSYM     SMH    MOLCAS    OPER   

 PROGRAMS   *        TOTAL       INT
 CPU TIMES  *         0.49      0.37
 REAL TIME  *         1.59 SEC
 DISK USED  *        29.07 MB (local),      104.32 MB (total)
 GA USED    *         0.00 MB       (max)       0.00 MB       (current)
 **********************************************************************************************************************************


 Program * Restricted Hartree-Fock

 Orbital guess generated from atomic densities. Full valence occupancy:   14

 Initial occupancy:   9

 NELEC=   18   SYM=1   MS2= 0   THRE=1.0D-12   THRD=1.0D-10   THRG=1.0D-10  HFMA2=F  DIIS_START=2   DIIS_MAX=10   DIIS_INCORE=F

 Level shifts:    0.00 (CLOSED)    0.00 (OPEN)    0.30 (GAP_MIN)

 ITER           ETOT              DE          GRAD        DDIFF     DIIS  NEXP   TIME(IT)  TIME(TOT)  DIAG
   1     -115.01387314    -115.01387314     0.00D+00     0.16D+00     0     0       0.00      0.00    start
   2     -115.04217415      -0.02830101     0.10D-01     0.20D-01     1     0       0.01      0.01    diag
   3     -115.04830944      -0.00613529     0.49D-02     0.64D-02     2     0       0.00      0.01    diag
   4     -115.04877283      -0.00046339     0.10D-02     0.20D-02     3     0       0.00      0.01    diag
   5     -115.04879377      -0.00002094     0.18D-03     0.43D-03     4     0       0.00      0.01    diag
   6     -115.04879456      -0.00000079     0.32D-04     0.92D-04     5     0       0.01      0.02    diag
   7     -115.04879459      -0.00000003     0.65D-05     0.15D-04     6     0       0.01      0.03    diag
   8     -115.04879459      -0.00000000     0.21D-05     0.47D-05     7     0       0.00      0.03    fixocc
   9     -115.04879459      -0.00000000     0.44D-06     0.14D-05     8     0       0.00      0.03    diag
  10     -115.04879459      -0.00000000     0.69D-07     0.23D-06     9     0       0.00      0.03    diag/orth
  11     -115.04879459      -0.00000000     0.16D-07     0.44D-07     9     0       0.01      0.04    diag
  12     -115.04879459      -0.00000000     0.42D-08     0.13D-07     9     0       0.00      0.04    diag
  13     -115.04879459       0.00000000     0.67D-09     0.19D-08     9     0       0.00      0.04    diag
  14     -115.04879459      -0.00000000     0.15D-09     0.39D-09     9     0       0.00      0.04    diag
  15     -115.04879459       0.00000000     0.59D-10     0.11D-09     9     0       0.00      0.04    diag
  16     -115.04879459      -0.00000000     0.14D-10     0.32D-10     9     0       0.00      0.04    diag
  17     -115.04879459       0.00000000     0.23D-11     0.45D-11     0     0       0.01      0.05    diag

 Final occupancy:   9

 !RHF STATE 1.1 Energy               -115.048794590928
  RHF One-electron energy            -236.522470291021
  RHF Two-electron energy              81.352006214986
  RHF Kinetic energy                  114.897825260244
  RHF Nuclear energy                   40.121669485107
  RHF Virial quotient                  -1.001313944196

 !RHF STATE 1.1 Dipole moment          -0.39257855    -0.59356299    -0.00000279
 Dipole moment /Debye                  -0.99783513    -1.50868663    -0.00000710

 Orbital energies:

           1.1          2.1          3.1          4.1          5.1          6.1          7.1          8.1          9.1         10.1
    -20.550188   -11.277639    -1.347208    -0.919682    -0.680939    -0.611084    -0.583148    -0.496275    -0.443066     0.184379

          11.1
      0.223332


 HOMO      9.1    -0.443066 =     -12.0564eV
 LUMO     10.1     0.184379 =       5.0172eV
 LUMO-HOMO         0.627444 =      17.0736eV

 Orbitals saved in record  2100.2


 **********************************************************************************************************************************
 DATASETS  * FILE   NREC   LENGTH (MB)   RECORD NAMES
              1      18       28.73       500      610      700      900      950      970     1000      129      960     1100   
                                          VAR    BASINP    GEOM    SYMINP    ZMAT    AOBASIS   BASIS     P2S    ABASIS      S 
                                         1400     1410     1200     1210     1080     1600     1650     1700   
                                           T        V       H0       H01     AOSYM     SMH    MOLCAS    OPER   

              2       4        0.47       700     1000      520     2100   
                                         GEOM     BASIS   MCVARS     RHF  

 PROGRAMS   *        TOTAL   RHF-SCF       INT
 CPU TIMES  *         0.54      0.05      0.37
 REAL TIME  *         1.85 SEC
 DISK USED  *        29.40 MB (local),      105.30 MB (total)
 GA USED    *         0.00 MB       (max)       0.00 MB       (current)
 **********************************************************************************************************************************


 PROGRAM * CCSD (Closed-shell coupled cluster)     Authors: C. Hampel, H.-J. Werner, 1991, M. Deegan, P.J. Knowles, 1992


 Convergence thresholds:  THRVAR = 1.00D-08  THRDEN = 1.00D-12

 CCSD(T)     terms to be evaluated (factor= 1.000)


 Number of core orbitals:           2 (   2 )
 Number of closed-shell orbitals:   7 (   7 )
 Number of external orbitals:      39 (  39 )

 Molecular orbitals read from record     2100.2  Type=RHF/CANONICAL  

 Number of N-1 electron functions:               7
 Number of N-2 electron functions:              28
 Number of singly external CSFs:               273
 Number of doubly external CSFs:             37401
 Total number of CSFs:                       37675

 Length of J-op  integral file:               0.00 MB
 Length of K-op  integral file:               0.16 MB
 Length of 3-ext integral record:             0.00 MB

 Memory could be reduced to 0.73 Mwords without degradation in triples

 Integral transformation finished. Total CPU:   0.02 sec, npass=  1  Memory used:   0.66 MW

 Reference energy:                   -115.04879459

 MP2 singlet pair energy:              -0.21904595
 MP2 triplet pair energy:              -0.11986673
 MP2 correlation energy:               -0.33891268
 MP2 total energy:                   -115.38770727

 SCS-MP2 correlation energy:           -0.33743888   (PS=  1.200000  PT=  0.333333)
 SCS-MP2 total energy:               -115.38623347

 ITER.      SQ.NORM     CORR.ENERGY   TOTAL ENERGY   ENERGY CHANGE        DEN1      VAR(S)    VAR(P)  DIIS     TIME  TIME/IT
   1      1.10791540    -0.36175579  -115.41055038    -0.02284311    -0.01408635  0.93D-03  0.18D-02  1  1     0.05     0.05
   2      1.11656611    -0.36372570  -115.41252030    -0.00196992    -0.00932137  0.20D-04  0.17D-03  2  2     0.07     0.04
   3      1.11850339    -0.36385785  -115.41265244    -0.00013214    -0.00123111  0.99D-05  0.89D-05  3  3     0.09     0.05
   4      1.11903630    -0.36385661  -115.41265120     0.00000124    -0.00026170  0.36D-06  0.71D-06  4  4     0.11     0.04
   5      1.11913929    -0.36385703  -115.41265162    -0.00000043    -0.00003742  0.11D-06  0.52D-07  5  5     0.13     0.04
   6      1.11915967    -0.36385562  -115.41265021     0.00000141    -0.00000462  0.17D-07  0.44D-08  6  6     0.15     0.04
   7      1.11916471    -0.36385517  -115.41264977     0.00000045    -0.00000037  0.21D-08  0.77D-09  6  1     0.17     0.04
   8      1.11916605    -0.36385528  -115.41264987    -0.00000011     0.00000078  0.28D-09  0.78D-10  6  3     0.19     0.03
   9      1.11916717    -0.36385515  -115.41264974     0.00000013    -0.00000040  0.14D-10  0.11D-10  6  2     0.21     0.03
  10      1.11916709    -0.36385515  -115.41264974    -0.00000000     0.00000008  0.12D-11  0.97D-12  6  5     0.23     0.03
  11      1.11916713    -0.36385515  -115.41264974     0.00000000    -0.00000000  0.21D-12  0.55D-13  6  4     0.25     0.03
  12      1.11916711    -0.36385515  -115.41264974    -0.00000000     0.00000001  0.20D-13  0.11D-13  6  1     0.27     0.03
  13      1.11916711    -0.36385515  -115.41264974    -0.00000000    -0.00000000  0.26D-14  0.10D-14  6  6     0.29     0.03
  14      1.11916711    -0.36385515  -115.41264974     0.00000000    -0.00000000  0.25D-15  0.14D-15  6  3     0.31     0.03
  15      1.11916712    -0.36385515  -115.41264974    -0.00000000    -0.00000000  0.27D-16  0.18D-16  6  2     0.32     0.03
  16      1.11916712    -0.36385515  -115.41264974    -0.00000000    -0.00000000  0.62D-17  0.18D-17  6  5     0.34     0.03
  17      1.11916712    -0.36385515  -115.41264974    -0.00000000    -0.00000000  0.61D-18  0.28D-18  6  4     0.36     0.03
  18      1.11916712    -0.36385515  -115.41264974     0.00000000    -0.00000000  0.94D-19  0.49D-19  6  1     0.38     0.03
  19      1.11916712    -0.36385515  -115.41264974    -0.00000000    -0.00000000  0.11D-19  0.49D-20  6  6     0.40     0.03
  20      1.11916712    -0.36385515  -115.41264974     0.00000000     0.00000000  0.15D-20  0.64D-21  6  3     0.41     0.03

 Norm of t1 vector:      0.04208395      S-energy:    -0.00000000      T1 diagnostic:  0.00795312
                                                                       D1 diagnostic:  0.01779194
                                                                       D2 diagnostic:  0.13490463 (internal)


 Total CPU time for triples:      0.08 sec


 RESULTS
 =======

  Reference energy                   -115.048794590928
  CCSD singlet pair energy             -0.255189717677
  CCSD triplet pair energy             -0.108665435101
  CCSD correlation energy              -0.363855152778

  Triples (T) contribution             -0.007796209437
  Total correlation energy             -0.371651362215

  CCSD total energy                  -115.412649743706
  CCSD[T] energy                     -115.420742167970
  CCSD-T energy                      -115.420292776947
 !CCSD(T) total energy               -115.420445953143

 Timing summary (sec):

 STEP                 CPU(USER)    SYS     CPU(TOT)    WALL
 Transformation          0.02      0.01      0.03      0.05
 CCSD iterations         0.39      0.06      0.45      0.65
 Triples                 0.08      0.00      0.08      0.08

 Program statistics:

 Available memory in ccsd:               999999795
 Min. memory needed in ccsd:                136177
 Max. memory used in ccsd:                  162910
 Max. memory used in cckext:                178997 (20 integral passes)



 **********************************************************************************************************************************
 DATASETS  * FILE   NREC   LENGTH (MB)   RECORD NAMES
              1      19       31.13       500      610      700      900      950      970     1000      129      960     1100   
                                          VAR    BASINP    GEOM    SYMINP    ZMAT    AOBASIS   BASIS     P2S    ABASIS      S 
                                         1400     1410     1200     1210     1080     1600     1650     1700     1380   
                                           T        V       H0       H01     AOSYM     SMH    MOLCAS    OPER     JKOP   

              2       4        0.47       700     1000      520     2100   
                                         GEOM     BASIS   MCVARS     RHF  

 PROGRAMS   *        TOTAL   CCSD(T)   RHF-SCF       INT
 CPU TIMES  *         1.06      0.52      0.05      0.37
 REAL TIME  *         2.71 SEC
 DISK USED  *        35.56 MB (local),      115.96 MB (total)
 SF USED    *         5.97 MB
 GA USED    *         0.00 MB       (max)       0.00 MB       (current)
 **********************************************************************************************************************************

 CCSD(T)/cc-pVDZ energy=   -115.420445953143

         CCSD(T)         RHF-SCF
   -115.42044595   -115.04879459
 **********************************************************************************************************************************
 Molpro calculation terminated
