
 Working directory              : /scratch/mel64643/tmp/40073400/
 Global scratch directory       : /scratch/mel64643/tmp/40073400/
 Wavefunction directory         : /home/mel64643/wfu/
 Main file repository           : /scratch/mel64643/tmp/40073400/

 id        : ccgc

 Nodes     nprocs
 a1-8         3
 Distribution of processes:   nprocs(total)=    4   nprocs(compute)=    3   nprocs(helper)=    1
 GA implementation: MPI file
 GA implementation (serial work in mppx): MPI file

 Using customized tuning parameters: mindgm=1; mindgv=20; mindgc=4; mindgr=1; noblas=0; minvec=7
 default implementation of scratch files=sf  


 Variables initialized (1015), CPU time= 0.00 sec
 ***,Optimization of min3
 memory,1000,m
 gthresh,energy=1.0d-12,orbital=1.0d-10,oneint=1.0d-16,twoint=1.0d-16,optgrad=1.0d-6,compress=1.0d-13
 geomtyp=xyz
 
  bohr
  geometry = {
  6
  arbitrary comment
  C   -1.3750767201   -0.0242688213    0.0027922246
  O    1.3060122179    0.1207003644    0.0003940661
  H   -2.0778761854    1.9096118075    0.0089172369
  H   -2.1070460656   -0.9707499995    1.6755295427
  H   -2.1109027902   -0.9879298331   -1.6883376725
  H    1.9411653834   -1.5774956380    0.0006961922
 }
 
 basis=cc-pvdz
 {rhf;maxit,200}
 {ccsd(t);maxit,200}
 Commands initialized (818), CPU time= 0.01 sec, 672 directives.
 Default parameters read. Elapsed time= 0.10 sec

 Checking input...
 Passed
1


                                         ***  PROGRAM SYSTEM MOLPRO  ***
                                       Copyright, TTI GmbH Stuttgart, 2015
                                    Version 2022.1 linked Mar  4 2022 00:40:14


 **********************************************************************************************************************************
 LABEL *   Optimization of min3                                                          
  64 bit mpp version                                                                     DATE: 07-Aug-25          TIME: 21:26:55  
 **********************************************************************************************************************************

 SHA1:             31073afc4d8441e10870424e0d77336a33bc4286
 **********************************************************************************************************************************

 Memory per process:      1000 MW
 Total memory per node:   3000 MW

 GA preallocation disabled
 GA check disabled

 Variable memory set to 1000.0 MW


 THRESHOLDS:

 ZERO    =  1.00D-12  ONEINT  =  1.00D-16  TWOINT  =  1.00D-16  PREFAC  =  1.00D-14  XXXXXX  =  1.00D-09  EORDER  =  1.00D-04
 ENERGY  =  1.00D-12  ETEST   =  0.00D+00  EDENS   =  0.00D+00  THRDEDEF=  1.00D-06  GRADIENT=  1.00D-05  STEP    =  1.00D-03
 ORBITAL =  1.00D-10  CIVEC   =  1.00D-05  COEFF   =  1.00D-04  PRINTCI =  5.00D-02  PUNCHCI =  9.90D+01  OPTGRAD =  1.00D-06
 OPTENERG=  1.00D-06  OPTSTEP =  3.00D-04  THRGRAD =  1.00D-10  COMPRESS=  1.00D-13  VARMIN  =  1.00D-07  VARMAX  =  1.00D-03
 THRDOUB =  0.00D+00  THRDIV  =  1.00D-05  THRRED  =  1.00D-07  THRPSP  =  1.00D+00  THRDC   =  1.00D-10  THRCS   =  1.00D-10
 THRNRM  =  1.00D-08  THREQ   =  0.00D+00  THRDE   =  1.00D+00  THRREF  =  1.00D-05  SPARFAC =  1.00D+00  THRDLP  =  1.00D-07
 THRDIA  =  1.00D-10  THRDLS  =  1.00D-07  THRGPS  =  0.00D+00  THRKEX  =  0.00D+00  THRDIS  =  2.00D-01  THRVAR  =  1.00D-10
 THRLOC  =  1.00D-06  THRGAP  =  1.00D-06  THRLOCT = -1.00D+00  THRGAPT = -1.00D+00  THRORB  =  1.00D-06  THRMLTP =  0.00D+00
 THRCPQCI=  1.00D-10  KEXTA   =  0.00D+00  THRCOARS=  0.00D+00  SYMTOL  =  1.00D-06  GRADTOL =  1.00D-06  THROVL  =  1.00D-08
 THRORTH =  1.00D-08  THRDLOVL= -1.00D+00  GRID    =  1.00D-06  GRIDMAX =  1.00D-03  DTMAX   =  0.00D+00  THROCCDE=  1.00D-01
 THROCCDE=  1.00D-01  THRPRINT=  2.50D-01

 SETTING GEOMTYP        =    XYZ
 ZUNIT=BOHR

 SETTING BASIS          =    CC-PVDZ


 Recomputing integrals since basis changed


 Using spherical harmonics

 Library entry C      S cc-pVDZ              selected for orbital group  1
 Library entry C      P cc-pVDZ              selected for orbital group  1
 Library entry C      D cc-pVDZ              selected for orbital group  1
 Library entry O      S cc-pVDZ              selected for orbital group  2
 Library entry O      P cc-pVDZ              selected for orbital group  2
 Library entry O      D cc-pVDZ              selected for orbital group  2
 Library entry H      S cc-pVDZ              selected for orbital group  3
 Library entry H      P cc-pVDZ              selected for orbital group  3


 PROGRAM * SEWARD (Integral evaluation for generally contracted gaussian basis sets)     Author: Roland Lindh, 1990

 Geometry written to block  1 of record 700


 Point group  C1  



 ATOMIC COORDINATES

 NR  ATOM    CHARGE       X              Y              Z

   1  C       6.00   -1.375076720   -0.024268821    0.002792225
   2  O       8.00    1.306012218    0.120700364    0.000394066
   3  H       1.00   -2.077876185    1.909611807    0.008917237
   4  H       1.00   -2.107046066   -0.970749999    1.675529543
   5  H       1.00   -2.110902790   -0.987929833   -1.688337673
   6  H       1.00    1.941165383   -1.577495638    0.000696192

 Bond lengths in Bohr (Angstrom)

 1-2  2.685006464  1-3  2.057634295  1-4  2.056612720  1-5  2.080865897  2-6  1.813088331
     ( 1.420844232)     ( 1.088853177)     ( 1.088312583)     ( 1.101146811)     ( 0.959445026)

 Bond angles

  1-2-6  107.41157838   2-1-3  106.87690616   2-1-4  112.39348385   2-1-5  112.17133745

  3-1-4  107.97186612   3-1-5  108.47508771   4-1-5  108.78556844

 NUCLEAR CHARGE:                   18
 NUMBER OF PRIMITIVE AOS:          82
 NUMBER OF SYMMETRY AOS:           80
 NUMBER OF CONTRACTIONS:           48   (   48A   )
 NUMBER OF INNER CORE ORBITALS:     0   (    0A   )
 NUMBER OF OUTER CORE ORBITALS:     2   (    2A   )
 NUMBER OF VALENCE ORBITALS:       12   (   12A   )


 NUCLEAR REPULSION ENERGY   40.30796661

 Eigenvalues of metric

         1 0.966E-02 0.176E-01 0.366E-01 0.377E-01 0.381E-01 0.470E-01 0.482E-01 0.517E-01


 Contracted 2-electron integrals neglected if value below      1.0D-16
 AO integral compression algorithm  1   Integral accuracy      1.0D-16

     7.340 MB (compressed) written to integral file (100.0%)

     Node minimum: 2.359 MB, node maximum: 2.621 MB


 NUMBER OF SORTED TWO-ELECTRON INTEGRALS:     231084.     BUFFER LENGTH:  32768
 NUMBER OF SEGMENTS:   1  SEGMENT LENGTH:     231084      RECORD LENGTH: 524288

 Memory used in sort:       0.79 MW

 SORT1 READ      832256. AND WROTE      227683. INTEGRALS IN      1 RECORDS. CPU TIME:     0.01 SEC, REAL TIME:     0.03 SEC
 SORT2 READ      682150. AND WROTE      692076. INTEGRALS IN     30 RECORDS. CPU TIME:     0.01 SEC, REAL TIME:     0.02 SEC

 Node minimum:      230300.  Node maximum:      231084. integrals

 OPERATOR DM      FOR CENTER  0  COORDINATES:    0.000000    0.000000    0.000000


 **********************************************************************************************************************************
 DATASETS  * FILE   NREC   LENGTH (MB)   RECORD NAMES
              1      18       28.73       500      610      700      900      950      970     1000      129      960     1100   
                                          VAR    BASINP    GEOM    SYMINP    ZMAT    AOBASIS   BASIS     P2S    ABASIS      S 
                                         1400     1410     1200     1210     1080     1600     1650     1700   
                                           T        V       H0       H01     AOSYM     SMH    MOLCAS    OPER   

 PROGRAMS   *        TOTAL       INT
 CPU TIMES  *         0.43      0.29
 REAL TIME  *         1.06 SEC
 DISK USED  *        29.07 MB (local),      104.69 MB (total)
 GA USED    *         0.00 MB       (max)       0.00 MB       (current)
 **********************************************************************************************************************************


 Program * Restricted Hartree-Fock

 Orbital guess generated from atomic densities. Full valence occupancy:   14

 Initial occupancy:   9

 NELEC=   18   SYM=1   MS2= 0   THRE=1.0D-12   THRD=1.0D-10   THRG=1.0D-10  HFMA2=F  DIIS_START=2   DIIS_MAX=10   DIIS_INCORE=F

 Level shifts:    0.00 (CLOSED)    0.00 (OPEN)    0.30 (GAP_MIN)

 ITER           ETOT              DE          GRAD        DDIFF     DIIS  NEXP   TIME(IT)  TIME(TOT)  DIAG
   1     -115.01417787    -115.01417787     0.00D+00     0.16D+00     0     0       0.00      0.01    start
   2     -115.04253667      -0.02835880     0.10D-01     0.20D-01     1     0       0.00      0.01    diag
   3     -115.04856763      -0.00603096     0.48D-02     0.64D-02     2     0       0.01      0.02    diag
   4     -115.04903127      -0.00046364     0.10D-02     0.20D-02     3     0       0.00      0.02    diag
   5     -115.04905228      -0.00002101     0.18D-03     0.43D-03     4     0       0.00      0.02    diag
   6     -115.04905307      -0.00000080     0.32D-04     0.93D-04     5     0       0.01      0.03    diag
   7     -115.04905311      -0.00000003     0.67D-05     0.15D-04     6     0       0.00      0.03    diag
   8     -115.04905311      -0.00000000     0.22D-05     0.50D-05     7     0       0.01      0.04    fixocc
   9     -115.04905311      -0.00000000     0.45D-06     0.14D-05     8     0       0.00      0.04    diag
  10     -115.04905311      -0.00000000     0.73D-07     0.24D-06     9     0       0.00      0.04    diag/orth
  11     -115.04905311      -0.00000000     0.17D-07     0.48D-07     9     0       0.00      0.04    diag
  12     -115.04905311      -0.00000000     0.45D-08     0.14D-07     9     0       0.00      0.04    diag
  13     -115.04905311      -0.00000000     0.70D-09     0.20D-08     9     0       0.00      0.04    diag
  14     -115.04905311      -0.00000000     0.16D-09     0.42D-09     9     0       0.01      0.05    diag
  15     -115.04905311       0.00000000     0.69D-10     0.13D-09     9     0       0.00      0.05    diag
  16     -115.04905311       0.00000000     0.21D-10     0.48D-10     9     0       0.00      0.05    diag
  17     -115.04905311       0.00000000     0.53D-11     0.87D-11     0     0       0.00      0.05    diag

 Final occupancy:   9

 !RHF STATE 1.1 Energy               -115.049053108852
  RHF One-electron energy            -236.879059230979
  RHF Two-electron energy              81.522039513482
  RHF Kinetic energy                  114.942870638862
  RHF Nuclear energy                   40.307966608645
  RHF Virial quotient                  -1.000923784741

 !RHF STATE 1.1 Dipole moment          -0.39324917    -0.59495879     0.00583167
 Dipole moment /Debye                  -0.99953969    -1.51223440     0.01482263

 Orbital energies:

           1.1          2.1          3.1          4.1          5.1          6.1          7.1          8.1          9.1         10.1
    -20.549947   -11.274706    -1.349892    -0.921329    -0.682823    -0.613695    -0.584893    -0.497100    -0.443105     0.184563

          11.1
      0.224401


 HOMO      9.1    -0.443105 =     -12.0575eV
 LUMO     10.1     0.184563 =       5.0222eV
 LUMO-HOMO         0.627668 =      17.0797eV

 Orbitals saved in record  2100.2


 **********************************************************************************************************************************
 DATASETS  * FILE   NREC   LENGTH (MB)   RECORD NAMES
              1      18       28.73       500      610      700      900      950      970     1000      129      960     1100   
                                          VAR    BASINP    GEOM    SYMINP    ZMAT    AOBASIS   BASIS     P2S    ABASIS      S 
                                         1400     1410     1200     1210     1080     1600     1650     1700   
                                           T        V       H0       H01     AOSYM     SMH    MOLCAS    OPER   

              2       4        0.47       700     1000      520     2100   
                                         GEOM     BASIS   MCVARS     RHF  

 PROGRAMS   *        TOTAL   RHF-SCF       INT
 CPU TIMES  *         0.48      0.05      0.29
 REAL TIME  *         1.26 SEC
 DISK USED  *        29.40 MB (local),      105.68 MB (total)
 GA USED    *         0.00 MB       (max)       0.00 MB       (current)
 **********************************************************************************************************************************


 PROGRAM * CCSD (Closed-shell coupled cluster)     Authors: C. Hampel, H.-J. Werner, 1991, M. Deegan, P.J. Knowles, 1992


 Convergence thresholds:  THRVAR = 1.00D-08  THRDEN = 1.00D-12

 CCSD(T)     terms to be evaluated (factor= 1.000)


 Number of core orbitals:           2 (   2 )
 Number of closed-shell orbitals:   7 (   7 )
 Number of external orbitals:      39 (  39 )

 Molecular orbitals read from record     2100.2  Type=RHF/CANONICAL  

 Number of N-1 electron functions:               7
 Number of N-2 electron functions:              28
 Number of singly external CSFs:               273
 Number of doubly external CSFs:             37401
 Total number of CSFs:                       37675

 Length of J-op  integral file:               0.00 MB
 Length of K-op  integral file:               0.16 MB
 Length of 3-ext integral record:             0.00 MB

 Memory could be reduced to 0.73 Mwords without degradation in triples

 Integral transformation finished. Total CPU:   0.02 sec, npass=  1  Memory used:   0.66 MW

 Reference energy:                   -115.04905311

 MP2 singlet pair energy:              -0.21864874
 MP2 triplet pair energy:              -0.11983697
 MP2 correlation energy:               -0.33848571
 MP2 total energy:                   -115.38753882

 SCS-MP2 correlation energy:           -0.33694371   (PS=  1.200000  PT=  0.333333)
 SCS-MP2 total energy:               -115.38599682

 ITER.      SQ.NORM     CORR.ENERGY   TOTAL ENERGY   ENERGY CHANGE        DEN1      VAR(S)    VAR(P)  DIIS     TIME  TIME/IT
   1      1.10733806    -0.36128528  -115.41033839    -0.02279957    -0.01411775  0.91D-03  0.17D-02  1  1     0.06     0.04
   2      1.11586638    -0.36323086  -115.41228397    -0.00194558    -0.00925163  0.20D-04  0.16D-03  2  2     0.07     0.04
   3      1.11774950    -0.36335831  -115.41241142    -0.00012746    -0.00120492  0.95D-05  0.86D-05  3  3     0.09     0.04
   4      1.11826532    -0.36335696  -115.41241007     0.00000135    -0.00025517  0.34D-06  0.68D-06  4  4     0.11     0.03
   5      1.11836366    -0.36335737  -115.41241048    -0.00000041    -0.00003611  0.10D-06  0.49D-07  5  5     0.13     0.03
   6      1.11838278    -0.36335601  -115.41240912     0.00000136    -0.00000437  0.16D-07  0.41D-08  6  6     0.15     0.03
   7      1.11838755    -0.36335559  -115.41240870     0.00000042    -0.00000035  0.20D-08  0.72D-09  6  1     0.17     0.03
   8      1.11838882    -0.36335569  -115.41240880    -0.00000010     0.00000075  0.26D-09  0.72D-10  6  3     0.19     0.04
   9      1.11838989    -0.36335557  -115.41240868     0.00000012    -0.00000038  0.13D-10  0.10D-10  6  2     0.21     0.04
  10      1.11838981    -0.36335557  -115.41240868    -0.00000000     0.00000007  0.11D-11  0.88D-12  6  5     0.23     0.04
  11      1.11838985    -0.36335557  -115.41240868     0.00000000    -0.00000000  0.20D-12  0.51D-13  6  4     0.25     0.04
  12      1.11838983    -0.36335557  -115.41240868    -0.00000000     0.00000001  0.20D-13  0.10D-13  6  1     0.27     0.04
  13      1.11838983    -0.36335557  -115.41240868    -0.00000000    -0.00000000  0.27D-14  0.99D-15  6  6     0.28     0.04
  14      1.11838983    -0.36335557  -115.41240868     0.00000000    -0.00000000  0.31D-15  0.14D-15  6  3     0.30     0.04
  15      1.11838983    -0.36335557  -115.41240868    -0.00000000    -0.00000000  0.51D-16  0.20D-16  6  2     0.32     0.04
  16      1.11838983    -0.36335557  -115.41240868    -0.00000000    -0.00000000  0.74D-17  0.20D-17  6  4     0.34     0.04
  17      1.11838983    -0.36335557  -115.41240868    -0.00000000    -0.00000000  0.17D-17  0.27D-18  6  5     0.36     0.03
  18      1.11838983    -0.36335557  -115.41240868     0.00000000    -0.00000000  0.44D-18  0.92D-19  6  1     0.38     0.03
  19      1.11838983    -0.36335557  -115.41240868     0.00000000    -0.00000000  0.41D-19  0.11D-19  6  6     0.40     0.03
  20      1.11838983    -0.36335557  -115.41240868     0.00000000     0.00000000  0.32D-20  0.16D-20  6  3     0.42     0.03

 Norm of t1 vector:      0.04167553      S-energy:    -0.00000000      T1 diagnostic:  0.00787594
                                                                       D1 diagnostic:  0.01751979
                                                                       D2 diagnostic:  0.13433512 (internal)


 Total CPU time for triples:      0.09 sec


 RESULTS
 =======

  Reference energy                   -115.049053108853
  CCSD singlet pair energy             -0.254604907662
  CCSD triplet pair energy             -0.108750664067
  CCSD correlation energy              -0.363355571729

  Triples (T) contribution             -0.007738804358
  Total correlation energy             -0.371094376088

  CCSD total energy                  -115.412408680582
  CCSD[T] energy                     -115.420437594278
  CCSD-T energy                      -115.419997462193
 !CCSD(T) total energy               -115.420147484940

 Timing summary (sec):

 STEP                 CPU(USER)    SYS     CPU(TOT)    WALL
 Transformation          0.02      0.01      0.03      0.04
 CCSD iterations         0.40      0.07      0.47      0.72
 Triples                 0.09      0.00      0.09      0.09

 Program statistics:

 Available memory in ccsd:               999999795
 Min. memory needed in ccsd:                136177
 Max. memory used in ccsd:                  162910
 Max. memory used in cckext:                178997 (20 integral passes)



 **********************************************************************************************************************************
 DATASETS  * FILE   NREC   LENGTH (MB)   RECORD NAMES
              1      19       31.13       500      610      700      900      950      970     1000      129      960     1100   
                                          VAR    BASINP    GEOM    SYMINP    ZMAT    AOBASIS   BASIS     P2S    ABASIS      S 
                                         1400     1410     1200     1210     1080     1600     1650     1700     1380   
                                           T        V       H0       H01     AOSYM     SMH    MOLCAS    OPER     JKOP   

              2       4        0.47       700     1000      520     2100   
                                         GEOM     BASIS   MCVARS     RHF  

 PROGRAMS   *        TOTAL   CCSD(T)   RHF-SCF       INT
 CPU TIMES  *         1.02      0.53      0.05      0.29
 REAL TIME  *         2.17 SEC
 DISK USED  *        35.56 MB (local),      116.33 MB (total)
 SF USED    *         5.97 MB
 GA USED    *         0.00 MB       (max)       0.00 MB       (current)
 **********************************************************************************************************************************

 CCSD(T)/cc-pVDZ energy=   -115.420147484940

         CCSD(T)         RHF-SCF
   -115.42014748   -115.04905311
 **********************************************************************************************************************************
 Molpro calculation terminated
