
    -----------------------------------------------------------------------
          Psi4: An Open-Source Ab Initio Electronic Structure Package
                               Psi4 1.4a2.dev629 

                         Git: Rev {master} 2938fc2 dirty


    D. G. A. Smith, L. A. Burns, A. C. Simmonett, R. M. Parrish,
    M. C. Schieber, R. Galvelis, P. Kraus, H. Kruse, R. Di Remigio,
    A. Alenaizan, A. M. James, S. Lehtola, J. P. Misiewicz, M. Scheurer,
    R. A. Shaw, J. B. Schriber, Y. Xie, Z. L. Glick, D. A. Sirianni,
    J. S. O'Brien, J. M. Waldrop, A. Kumar, E. G. Hohenstein,
    B. P. Pritchard, B. R. Brooks, H. F. Schaefer III, A. Yu. Sokolov,
    K. Patkowski, A. E. DePrince III, U. Bozkaya, R. A. King,
    F. A. Evangelista, J. M. Turney, T. D. Crawford, C. D. Sherrill,
    J. Chem. Phys. 152(18) 184108 (2020). https://doi.org/10.1063/5.0006002

                            Additional Code Authors
    E. T. Seidl, C. L. Janssen, E. F. Valeev, M. L. Leininger,
    J. F. Gonthier, R. M. Richard, H. R. McAlexander, M. Saitow, X. Wang,
    P. Verma, and M. H. Lechner

             Previous Authors, Complete List of Code Contributors,
                       and Citations for Specific Modules
    https://github.com/psi4/psi4/blob/master/codemeta.json
    https://github.com/psi4/psi4/graphs/contributors
    http://psicode.org/psi4manual/master/introduction.html#citing-psifour

    -----------------------------------------------------------------------


    Psi4 started on: Wednesday, 21 September 2022 04:18PM

    Process ID: 214895
    Host:       n070
    PSIDATADIR: /opt/psi/4/master/share/psi4
    Memory:     500.0 MiB
    Threads:    1
    
  ==> Input File <==

--------------------------------------------------------------------------
# o-Benzyne preliminary computations

memory 14 gb

molecule {
  0 1
  units bohr
 C   -1.3745148226   -0.0251312560    0.0000003413
 O    1.3039496927    0.1212483802    0.0000002431
 H   -2.0696431984    1.9078275107   -0.0000798848
 H   -2.1115833499   -0.9809136465    1.6810031047
 H   -2.1115765869   -0.9810448194   -1.6809308546
 H    1.9396441051   -1.5721182890   -0.0000013597
  no_reorient
  no_com
}

set {
  basis 6-31g*
  reference rhf
  e_convergence 10 
  d_convergence 10
  r_convergence 8
  maxiter 300
  dft_spherical_points 1202
  dft_radial_points 99
  freeze_core True
}


#gradient('ccsd(t)')
gradient('b3lyp')
--------------------------------------------------------------------------

  Memory set to  13.039 GiB by Python driver.

Scratch directory: /tmp/
gradient() will perform analytic gradient computation.

*** tstart() called on n070
*** at Wed Sep 21 16:18:11 2022

   => Loading Basis Set <=

    Name: 6-31G*
    Role: ORBITAL
    Keyword: BASIS
    atoms 1   entry C          line   111 file /opt/psi/4/master/share/psi4/basis/6-31gs.gbs 
    atoms 2   entry O          line   145 file /opt/psi/4/master/share/psi4/basis/6-31gs.gbs 
    atoms 3-6 entry H          line    44 file /opt/psi/4/master/share/psi4/basis/6-31gs.gbs 


         ---------------------------------------------------------
                                   SCF
               by Justin Turney, Rob Parrish, Andy Simmonett
                          and Daniel G. A. Smith
                              RKS Reference
                        1 Threads,  13351 MiB Core
         ---------------------------------------------------------

  ==> Geometry <==

    Molecular point group: c1
    Full point group: C1

    Geometry (in Bohr), charge = 0, multiplicity = 1:

       Center              X                  Y                   Z               Mass       
    ------------   -----------------  -----------------  -----------------  -----------------
         C           -1.374514822600    -0.025131256000     0.000000341300    12.000000000000
         O            1.303949692700     0.121248380200     0.000000243100    15.994914619570
         H           -2.069643198400     1.907827510700    -0.000079884800     1.007825032230
         H           -2.111583349900    -0.980913646500     1.681003104700     1.007825032230
         H           -2.111576586900    -0.981044819400    -1.680930854600     1.007825032230
         H            1.939644105100    -1.572118289000    -0.000001359700     1.007825032230

  Running in c1 symmetry.

  Rotational constants: A =      4.28863  B =      0.82852  C =      0.79941 [cm^-1]
  Rotational constants: A = 128569.79391  B =  24838.53687  C =  23965.77793 [MHz]
  Nuclear repulsion =   40.345941128039890

  Charge       = 0
  Multiplicity = 1
  Electrons    = 18
  Nalpha       = 9
  Nbeta        = 9

  ==> Algorithm <==

  SCF Algorithm Type is DF.
  DIIS enabled.
  MOM disabled.
  Fractional occupation disabled.
  Guess Type is SAD.
  Energy threshold   = 1.00e-10
  Density threshold  = 1.00e-10
  Integral threshold = 0.00e+00

  ==> Primary Basis <==

  Basis Set: 6-31G*
    Blend: 6-31G*
    Number of shells: 20
    Number of basis function: 38
    Number of Cartesian functions: 38
    Spherical Harmonics?: false
    Max angular momentum: 2

  ==> DFT Potential <==

   => Composite Functional: B3LYP <= 

    B3LYP Hyb-GGA Exchange-Correlation Functional

    P. J. Stephens, F. J. Devlin, C. F. Chabalowski, and M. J. Frisch, J. Phys. Chem. 98, 11623 (1994)

    Deriv               =              1
    GGA                 =           TRUE
    Meta                =          FALSE

    Exchange Hybrid     =           TRUE
    MP2 Hybrid          =          FALSE

   => Exchange Functionals <=

    0.0800   Slater exchange
    0.7200         Becke 88

   => Exact (HF) Exchange <=

    0.2000               HF 

   => Correlation Functionals <=

    0.1900   Vosko, Wilk & Nusair (VWN5_RPA)
    0.8100   Lee, Yang & Parr

   => Molecular Quadrature <=

    Radial Scheme          =       TREUTLER
    Pruning Scheme         =           NONE
    Nuclear Scheme         =       TREUTLER

    BS radius alpha        =              1
    Pruning alpha          =              1
    Radial Points          =             99
    Spherical Points       =           1202
    Total Points           =         678815
    Total Blocks           =           4729
    Max Points             =            256
    Max Functions          =             38
    Weights Tolerance      =       1.00E-15

   => Loading Basis Set <=

    Name: (6-31G* AUX)
    Role: JKFIT
    Keyword: DF_BASIS_SCF
    atoms 1   entry C          line   121 file /opt/psi/4/master/share/psi4/basis/cc-pvdz-jkfit.gbs 
    atoms 2   entry O          line   221 file /opt/psi/4/master/share/psi4/basis/cc-pvdz-jkfit.gbs 
    atoms 3-6 entry H          line    51 file /opt/psi/4/master/share/psi4/basis/cc-pvdz-jkfit.gbs 

  ==> Integral Setup <==

  DFHelper Memory: AOs need 0.004 GiB; user supplied 9.070 GiB. Using in-core AOs.

  ==> MemDFJK: Density-Fitted J/K Matrices <==

    J tasked:                   Yes
    K tasked:                   Yes
    wK tasked:                   No
    OpenMP threads:               1
    Memory [MiB]:              9287
    Algorithm:                 Core
    Schwarz Cutoff:           1E-12
    Mask sparsity (%):       0.0000
    Fitting Condition:        1E-10

   => Auxiliary Basis Set <=

  Basis Set: (6-31G* AUX)
    Blend: CC-PVDZ-JKFIT
    Number of shells: 84
    Number of basis function: 262
    Number of Cartesian functions: 262
    Spherical Harmonics?: false
    Max angular momentum: 3

  Cached 100.0% of DFT collocation blocks in 0.709 [GiB].

  Minimum eigenvalue in the overlap matrix is 9.7134710169E-03.
  Reciprocal condition number of the overlap matrix is 1.6178988265E-03.
    Using symmetric orthogonalization.

  ==> Pre-Iterations <==

  SCF Guess: Superposition of Atomic Densities via on-the-fly atomic UHF (no occupation information).

   -------------------------
    Irrep   Nso     Nmo    
   -------------------------
     A         38      38 
   -------------------------
    Total      38      38
   -------------------------

  ==> Iterations <==

                           Total Energy        Delta E     RMS |[F,P]|

   @DF-RKS iter SAD:  -115.27939232044665   -1.15279e+02   0.00000e+00 
   @DF-RKS iter   1:  -115.54923815628530   -2.69846e-01   1.61044e-02 DIIS
   @DF-RKS iter   2:  -115.45073145060917    9.85067e-02   2.10624e-02 DIIS
   @DF-RKS iter   3:  -115.71152512499404   -2.60794e-01   2.13543e-03 DIIS
   @DF-RKS iter   4:  -115.71396608123355   -2.44096e-03   6.71460e-04 DIIS
   @DF-RKS iter   5:  -115.71423141533553   -2.65334e-04   8.10745e-05 DIIS
   @DF-RKS iter   6:  -115.71423528184742   -3.86651e-06   8.48552e-06 DIIS
   @DF-RKS iter   7:  -115.71423532758094   -4.57335e-08   7.61847e-07 DIIS
   @DF-RKS iter   8:  -115.71423532798359   -4.02650e-10   1.06336e-07 DIIS
   @DF-RKS iter   9:  -115.71423532799155   -7.95808e-12   2.02459e-08 DIIS
   @DF-RKS iter  10:  -115.71423532799173   -1.84741e-13   1.33945e-09 DIIS
   @DF-RKS iter  11:  -115.71423532799176   -2.84217e-14   1.19203e-10 DIIS
   @DF-RKS iter  12:  -115.71423532799176    0.00000e+00   2.22118e-11 DIIS
  Energy and wave function converged.


  ==> Post-Iterations <==

    Orbital Energies [Eh]
    ---------------------

    Doubly Occupied:                                                      

       1A    -19.138286     2A    -10.222852     3A     -1.012173  
       4A     -0.680447     5A     -0.503277     6A     -0.435467  
       7A     -0.419958     8A     -0.330884     9A     -0.264485  

    Virtual:                                                              

      10A      0.077718    11A      0.132865    12A      0.168678  
      13A      0.176530    14A      0.206261    15A      0.534083  
      16A      0.566001    17A      0.575497    18A      0.792917  
      19A      0.853234    20A      0.873763    21A      0.907467  
      22A      0.957201    23A      0.976933    24A      1.025088  
      25A      1.114908    26A      1.463271    27A      1.502155  
      28A      1.585131    29A      1.743736    30A      2.042775  
      31A      2.118932    32A      2.136271    33A      2.351241  
      34A      2.403248    35A      2.460579    36A      2.795028  
      37A      3.700591    38A      4.217018  

    Final Occupation by Irrep:
              A 
    DOCC [     9 ]

  @DF-RKS Final Energy:  -115.71423532799176

   => Energetics <=

    Nuclear Repulsion Energy =             40.3459411280398896
    One-Electron Energy =                -237.0856602070887220
    Two-Electron Energy =                  93.5795901776242118
    DFT Exchange-Correlation Energy =     -12.5541064265671416
    Empirical Dispersion Energy =           0.0000000000000000
    VV10 Nonlocal Energy =                  0.0000000000000000
    Total Energy =                       -115.7142353279917586

Computation Completed


Properties will be evaluated at   0.000000,   0.000000,   0.000000 [a0]

Properties computed using the SCF density matrix

  Nuclear Dipole Moment: [e a0]
     X:    -2.1687      Y:    -0.8070      Z:    -0.0000

  Electronic Dipole Moment: [e a0]
     X:     1.8386      Y:     0.2238      Z:     0.0000

  Dipole Moment: [e a0]
     X:    -0.3301      Y:    -0.5832      Z:    -0.0000     Total:     0.6702

  Dipole Moment: [D]
     X:    -0.8390      Y:    -1.4825      Z:    -0.0000     Total:     1.7034


*** tstop() called on n070 at Wed Sep 21 16:18:29 2022
Module time:
	user time   =      17.28 seconds =       0.29 minutes
	system time =       0.32 seconds =       0.01 minutes
	total time  =         18 seconds =       0.30 minutes
Total time:
	user time   =      17.28 seconds =       0.29 minutes
	system time =       0.32 seconds =       0.01 minutes
	total time  =         18 seconds =       0.30 minutes

*** tstart() called on n070
*** at Wed Sep 21 16:18:29 2022


         ------------------------------------------------------------
                                   SCF GRAD                          
                          Rob Parrish, Justin Turney,                
                       Andy Simmonett, and Alex Sokolov              
         ------------------------------------------------------------

  ==> Geometry <==

    Molecular point group: c1
    Full point group: C1

    Geometry (in Bohr), charge = 0, multiplicity = 1:

       Center              X                  Y                   Z               Mass       
    ------------   -----------------  -----------------  -----------------  -----------------
         C           -1.374514822600    -0.025131256000     0.000000341300    12.000000000000
         O            1.303949692700     0.121248380200     0.000000243100    15.994914619570
         H           -2.069643198400     1.907827510700    -0.000079884800     1.007825032230
         H           -2.111583349900    -0.980913646500     1.681003104700     1.007825032230
         H           -2.111576586900    -0.981044819400    -1.680930854600     1.007825032230
         H            1.939644105100    -1.572118289000    -0.000001359700     1.007825032230

  Nuclear repulsion =   40.345941128039890

  ==> Basis Set <==

  Basis Set: 6-31G*
    Blend: 6-31G*
    Number of shells: 20
    Number of basis function: 38
    Number of Cartesian functions: 38
    Spherical Harmonics?: false
    Max angular momentum: 2

  ==> DFJKGrad: Density-Fitted SCF Gradients <==

    Gradient:                    1
    J tasked:                  Yes
    K tasked:                  Yes
    wK tasked:                  No
    OpenMP threads:              1
    Integrals threads:           1
    Memory [MiB]:            10013
    Schwarz Cutoff:          0E+00
    Fitting Condition:       1E-10

   => Auxiliary Basis Set <=

  Basis Set: (6-31G* AUX)
    Blend: CC-PVDZ-JKFIT
    Number of shells: 84
    Number of basis function: 262
    Number of Cartesian functions: 262
    Spherical Harmonics?: false
    Max angular momentum: 3

  ==> DFT Potential <==

   => Composite Functional: B3LYP <= 

    B3LYP Hyb-GGA Exchange-Correlation Functional

    P. J. Stephens, F. J. Devlin, C. F. Chabalowski, and M. J. Frisch, J. Phys. Chem. 98, 11623 (1994)

    Deriv               =              1
    GGA                 =           TRUE
    Meta                =          FALSE

    Exchange Hybrid     =           TRUE
    MP2 Hybrid          =          FALSE

   => Exchange Functionals <=

    0.0800   Slater exchange
    0.7200         Becke 88

   => Exact (HF) Exchange <=

    0.2000               HF 

   => Correlation Functionals <=

    0.1900   Vosko, Wilk & Nusair (VWN5_RPA)
    0.8100   Lee, Yang & Parr

   => Molecular Quadrature <=

    Radial Scheme          =       TREUTLER
    Pruning Scheme         =           NONE
    Nuclear Scheme         =       TREUTLER

    BS radius alpha        =              1
    Pruning alpha          =              1
    Radial Points          =             99
    Spherical Points       =           1202
    Total Points           =         678815
    Total Blocks           =           4729
    Max Points             =            256
    Max Functions          =             38
    Weights Tolerance      =       1.00E-15


  -Total Gradient:
     Atom            X                  Y                   Z
    ------   -----------------  -----------------  -----------------
       1       -0.004763300656     0.000435891250     0.000000200668
       2        0.003786344672    -0.010456394549     0.000000250101
       3        0.001728671498    -0.003834501198    -0.000000052373
       4        0.001905002747     0.001637077981    -0.002948968641
       5        0.001904936219     0.001637284238     0.002948793158
       6       -0.004561736578     0.010580709319    -0.000000222915


*** tstop() called on n070 at Wed Sep 21 16:18:31 2022
Module time:
	user time   =       2.77 seconds =       0.05 minutes
	system time =       0.01 seconds =       0.00 minutes
	total time  =          2 seconds =       0.03 minutes
Total time:
	user time   =      20.05 seconds =       0.33 minutes
	system time =       0.33 seconds =       0.01 minutes
	total time  =         20 seconds =       0.33 minutes

    Psi4 stopped on: Wednesday, 21 September 2022 04:18PM
    Psi4 wall time for execution: 0:00:20.44

*** Psi4 exiting successfully. Buy a developer a beer!
