
 Primary working directories    : /tmp/795519.58.gen4.q
 Secondary working directories  : /tmp/795519.58.gen4.q
 Wavefunction directory         : /home/vulcan/mel64643/wfu/
 Main file repository           : /tmp/795519.58.gen4.q/

 ARCHNAME  : Linux/x86_64
 FC        : /opt/intel/compilers_and_libraries_2016.1.150/linux/bin/intel64/ifort
 FCVERSION : 16.0.1
 BLASLIB   : -mkl
 id        : ccgc

 Nodes     nprocs
 n027         1
 ga_uses_ma=false, calling ma_init with nominal heap.
 GA-space will be limited to   8.0 MW (determined by -G option)

 Using customized tuning parameters: mindgm=10; mindgv=16; mindgc=4; mindgr=1; noblas=0; mincuda=1000; minvec=7
 default implementation of scratch files=df  

 ***,Optimization of min3
 memory,1000,m
 gthresh,energy=1.0d-12,orbital=1.0d-10,oneint=1.0d-16,twoint=1.0d-16,optgrad=1.0d-6,compress=1.0d-13
 geomtyp=xyz
 
  bohr
  geometry = {
  6
  arbitrary comment
  C   -1.3752923570   -0.0227657545   -0.0027200800
  O    1.3070443397    0.1210722412    0.0009088332
  H   -2.0774212925    1.9035719012    0.0008434789
  H   -2.1094675419   -0.9768530274    1.6864034557
  H   -2.1096557352   -0.9776905115   -1.6852436570
  H    1.9410684269   -1.5774669690   -0.0002004408
 }
 
 basis=cc-pvdz
 {rhf;maxit,200}
 {ccsd(t);maxit,200}

 Variables initialized (661), CPU time= 0.00 sec
 Commands  initialized (458), CPU time= 0.01 sec, 486 directives.
 Default parameters read. Elapsed time= 0.06 sec

 Checking input...
 Passed
1


                                         ***  PROGRAM SYSTEM MOLPRO  ***
                         Copyright, University College Cardiff Consultants Limited, 2008

                                    Version 2010.1 linked May 16 2016 07:17:05


 **********************************************************************************************************************************
 LABEL *   Optimization of min3                                                          
 Linux-4.4.3/n027(x86_64) 64 bit mpp version                                             DATE: 24-Oct-22          TIME: 15:41:51  
 **********************************************************************************************************************************

 SHA1:             9e8077add272b0f3cad6f7df79ec5211205f459d
 **********************************************************************************************************************************

 THRESHOLDS:

 ZERO    =  1.00D-12  ONEINT  =  1.00D-16  TWOINT  =  1.00D-16  PREFAC  =  1.00D-14  LOCALI  =  1.00D-09  EORDER  =  1.00D-04
 ENERGY  =  1.00D-12  ETEST   =  0.00D+00  EDENS   =  0.00D+00  THRDEDEF=  1.00D-06  GRADIENT=  1.00D-02  STEP    =  1.00D-03
 ORBITAL =  1.00D-10  CIVEC   =  1.00D-05  COEFF   =  1.00D-04  PRINTCI =  5.00D-02  PUNCHCI =  9.90D+01  OPTGRAD =  1.00D-06
 OPTENERG=  1.00D-06  OPTSTEP =  3.00D-04  THRGRAD =  1.00D-10  COMPRESS=  1.00D-13  VARMIN  =  1.00D-07  VARMAX  =  1.00D-03
 THRDOUB =  0.00D+00  THRDIV  =  1.00D-05  THRRED  =  1.00D-07  THRPSP  =  1.00D+00  THRDC   =  1.00D-10  THRCS   =  1.00D-10
 THRNRM  =  1.00D-08  THREQ   =  0.00D+00  THRDE   =  1.00D+00  THRREF  =  1.00D-05  SPARFAC =  1.00D+00  THRDLP  =  1.00D-07
 THRDIA  =  1.00D-10  THRDLS  =  1.00D-07  THRGPS  =  0.00D+00  THRKEX  =  0.00D+00  THRDIS  =  2.00D-01  THRVAR  =  1.00D-10
 THRLOC  =  1.00D-06  THRGAP  =  1.00D-06  THRLOCT = -1.00D+00  THRGAPT = -1.00D+00  THRORB  =  1.00D-06  THRMLTP =  0.00D+00
 THRCPQCI=  1.00D-10  KEXTA   =  0.00D+00  THRCOARS=  0.00D+00  SYMTOL  =  1.00D-06  GRADTOL =  1.00D-06  THROVL  =  1.00D-08
 THRORTH =  1.00D-08  GRID    =  1.00D-06  GRIDMAX =  1.00D-03  DTMAX   =  0.00D+00

 SETTING GEOMTYP        =    XYZ
 ZUNIT=BOHR
 

 Variable memory set to 1000000000 words,  buffer space   230000 words

 SETTING BASIS          =    CC-PVDZ


 Recomputing integrals since basis changed


 Using spherical harmonics

 Library entry C      S cc-pVDZ              selected for orbital group  1
 Library entry C      P cc-pVDZ              selected for orbital group  1
 Library entry C      D cc-pVDZ              selected for orbital group  1
 Library entry O      S cc-pVDZ              selected for orbital group  2
 Library entry O      P cc-pVDZ              selected for orbital group  2
 Library entry O      D cc-pVDZ              selected for orbital group  2
 Library entry H      S cc-pVDZ              selected for orbital group  3
 Library entry H      P cc-pVDZ              selected for orbital group  3

1PROGRAM * SEWARD (Integral evaluation for generally contracted gaussian basis sets)     Author: Roland Lindh, 1990

 Geometry written to block  1 of record 700


 Point group  C1  



 ATOMIC COORDINATES

 NR  ATOM    CHARGE       X              Y              Z

   1  C       6.00   -1.375292357   -0.022765754   -0.002720080
   2  O       8.00    1.307044340    0.121072241    0.000908833
   3  H       1.00   -2.077421292    1.903571901    0.000843479
   4  H       1.00   -2.109467542   -0.976853027    1.686403456
   5  H       1.00   -2.109655735   -0.977690511   -1.685243657
   6  H       1.00    1.941068427   -1.577466969   -0.000200441

 Bond lengths in Bohr (Angstrom)

 1-2  2.686192974  1-3  2.050310831  1-4  2.074230953  1-5  2.069313038  2-6  1.813014954
     ( 1.421472101)     ( 1.084977763)     ( 1.097635746)     ( 1.095033298)     ( 0.959406193)

 Bond angles

  1-2-6  107.39983493   2-1-3  106.95656317   2-1-4  112.14627556   2-1-5  112.34495882

  3-1-4  108.03111376   3-1-5  108.26727056   4-1-5  108.92015179

 NUCLEAR CHARGE:                   18
 NUMBER OF PRIMITIVE AOS:          82
 NUMBER OF SYMMETRY AOS:           80
 NUMBER OF CONTRACTIONS:           48   (  48A   )
 NUMBER OF CORE ORBITALS:           2   (   2A   )
 NUMBER OF VALENCE ORBITALS:       12   (  12A   )


 NUCLEAR REPULSION ENERGY   40.30052910


 Eigenvalues of metric

         1 0.966E-02 0.176E-01 0.366E-01 0.376E-01 0.381E-01 0.475E-01 0.479E-01 0.514E-01


 Contracted 2-electron integrals neglected if value below      1.0D-16
 AO integral compression algorithm  1   Integral accuracy      1.0D-16

     6.816 MB (compressed) written to integral file (100.0%)

     Node minimum: 6.816 MB, node maximum: 6.816 MB


 NUMBER OF SORTED TWO-ELECTRON INTEGRALS:     692076.     BUFFER LENGTH:  32768
 NUMBER OF SEGMENTS:   1  SEGMENT LENGTH:     692076      RECORD LENGTH: 524288

 Memory used in sort:       1.25 MW

 SORT1 READ      832256. AND WROTE      682150. INTEGRALS IN      2 RECORDS. CPU TIME:     0.01 SEC, REAL TIME:     0.01 SEC
 SORT2 READ      682150. AND WROTE      692076. INTEGRALS IN     26 RECORDS. CPU TIME:     0.02 SEC, REAL TIME:     0.03 SEC

 FILE SIZES:   FILE 1:     8.4 MBYTE,  FILE 4:     8.4 MBYTE,   TOTAL:     16.8 MBYTE

 OPERATOR DM      FOR CENTER  0  COORDINATES:    0.000000    0.000000    0.000000


 **********************************************************************************************************************************
 DATASETS  * FILE   NREC   LENGTH (MB)   RECORD NAMES
              1      19        8.40       500      610      700      900      950      970     1000      129      960     1100   
                                          VAR    BASINP    GEOM    SYMINP    ZMAT    AOBASIS   BASIS     P2S    ABASIS      S 
                                         1400     1410     1200     1210     1080     1600     1650     1300     1700   
                                           T        V       H0       H01     AOSYM     SMH    MOLCAS    ERIS     OPER   

 PROGRAMS   *        TOTAL       INT
 CPU TIMES  *         0.34      0.28
 REAL TIME  *         0.53 SEC
 DISK USED  *        24.23 MB      
 GA USED    *         0.00 MB       (max)       0.00 MB       (current)
 **********************************************************************************************************************************

1PROGRAM * RHF-SCF (CLOSED SHELL)       Authors: W. Meyer, H.-J. Werner


 NUMBER OF ELECTRONS:       9+    9-    SPACE SYMMETRY=1    SPIN SYMMETRY: Singlet 
 CONVERGENCE THRESHOLDS:    1.00E-10 (Density)    1.00E-13 (Energy)
 MAX. NUMBER OF ITERATIONS:      200
 INTERPOLATION TYPE:            DIIS
 INTERPOLATION STEPS:              2 (START)      1 (STEP)
 LEVEL SHIFTS:                  0.00 (CLOSED)  0.00 (OPEN) 



 Orbital guess generated from atomic densities. Full valence occupancy:   14

 Molecular orbital dump at record        2100.2

 ITERATION    DDIFF          GRAD             ENERGY        2-EL.EN.            DIPOLE MOMENTS         DIIS
    1      0.000D+00      0.000D+00      -115.01418814    164.373916   -0.49680   -0.90110   -0.00090    0
    2      0.000D+00      0.110D-01      -115.04255428    162.155566   -0.31765   -0.53435   -0.00132    1
    3      0.205D-01      0.530D-02      -115.04859013    163.180367   -0.40149   -0.60913   -0.00174    2
    4      0.639D-02      0.112D-02      -115.04905369    163.024292   -0.39129   -0.59777   -0.00188    3
    5      0.204D-02      0.202D-03      -115.04907469    163.030697   -0.39411   -0.59338   -0.00195    4
    6      0.433D-03      0.354D-04      -115.04907548    163.030861   -0.39441   -0.59315   -0.00197    5
    7      0.930D-04      0.735D-05      -115.04907551    163.029669   -0.39454   -0.59298   -0.00197    6
    8      0.150D-04      0.237D-05      -115.04907552    163.030050   -0.39458   -0.59295   -0.00197    7
    9      0.502D-05      0.487D-06      -115.04907552    163.030010   -0.39459   -0.59295   -0.00197    6
   10      0.140D-05      0.863D-07      -115.04907552    163.030008   -0.39459   -0.59295   -0.00197    6
   11      0.232D-06      0.321D-07      -115.04907552    163.030014   -0.39459   -0.59295   -0.00197    6
   12      0.582D-07      0.134D-07      -115.04907552    163.030012   -0.39459   -0.59295   -0.00197    7
   13      0.249D-07      0.299D-08      -115.04907552    163.030012   -0.39459   -0.59295   -0.00197    7
   14      0.745D-08      0.645D-09      -115.04907552    163.030012   -0.39459   -0.59295   -0.00197    7
   15      0.165D-08      0.149D-09      -115.04907552    163.030012   -0.39459   -0.59295   -0.00197    7
   16      0.331D-09      0.449D-10      -115.04907552    163.030012   -0.39459   -0.59295   -0.00197    7
   17      0.869D-10      0.148D-10      -115.04907552    163.030012   -0.39459   -0.59295   -0.00197    0

 Final occupancy:   9

 !RHF STATE 1.1 Energy               -115.049075516063
 Nuclear energy                        40.30052910
 One-electron energy                 -236.86461076
 Two-electron energy                   81.51500614
 Virial quotient                       -1.00092775
 !RHF STATE 1.1 Dipole moment          -0.39459141    -0.59295239    -0.00197243
 Dipole moment /Debye                  -1.00288563    -1.50703594    -0.00501310

 Orbital energies:

         1.1          2.1          3.1          4.1          5.1          6.1          7.1          8.1          9.1         10.1
    -20.549945   -11.274705    -1.349672    -0.921475    -0.682423    -0.613407    -0.585373    -0.497236    -0.443063     0.184584

        11.1
      0.224415


 **********************************************************************************************************************************
 DATASETS  * FILE   NREC   LENGTH (MB)   RECORD NAMES
              1      19        8.40       500      610      700      900      950      970     1000      129      960     1100   
                                          VAR    BASINP    GEOM    SYMINP    ZMAT    AOBASIS   BASIS     P2S    ABASIS      S 
                                         1400     1410     1200     1210     1080     1600     1650     1300     1700   
                                           T        V       H0       H01     AOSYM     SMH    MOLCAS    ERIS     OPER   

              2       3        0.39       700     1000     2100   
                                         GEOM     BASIS     RHF  

 PROGRAMS   *        TOTAL       RHF       INT
 CPU TIMES  *         0.43      0.09      0.28
 REAL TIME  *         0.66 SEC
 DISK USED  *        24.23 MB      
 GA USED    *         0.00 MB       (max)       0.00 MB       (current)
 **********************************************************************************************************************************


1PROGRAM * CCSD (Closed-shell coupled cluster)     Authors: C. Hampel, H.-J. Werner, 1991, M. Deegan, P.J. Knowles, 1992


 Convergence thresholds:  THRVAR = 1.00D-08  THRDEN = 1.00D-12

 CCSD(T)     terms to be evaluated (factor= 1.000)


 Number of core orbitals:           2 (   2 )
 Number of closed-shell orbitals:   7 (   7 )
 Number of external orbitals:      39 (  39 )

 Molecular orbitals read from record     2100.2  Type=RHF/CANONICAL (state 1.1)

 Number of N-1 electron functions:               7
 Number of N-2 electron functions:              28
 Number of singly external CSFs:               273
 Number of doubly external CSFs:             37401
 Total number of CSFs:                       37675

 Length of J-op  integral file:               0.00 MB
 Length of K-op  integral file:               0.19 MB
 Length of 3-ext integral record:             0.00 MB

 Memory could be reduced to 0.96 Mwords without degradation in triples

 Integral transformation finished. Total CPU:   0.02 sec, npass=  1  Memory used:   0.66 MW

 Reference energy:                   -115.04907552

 MP2 singlet pair energy:              -0.21865380
 MP2 triplet pair energy:              -0.11983814
 MP2 correlation energy:               -0.33849194
 MP2 total energy:                   -115.38756746

 SCS-MP2 correlation energy:           -0.33695051   (PS=  1.200000  PT=  0.333333)
 SCS-MP2 total energy:               -115.38602603

 ITER.      SQ.NORM     CORR.ENERGY   TOTAL ENERGY   ENERGY CHANGE        DEN1      VAR(S)    VAR(P)  DIIS     TIME
   1      1.10734231    -0.36128895  -115.41036446    -0.02279701    -0.01411350  0.91D-03  0.17D-02  1  1     0.07
   2      1.11587110    -0.36323422  -115.41230973    -0.00194527    -0.00925229  0.20D-04  0.16D-03  2  2     0.12
   3      1.11775491    -0.36336167  -115.41243719    -0.00012746    -0.00120533  0.95D-05  0.86D-05  3  3     0.17
   4      1.11827106    -0.36336028  -115.41243580     0.00000139    -0.00025534  0.34D-06  0.68D-06  4  4     0.22
   5      1.11836958    -0.36336068  -115.41243619    -0.00000040    -0.00003618  0.10D-06  0.49D-07  5  5     0.27
   6      1.11838876    -0.36335932  -115.41243483     0.00000136    -0.00000439  0.16D-07  0.41D-08  6  6     0.32
   7      1.11839354    -0.36335889  -115.41243441     0.00000042    -0.00000035  0.20D-08  0.73D-09  6  1     0.37
   8      1.11839482    -0.36335900  -115.41243451    -0.00000010     0.00000075  0.26D-09  0.73D-10  6  3     0.42
   9      1.11839589    -0.36335887  -115.41243439     0.00000012    -0.00000038  0.13D-10  0.10D-10  6  2     0.47
  10      1.11839581    -0.36335887  -115.41243439    -0.00000000     0.00000007  0.11D-11  0.88D-12  6  5     0.52
  11      1.11839584    -0.36335887  -115.41243439     0.00000000    -0.00000000  0.19D-12  0.51D-13  6  4     0.57
  12      1.11839583    -0.36335887  -115.41243439    -0.00000000     0.00000001  0.19D-13  0.10D-13  6  1     0.62
  13      1.11839583    -0.36335887  -115.41243439    -0.00000000    -0.00000000  0.24D-14  0.94D-15  6  6     0.67
  14      1.11839583    -0.36335887  -115.41243439     0.00000000    -0.00000000  0.22D-15  0.12D-15  6  3     0.72
  15      1.11839583    -0.36335887  -115.41243439    -0.00000000    -0.00000000  0.25D-16  0.17D-16  6  2     0.77
  16      1.11839583    -0.36335887  -115.41243439    -0.00000000    -0.00000000  0.57D-17  0.16D-17  6  5     0.82
  17      1.11839583    -0.36335887  -115.41243439    -0.00000000    -0.00000000  0.55D-18  0.25D-18  6  4     0.87
  18      1.11839583    -0.36335887  -115.41243439     0.00000000    -0.00000000  0.86D-19  0.43D-19  6  1     0.92
  19      1.11839583    -0.36335887  -115.41243439    -0.00000000    -0.00000000  0.10D-19  0.44D-20  6  6     0.97
  20      1.11839583    -0.36335887  -115.41243439     0.00000000     0.00000000  0.16D-20  0.59D-21  6  3     1.01

 Norm of t1 vector:      0.04170045      S-energy:    -0.00000000      T1 diagnostic:  0.00788064
                                                                       D1 diagnostic:  0.01753897


 Total CPU time for triples:      0.24 sec


 RESULTS
 =======

  Reference energy                   -115.049075516063
  CCSD singlet pair energy             -0.254609729196
  CCSD triplet pair energy             -0.108749145256
  CCSD correlation energy              -0.363358874453

  Triples (T) contribution             -0.007740669264
  Total correlation energy             -0.371099543718

  CCSD total energy                  -115.412434390516
  CCSD[T] energy                     -115.420465423517
  CCSD-T energy                      -115.420024907697
 !CCSD(T) total energy               -115.420175059781

 Timing summary (sec):

 STEP                 CPU(USER)    SYS     CPU(TOT)    WALL
 Transformation          0.02      0.00      0.02      0.03
 CCSD iterations         1.00      0.05      1.05      1.07
 Triples                 0.24      0.01      0.25      0.25

 Program statistics:

 Available memory in ccsd:               999999704
 Min. memory needed in ccsd:                136801
 Max. memory used in ccsd:                  163198
 Max. memory used in cckext:                182024 (20 integral passes)



 **********************************************************************************************************************************
 DATASETS  * FILE   NREC   LENGTH (MB)   RECORD NAMES
              1      20       10.93       500      610      700      900      950      970     1000      129      960     1100   
                                          VAR    BASINP    GEOM    SYMINP    ZMAT    AOBASIS   BASIS     P2S    ABASIS      S 
                                         1400     1410     1200     1210     1080     1600     1650     1300     1700     1380   
                                           T        V       H0       H01     AOSYM     SMH    MOLCAS    ERIS     OPER     JKOP   

              2       3        0.39       700     1000     2100   
                                         GEOM     BASIS     RHF  

 PROGRAMS   *        TOTAL   CCSD(T)       RHF       INT
 CPU TIMES  *         1.72      1.27      0.09      0.28
 REAL TIME  *         2.04 SEC
 DISK USED  *        25.66 MB      
 GA USED    *         0.00 MB       (max)       0.00 MB       (current)
 **********************************************************************************************************************************

        CCSD(T)         RHF-SCF 
   -115.42017506   -115.04907552
 **********************************************************************************************************************************
 Variable memory released
