
 Working directory              : /scratch/mel64643/tmp/40073433/
 Global scratch directory       : /scratch/mel64643/tmp/40073433/
 Wavefunction directory         : /home/mel64643/wfu/
 Main file repository           : /scratch/mel64643/tmp/40073433/

 id        : ccgc

 Nodes     nprocs
 a1-8         3
 Distribution of processes:   nprocs(total)=    4   nprocs(compute)=    3   nprocs(helper)=    1
 GA implementation: MPI file
 GA implementation (serial work in mppx): MPI file

 Using customized tuning parameters: mindgm=1; mindgv=20; mindgc=4; mindgr=1; noblas=0; minvec=7
 default implementation of scratch files=sf  


 Variables initialized (1015), CPU time= 0.00 sec
 ***,Optimization of min3
 memory,1000,m
 gthresh,energy=1.0d-12,orbital=1.0d-10,oneint=1.0d-16,twoint=1.0d-16,optgrad=1.0d-6,compress=1.0d-13
 geomtyp=xyz
 
  bohr
  geometry = {
  6
  arbitrary comment
  C   -1.3738388699   -0.0263111447    0.0027808593
  O    1.3018844061    0.1228463048    0.0004227708
  H   -2.0604907745    1.9076218033    0.0088941095
  H   -2.1122842847   -0.9751871685    1.6727540454
  H   -2.1162318177   -0.9923340427   -1.6855716909
  H    1.9372371807   -1.5667678722    0.0007114959
 }
 
 basis=cc-pvdz
 {rhf;maxit,200}
 {ccsd(t);maxit,200}
 Commands initialized (818), CPU time= 0.01 sec, 672 directives.
 Default parameters read. Elapsed time= 0.09 sec

 Checking input...
 Passed
1


                                         ***  PROGRAM SYSTEM MOLPRO  ***
                                       Copyright, TTI GmbH Stuttgart, 2015
                                    Version 2022.1 linked Mar  4 2022 00:40:14


 **********************************************************************************************************************************
 LABEL *   Optimization of min3                                                          
  64 bit mpp version                                                                     DATE: 07-Aug-25          TIME: 21:27:04  
 **********************************************************************************************************************************

 SHA1:             31073afc4d8441e10870424e0d77336a33bc4286
 **********************************************************************************************************************************

 Memory per process:      1000 MW
 Total memory per node:   3000 MW

 GA preallocation disabled
 GA check disabled

 Variable memory set to 1000.0 MW


 THRESHOLDS:

 ZERO    =  1.00D-12  ONEINT  =  1.00D-16  TWOINT  =  1.00D-16  PREFAC  =  1.00D-14  XXXXXX  =  1.00D-09  EORDER  =  1.00D-04
 ENERGY  =  1.00D-12  ETEST   =  0.00D+00  EDENS   =  0.00D+00  THRDEDEF=  1.00D-06  GRADIENT=  1.00D-05  STEP    =  1.00D-03
 ORBITAL =  1.00D-10  CIVEC   =  1.00D-05  COEFF   =  1.00D-04  PRINTCI =  5.00D-02  PUNCHCI =  9.90D+01  OPTGRAD =  1.00D-06
 OPTENERG=  1.00D-06  OPTSTEP =  3.00D-04  THRGRAD =  1.00D-10  COMPRESS=  1.00D-13  VARMIN  =  1.00D-07  VARMAX  =  1.00D-03
 THRDOUB =  0.00D+00  THRDIV  =  1.00D-05  THRRED  =  1.00D-07  THRPSP  =  1.00D+00  THRDC   =  1.00D-10  THRCS   =  1.00D-10
 THRNRM  =  1.00D-08  THREQ   =  0.00D+00  THRDE   =  1.00D+00  THRREF  =  1.00D-05  SPARFAC =  1.00D+00  THRDLP  =  1.00D-07
 THRDIA  =  1.00D-10  THRDLS  =  1.00D-07  THRGPS  =  0.00D+00  THRKEX  =  0.00D+00  THRDIS  =  2.00D-01  THRVAR  =  1.00D-10
 THRLOC  =  1.00D-06  THRGAP  =  1.00D-06  THRLOCT = -1.00D+00  THRGAPT = -1.00D+00  THRORB  =  1.00D-06  THRMLTP =  0.00D+00
 THRCPQCI=  1.00D-10  KEXTA   =  0.00D+00  THRCOARS=  0.00D+00  SYMTOL  =  1.00D-06  GRADTOL =  1.00D-06  THROVL  =  1.00D-08
 THRORTH =  1.00D-08  THRDLOVL= -1.00D+00  GRID    =  1.00D-06  GRIDMAX =  1.00D-03  DTMAX   =  0.00D+00  THROCCDE=  1.00D-01
 THROCCDE=  1.00D-01  THRPRINT=  2.50D-01

 SETTING GEOMTYP        =    XYZ
 ZUNIT=BOHR

 SETTING BASIS          =    CC-PVDZ


 Recomputing integrals since basis changed


 Using spherical harmonics

 Library entry C      S cc-pVDZ              selected for orbital group  1
 Library entry C      P cc-pVDZ              selected for orbital group  1
 Library entry C      D cc-pVDZ              selected for orbital group  1
 Library entry O      S cc-pVDZ              selected for orbital group  2
 Library entry O      P cc-pVDZ              selected for orbital group  2
 Library entry O      D cc-pVDZ              selected for orbital group  2
 Library entry H      S cc-pVDZ              selected for orbital group  3
 Library entry H      P cc-pVDZ              selected for orbital group  3


 PROGRAM * SEWARD (Integral evaluation for generally contracted gaussian basis sets)     Author: Roland Lindh, 1990

 Geometry written to block  1 of record 700


 Point group  C1  



 ATOMIC COORDINATES

 NR  ATOM    CHARGE       X              Y              Z

   1  C       6.00   -1.373838870   -0.026311145    0.002780859
   2  O       8.00    1.301884406    0.122846305    0.000422771
   3  H       1.00   -2.060490774    1.907621803    0.008894110
   4  H       1.00   -2.112284285   -0.975187168    1.672754045
   5  H       1.00   -2.116231818   -0.992334043   -1.685571691
   6  H       1.00    1.937237181   -1.566767872    0.000711496

 Bond lengths in Bohr (Angstrom)

 1-2  2.679878459  1-3  2.052224368  1-4  2.057784678  1-5  2.082037911  2-6  1.805123070
     ( 1.418130608)     ( 1.085990367)     ( 1.088932757)     ( 1.101767015)     ( 0.955229992)

 Bond angles

  1-2-6  107.41732843   2-1-3  106.35708385   2-1-4  112.62369778   2-1-5  112.40358520

  3-1-4  108.18282154   3-1-5  108.68387979   4-1-5  108.43225824

 NUCLEAR CHARGE:                   18
 NUMBER OF PRIMITIVE AOS:          82
 NUMBER OF SYMMETRY AOS:           80
 NUMBER OF CONTRACTIONS:           48   (   48A   )
 NUMBER OF INNER CORE ORBITALS:     0   (    0A   )
 NUMBER OF OUTER CORE ORBITALS:     2   (    2A   )
 NUMBER OF VALENCE ORBITALS:       12   (   12A   )


 NUCLEAR REPULSION ENERGY   40.38175800

 Eigenvalues of metric

         1 0.963E-02 0.176E-01 0.364E-01 0.376E-01 0.377E-01 0.471E-01 0.482E-01 0.513E-01


 Contracted 2-electron integrals neglected if value below      1.0D-16
 AO integral compression algorithm  1   Integral accuracy      1.0D-16

     7.340 MB (compressed) written to integral file (100.0%)

     Node minimum: 2.359 MB, node maximum: 2.621 MB


 NUMBER OF SORTED TWO-ELECTRON INTEGRALS:     231084.     BUFFER LENGTH:  32768
 NUMBER OF SEGMENTS:   1  SEGMENT LENGTH:     231084      RECORD LENGTH: 524288

 Memory used in sort:       0.79 MW

 SORT1 READ      832256. AND WROTE      227683. INTEGRALS IN      1 RECORDS. CPU TIME:     0.00 SEC, REAL TIME:     0.08 SEC
 SORT2 READ      682150. AND WROTE      692076. INTEGRALS IN     27 RECORDS. CPU TIME:     0.01 SEC, REAL TIME:     0.01 SEC

 Node minimum:      230300.  Node maximum:      231084. integrals

 OPERATOR DM      FOR CENTER  0  COORDINATES:    0.000000    0.000000    0.000000


 **********************************************************************************************************************************
 DATASETS  * FILE   NREC   LENGTH (MB)   RECORD NAMES
              1      18       28.73       500      610      700      900      950      970     1000      129      960     1100   
                                          VAR    BASINP    GEOM    SYMINP    ZMAT    AOBASIS   BASIS     P2S    ABASIS      S 
                                         1400     1410     1200     1210     1080     1600     1650     1700   
                                           T        V       H0       H01     AOSYM     SMH    MOLCAS    OPER   

 PROGRAMS   *        TOTAL       INT
 CPU TIMES  *         0.38      0.26
 REAL TIME  *         1.09 SEC
 DISK USED  *        29.07 MB (local),      104.69 MB (total)
 GA USED    *         0.00 MB       (max)       0.00 MB       (current)
 **********************************************************************************************************************************


 Program * Restricted Hartree-Fock

 Orbital guess generated from atomic densities. Full valence occupancy:   14

 Initial occupancy:   9

 NELEC=   18   SYM=1   MS2= 0   THRE=1.0D-12   THRD=1.0D-10   THRG=1.0D-10  HFMA2=F  DIIS_START=2   DIIS_MAX=10   DIIS_INCORE=F

 Level shifts:    0.00 (CLOSED)    0.00 (OPEN)    0.30 (GAP_MIN)

 ITER           ETOT              DE          GRAD        DDIFF     DIIS  NEXP   TIME(IT)  TIME(TOT)  DIAG
   1     -115.01439254    -115.01439254     0.00D+00     0.16D+00     0     0       0.00      0.00    start
   2     -115.04272405      -0.02833151     0.10D-01     0.21D-01     1     0       0.00      0.00    diag
   3     -115.04870639      -0.00598234     0.48D-02     0.64D-02     2     0       0.01      0.01    diag
   4     -115.04916710      -0.00046071     0.10D-02     0.20D-02     3     0       0.00      0.01    diag
   5     -115.04918776      -0.00002066     0.18D-03     0.43D-03     4     0       0.00      0.01    diag
   6     -115.04918854      -0.00000077     0.32D-04     0.92D-04     5     0       0.01      0.02    diag
   7     -115.04918857      -0.00000003     0.66D-05     0.15D-04     6     0       0.00      0.02    diag
   8     -115.04918857      -0.00000000     0.21D-05     0.50D-05     7     0       0.00      0.02    fixocc
   9     -115.04918857      -0.00000000     0.44D-06     0.14D-05     8     0       0.00      0.02    diag
  10     -115.04918857      -0.00000000     0.70D-07     0.23D-06     9     0       0.01      0.03    diag/orth
  11     -115.04918857      -0.00000000     0.16D-07     0.45D-07     9     0       0.00      0.03    diag
  12     -115.04918857      -0.00000000     0.42D-08     0.13D-07     9     0       0.00      0.03    diag
  13     -115.04918857       0.00000000     0.69D-09     0.19D-08     9     0       0.00      0.03    diag
  14     -115.04918857      -0.00000000     0.16D-09     0.41D-09     9     0       0.00      0.03    diag
  15     -115.04918857      -0.00000000     0.67D-10     0.12D-09     9     0       0.01      0.04    diag
  16     -115.04918857       0.00000000     0.20D-10     0.46D-10     9     0       0.00      0.04    diag
  17     -115.04918857      -0.00000000     0.51D-11     0.83D-11     0     0       0.00      0.04    diag

 Final occupancy:   9

 !RHF STATE 1.1 Energy               -115.049188568143
  RHF One-electron energy            -237.017307829913
  RHF Two-electron energy              81.586361264025
  RHF Kinetic energy                  114.959572423075
  RHF Nuclear energy                   40.381757997745
  RHF Virial quotient                  -1.000779544871

 !RHF STATE 1.1 Dipole moment          -0.38823336    -0.59357346     0.00586087
 Dipole moment /Debye                  -0.98679078    -1.50871324     0.01489683

 Orbital energies:

           1.1          2.1          3.1          4.1          5.1          6.1          7.1          8.1          9.1         10.1
    -20.549678   -11.274271    -1.351922    -0.921823    -0.684840    -0.613501    -0.585402    -0.498011    -0.442844     0.184831

          11.1
      0.225153


 HOMO      9.1    -0.442844 =     -12.0504eV
 LUMO     10.1     0.184831 =       5.0295eV
 LUMO-HOMO         0.627674 =      17.0799eV

 Orbitals saved in record  2100.2


 **********************************************************************************************************************************
 DATASETS  * FILE   NREC   LENGTH (MB)   RECORD NAMES
              1      18       28.73       500      610      700      900      950      970     1000      129      960     1100   
                                          VAR    BASINP    GEOM    SYMINP    ZMAT    AOBASIS   BASIS     P2S    ABASIS      S 
                                         1400     1410     1200     1210     1080     1600     1650     1700   
                                           T        V       H0       H01     AOSYM     SMH    MOLCAS    OPER   

              2       4        0.47       700     1000      520     2100   
                                         GEOM     BASIS   MCVARS     RHF  

 PROGRAMS   *        TOTAL   RHF-SCF       INT
 CPU TIMES  *         0.42      0.04      0.26
 REAL TIME  *         1.37 SEC
 DISK USED  *        29.40 MB (local),      105.68 MB (total)
 GA USED    *         0.00 MB       (max)       0.00 MB       (current)
 **********************************************************************************************************************************


 PROGRAM * CCSD (Closed-shell coupled cluster)     Authors: C. Hampel, H.-J. Werner, 1991, M. Deegan, P.J. Knowles, 1992


 Convergence thresholds:  THRVAR = 1.00D-08  THRDEN = 1.00D-12

 CCSD(T)     terms to be evaluated (factor= 1.000)


 Number of core orbitals:           2 (   2 )
 Number of closed-shell orbitals:   7 (   7 )
 Number of external orbitals:      39 (  39 )

 Molecular orbitals read from record     2100.2  Type=RHF/CANONICAL  

 Number of N-1 electron functions:               7
 Number of N-2 electron functions:              28
 Number of singly external CSFs:               273
 Number of doubly external CSFs:             37401
 Total number of CSFs:                       37675

 Length of J-op  integral file:               0.00 MB
 Length of K-op  integral file:               0.16 MB
 Length of 3-ext integral record:             0.00 MB

 Memory could be reduced to 0.73 Mwords without degradation in triples

 Integral transformation finished. Total CPU:   0.01 sec, npass=  1  Memory used:   0.66 MW

 Reference energy:                   -115.04918857

 MP2 singlet pair energy:              -0.21846426
 MP2 triplet pair energy:              -0.11979738
 MP2 correlation energy:               -0.33826164
 MP2 total energy:                   -115.38745021

 SCS-MP2 correlation energy:           -0.33669770   (PS=  1.200000  PT=  0.333333)
 SCS-MP2 total energy:               -115.38588627

 ITER.      SQ.NORM     CORR.ENERGY   TOTAL ENERGY   ENERGY CHANGE        DEN1      VAR(S)    VAR(P)  DIIS     TIME  TIME/IT
   1      1.10712259    -0.36106318  -115.41025175    -0.02280154    -0.01414884  0.91D-03  0.17D-02  1  1     0.04     0.05
   2      1.11560965    -0.36299864  -115.41218720    -0.00193546    -0.00922400  0.19D-04  0.16D-03  2  2     0.06     0.04
   3      1.11747371    -0.36312480  -115.41231336    -0.00012616    -0.00119428  0.95D-05  0.85D-05  3  3     0.08     0.03
   4      1.11798405    -0.36312320  -115.41231177     0.00000160    -0.00025309  0.32D-06  0.67D-06  4  4     0.09     0.03
   5      1.11808109    -0.36312357  -115.41231214    -0.00000037    -0.00003569  0.97D-07  0.48D-07  5  5     0.11     0.03
   6      1.11809984    -0.36312223  -115.41231080     0.00000134    -0.00000432  0.15D-07  0.40D-08  6  6     0.13     0.03
   7      1.11810450    -0.36312181  -115.41231038     0.00000042    -0.00000035  0.19D-08  0.70D-09  6  1     0.15     0.03
   8      1.11810574    -0.36312191  -115.41231048    -0.00000010     0.00000073  0.25D-09  0.69D-10  6  3     0.17     0.03
   9      1.11810678    -0.36312179  -115.41231035     0.00000012    -0.00000038  0.12D-10  0.10D-10  6  2     0.18     0.03
  10      1.11810671    -0.36312179  -115.41231036    -0.00000000     0.00000007  0.11D-11  0.84D-12  6  5     0.20     0.03
  11      1.11810674    -0.36312179  -115.41231035     0.00000000    -0.00000000  0.19D-12  0.49D-13  6  4     0.22     0.03
  12      1.11810673    -0.36312179  -115.41231036    -0.00000000     0.00000001  0.19D-13  0.97D-14  6  1     0.24     0.03
  13      1.11810673    -0.36312179  -115.41231036    -0.00000000    -0.00000000  0.26D-14  0.95D-15  6  6     0.25     0.03
  14      1.11810673    -0.36312179  -115.41231036     0.00000000    -0.00000000  0.30D-15  0.13D-15  6  3     0.27     0.03
  15      1.11810673    -0.36312179  -115.41231036    -0.00000000    -0.00000000  0.48D-16  0.19D-16  6  2     0.29     0.03
  16      1.11810673    -0.36312179  -115.41231036    -0.00000000    -0.00000000  0.70D-17  0.19D-17  6  4     0.31     0.03
  17      1.11810673    -0.36312179  -115.41231036    -0.00000000    -0.00000000  0.16D-17  0.25D-18  6  5     0.32     0.03
  18      1.11810673    -0.36312179  -115.41231036     0.00000000    -0.00000000  0.41D-18  0.87D-19  6  1     0.34     0.03
  19      1.11810673    -0.36312179  -115.41231036     0.00000000    -0.00000000  0.38D-19  0.99D-20  6  6     0.36     0.03
  20      1.11810673    -0.36312179  -115.41231036     0.00000000     0.00000000  0.30D-20  0.15D-20  6  3     0.38     0.03

 Norm of t1 vector:      0.04155212      S-energy:    -0.00000000      T1 diagnostic:  0.00785261
                                                                       D1 diagnostic:  0.01736963
                                                                       D2 diagnostic:  0.13407599 (internal)


 Total CPU time for triples:      0.08 sec


 RESULTS
 =======

  Reference energy                   -115.049188568143
  CCSD singlet pair energy             -0.254351327527
  CCSD triplet pair energy             -0.108770461146
  CCSD correlation energy              -0.363121788673

  Triples (T) contribution             -0.007716579681
  Total correlation energy             -0.370838368353

  CCSD total energy                  -115.412310356816
  CCSD[T] energy                     -115.420315714246
  CCSD-T energy                      -115.419877767114
 !CCSD(T) total energy               -115.420026936496

 Timing summary (sec):

 STEP                 CPU(USER)    SYS     CPU(TOT)    WALL
 Transformation          0.02      0.01      0.03      0.04
 CCSD iterations         0.36      0.06      0.42      0.67
 Triples                 0.08      0.01      0.09      0.08

 Program statistics:

 Available memory in ccsd:               999999795
 Min. memory needed in ccsd:                136177
 Max. memory used in ccsd:                  162910
 Max. memory used in cckext:                178997 (20 integral passes)



 **********************************************************************************************************************************
 DATASETS  * FILE   NREC   LENGTH (MB)   RECORD NAMES
              1      19       31.13       500      610      700      900      950      970     1000      129      960     1100   
                                          VAR    BASINP    GEOM    SYMINP    ZMAT    AOBASIS   BASIS     P2S    ABASIS      S 
                                         1400     1410     1200     1210     1080     1600     1650     1700     1380   
                                           T        V       H0       H01     AOSYM     SMH    MOLCAS    OPER     JKOP   

              2       4        0.47       700     1000      520     2100   
                                         GEOM     BASIS   MCVARS     RHF  

 PROGRAMS   *        TOTAL   CCSD(T)   RHF-SCF       INT
 CPU TIMES  *         0.91      0.49      0.04      0.26
 REAL TIME  *         2.31 SEC
 DISK USED  *        35.56 MB (local),      116.33 MB (total)
 SF USED    *         5.97 MB
 GA USED    *         0.00 MB       (max)       0.00 MB       (current)
 **********************************************************************************************************************************

 CCSD(T)/cc-pVDZ energy=   -115.420026936496

         CCSD(T)         RHF-SCF
   -115.42002694   -115.04918857
 **********************************************************************************************************************************
 Molpro calculation terminated
