[Molden Format]
[ATOMS] AU
C        1    6       -1.4266765200        0.0000000000       -0.8236920700
C        2    6       -0.0000000000        0.0000000000        1.6473841500
C        3    6        1.4266765200       -0.0000000000       -0.8236920700
H        4    1       -2.3793666700        1.7221072400       -1.3737279900
H        5    1       -2.3793666700       -1.7221072400       -1.3737279900
H        6    1       -0.0000000000        1.7221072400        2.7474559700
H        7    1       -0.0000000000       -1.7221072400        2.7474559700
H        8    1        2.3793666700        1.7221072400       -1.3737279900
H        9    1        2.3793666700       -1.7221072400       -1.3737279900
[Molden Format]
 [FREQ]
     1224.4017944737
     1624.4317057856
     2859.7197397838
     1088.5895369505
      893.3635569796
     1061.5341286335
     1611.1904332971
     2865.9128205913
     1160.8723645306
      857.7344356332
     3248.6262548200
      740.8989362794
     1217.3399895203
     3228.7440264326
 [FR-COORD]
C           -1.4266765200        0.0000000000       -0.8236920700
C           -0.0000000000        0.0000000000        1.6473841500
C            1.4266765200       -0.0000000000       -0.8236920700
H           -2.3793666700        1.7221072400       -1.3737279900
H           -2.3793666700       -1.7221072400       -1.3737279900
H           -0.0000000000        1.7221072400        2.7474559700
H           -0.0000000000       -1.7221072400        2.7474559700
H            2.3793666700        1.7221072400       -1.3737279900
H            2.3793666700       -1.7221072400       -1.3737279900
 [FR-NORM-COORD]
  vibration                      1
       -0.0828788900        0.0000000000       -0.0478501496
        0.0000000000        0.0000000000        0.0957002988
        0.0828788900        0.0000000000       -0.0478501496
       -0.0925424542       -0.0614275602       -0.0534294108
       -0.0925424542        0.0614275602       -0.0534294108
        0.0000000000       -0.0614275601        0.1068588217
        0.0000000000        0.0614275601        0.1068588217
        0.0925424542       -0.0614275602       -0.0534294108
        0.0925424542        0.0614275602       -0.0534294108
  vibration                      2
        0.0066368968        0.0000000000        0.0038318144
       -0.0000000000       -0.0000000000       -0.0076636281
       -0.0066368968       -0.0000000000        0.0038318144
       -0.0786641647        0.0868269782       -0.0454167767
       -0.0786641647       -0.0868269782       -0.0454167767
       -0.0000000000        0.0868269787        0.0908335532
       -0.0000000000       -0.0868269787        0.0908335532
        0.0786641647        0.0868269782       -0.0454167767
        0.0786641647       -0.0868269782       -0.0454167767
  vibration                      3
       -0.0206902165       -0.0000000000       -0.0119455020
        0.0000000000       -0.0000000000        0.0238910042
        0.0206902165       -0.0000000000       -0.0119455020
        0.0650968879        0.0908740370        0.0375837057
        0.0650968879       -0.0908740370        0.0375837057
       -0.0000000000        0.0908740363       -0.0751674114
       -0.0000000000       -0.0908740363       -0.0751674114
       -0.0650968879        0.0908740371        0.0375837057
       -0.0650968879       -0.0908740371        0.0375837057
  vibration                      4
       -0.0793503295       -0.0000000000        0.1379512515
        0.1591444533       -0.0000000000       -0.0002562247
       -0.0797941237       -0.0000000000       -0.1376950268
        0.0241664639       -0.0003486967       -0.0411403074
        0.0241664639        0.0003486967       -0.0411403074
       -0.0477117839       -0.0003486964       -0.0003586176
       -0.0477117839        0.0003486964       -0.0003586176
        0.0235453200       -0.0003486961        0.0414989250
        0.0235453200        0.0003486961        0.0414989250
  vibration                      5
       -0.1531536393        0.0000000000       -0.0884232944
        0.0839535330        0.0000000000       -0.0885655769
       -0.0347232735        0.0000000000        0.1169886805
       -0.1665231738        0.0321711048       -0.0961421993
       -0.1665231738       -0.0321711048       -0.0961421993
        0.2013326463       -0.0161242943       -0.0964337831
        0.2013326463        0.0161242943       -0.0964337831
        0.0171522173       -0.0161242943        0.2225760778
        0.0171522173        0.0161242943        0.2225760778
  vibration                      6
        0.0689495859       -0.0000000000        0.0398080618
        0.1589878290       -0.0000000000        0.0397875628
        0.1139509549       -0.0000000000        0.1177937172
        0.0747421764       -0.0026870399        0.0431524153
        0.0747421764        0.0026870399        0.0431524153
       -0.1880635949        0.0008743029        0.0420415282
       -0.1880635949       -0.0008743029        0.0420415282
       -0.0576227664        0.0008743026       -0.1838886144
       -0.0576227664       -0.0008743026       -0.1838886144
  vibration                      7
        0.0489924752       -0.0000000000        0.0282858188
        0.0292840111       -0.0000000000        0.0282848363
        0.0391373923       -0.0000000000        0.0112182793
       -0.0638697300        0.1189227237       -0.0368752061
       -0.0638697300       -0.1189227237       -0.0368752061
        0.0246886065       -0.0595250749       -0.0368004433
        0.0246886065        0.0595250749       -0.0368004433
       -0.0195258159       -0.0595250745        0.0397811822
       -0.0195258159        0.0595250745        0.0397811822
  vibration                      8
       -0.0486574467       -0.0000000000       -0.0280923898
       -0.0331304412       -0.0000000000       -0.0280929994
       -0.0408944719       -0.0000000000       -0.0146453041
        0.0738970046        0.1318409954        0.0426644554
        0.0738970046       -0.1318409954        0.0426644554
       -0.0329060510       -0.0660761360        0.0424967348
       -0.0329060510        0.0660761360        0.0424967348
        0.0203502263       -0.0660761365       -0.0497458435
        0.0203502263        0.0660761365       -0.0497458435
  vibration                      9
        0.0000000000       -0.0000000002       -0.0000000000
        0.0000000000        0.0000000000       -0.0000000000
        0.0000000000        0.0000000002       -0.0000000000
       -0.1565127662       -0.0009133547        0.2711994387
        0.1566092209        0.0009133556       -0.2711437505
        0.3131219860       -0.0009133552       -0.0000556882
       -0.3131219860        0.0009133552       -0.0000556882
       -0.1566092209       -0.0009133556       -0.2711437505
        0.1565127662        0.0009133547        0.2711994387
  vibration                     10
        0.0000000000       -0.0773808508       -0.0000000000
        0.0000000000       -0.0773808503       -0.0000000000
        0.0000000000       -0.0773808508       -0.0000000000
        0.1565840197        0.0383579384        0.0904038254
       -0.1562758405        0.0390229126       -0.0902258980
       -0.0000000000        0.0383579378       -0.1808076519
       -0.0000000000        0.0390229120        0.1804517972
       -0.1565840197        0.0383579384        0.0904038254
        0.1562758405        0.0390229126       -0.0902258980
  vibration                     11
       -0.0000000000        0.0717044108       -0.0000000000
       -0.0000000000        0.0717044109       -0.0000000000
       -0.0000000000        0.0717044108       -0.0000000000
        0.0512592952       -0.0358440321        0.0295945681
       -0.0512354406       -0.0358603788       -0.0295807956
        0.0000000000       -0.0358440320       -0.0591891355
        0.0000000000       -0.0358603787        0.0591615906
       -0.0512592952       -0.0358440321        0.0295945681
        0.0512354406       -0.0358603788       -0.0295807956
  vibration                     12
        0.0001249957       -0.0000000002        0.0000721663
        0.0001208763       -0.0347972720        0.0000599161
        0.0001123270        0.0347972724        0.0000747239
       -0.1572174125       -0.0009324276        0.2726799736
        0.1575390788        0.0009324282       -0.2724942595
       -0.1575473915        0.0742630415       -0.1699981645
        0.1572083072        0.0753308215        0.1698004348
        0.2256556436       -0.0753308219        0.0512461701
       -0.2259964247       -0.0742630418       -0.0514409608
  vibration                     13
       -0.0000259540       -0.0000000002       -0.0000149845
        0.0000532038        0.1240943207       -0.0001707800
       -0.0001212980       -0.1240943212        0.0001314659
       -0.0495390946       -0.0000730847        0.0858129645
        0.0495466599        0.0000730849       -0.0858085966
       -0.0494071071        0.0709027941        0.0866598826
        0.0496789603        0.0711319315       -0.0870308845
       -0.0505314768       -0.0711319313        0.0865386840
        0.0503461064       -0.0709027939       -0.0861177512
  vibration                     14
        0.0000037533       -0.0000000001        0.0000021670
        0.0000121605       -0.0382901132       -0.0000126659
       -0.0000048888        0.0382901129        0.0000168643
       -0.0110423086       -0.0000045203        0.0191351441
        0.0110503666        0.0000045203       -0.0191304918
       -0.0110607473        0.0808996915        0.0916663760
        0.0110317767        0.0809395166       -0.0916382326
       -0.0738451493       -0.0809395164        0.0553729158
        0.0738550369       -0.0808996913       -0.0554120768
