[Molden Format]
[ATOMS] AU
C        1    6       -1.4266765200        0.0000000000       -0.8236920700
C        2    6       -0.0000000000        0.0000000000        1.6473841500
C        3    6        1.4266765200       -0.0000000000       -0.8236920700
H        4    1       -2.3793666700        1.7221072400       -1.3737279900
H        5    1       -2.3793666700       -1.7221072400       -1.3737279900
H        6    1       -0.0000000000        1.7221072400        2.7474559700
H        7    1       -0.0000000000       -1.7221072400        2.7474559700
H        8    1        2.3793666700        1.7221072400       -1.3737279900
H        9    1        2.3793666700       -1.7221072400       -1.3737279900
[Molden Format]
 [FREQ]
     1215.7671098786
     1527.5681717000
     3156.9456505584
     1088.5895369505
      893.5505633694
     1059.3114809688
     1478.2681031832
     3146.3108727105
     1160.8723473440
      857.7344356332
     3248.6262548200
      740.8988954408
     1217.3399342194
     3228.7440333453
 [FR-COORD]
C           -1.4266765200        0.0000000000       -0.8236920700
C           -0.0000000000        0.0000000000        1.6473841500
C            1.4266765200       -0.0000000000       -0.8236920700
H           -2.3793666700        1.7221072400       -1.3737279900
H           -2.3793666700       -1.7221072400       -1.3737279900
H           -0.0000000000        1.7221072400        2.7474559700
H           -0.0000000000       -1.7221072400        2.7474559700
H            2.3793666700        1.7221072400       -1.3737279900
H            2.3793666700       -1.7221072400       -1.3737279900
 [FR-NORM-COORD]
  vibration                      1
       -0.0745865165        0.0000000000       -0.0430625454
        0.0000000000        0.0000000000        0.0861250908
        0.0745865165        0.0000000000       -0.0430625454
       -0.1380513318       -0.0338605101       -0.0797039735
       -0.1380513318        0.0338605101       -0.0797039735
       -0.0000000000       -0.0338605095        0.1594079471
       -0.0000000000        0.0338605095        0.1594079471
        0.1380513318       -0.0338605101       -0.0797039735
        0.1380513318        0.0338605101       -0.0797039735
  vibration                      2
        0.0269455699        0.0000000000        0.0155570320
        0.0000000000       -0.0000000000       -0.0311140641
       -0.0269455699        0.0000000000        0.0155570320
       -0.0731936541       -0.0731561486       -0.0422583758
       -0.0731936541        0.0731561486       -0.0422583758
       -0.0000000000       -0.0731561478        0.0845167517
       -0.0000000000        0.0731561478        0.0845167517
        0.0731936541       -0.0731561486       -0.0422583758
        0.0731936541        0.0731561486       -0.0422583758
  vibration                      3
        0.0103391671        0.0000000000        0.0059693211
       -0.0000000000       -0.0000000000       -0.0119386416
       -0.0103391671       -0.0000000000        0.0059693211
       -0.0514652541        0.0991059729       -0.0297134784
       -0.0514652541       -0.0991059729       -0.0297134784
        0.0000000000        0.0991059733        0.0594269565
        0.0000000000       -0.0991059733        0.0594269565
        0.0514652541        0.0991059729       -0.0297134784
        0.0514652541       -0.0991059729       -0.0297134784
  vibration                      4
       -0.0793503295       -0.0000000000        0.1379512515
        0.1591444533       -0.0000000000       -0.0002562247
       -0.0797941237       -0.0000000000       -0.1376950268
        0.0241664639       -0.0003486967       -0.0411403074
        0.0241664639        0.0003486967       -0.0411403074
       -0.0477117839       -0.0003486964       -0.0003586176
       -0.0477117839        0.0003486964       -0.0003586176
        0.0235453200       -0.0003486961        0.0414989250
        0.0235453200        0.0003486961        0.0414989250
  vibration                      5
       -0.1639183188       -0.0000000000       -0.0946382851
        0.0785093222        0.0000000000       -0.0947870237
       -0.0428333099       -0.0000000000        0.1153845791
       -0.1491086607        0.0137462831       -0.0860879254
       -0.1491086607       -0.0137462831       -0.0860879254
        0.1920172885       -0.0069184767       -0.0863671189
        0.1920172885        0.0069184767       -0.0863671189
        0.0212125254       -0.0069184767        0.2094754091
        0.0212125254        0.0069184767        0.2094754091
  vibration                      6
       -0.0668182112       -0.0000000000       -0.0385775120
       -0.1566476336       -0.0000000000       -0.0385979267
       -0.1117506021       -0.0000000000       -0.1163618666
       -0.0797276941       -0.0098331895       -0.0460308053
       -0.0797276941        0.0098331895       -0.0460308053
        0.1921135153        0.0044397699       -0.0471514527
        0.1921135153       -0.0044397699       -0.0471514527
        0.0552224023        0.0044397703        0.1899509106
        0.0552224023       -0.0044397703        0.1899509106
  vibration                      7
        0.0581567036       -0.0000000000        0.0335767884
        0.0421738276       -0.0000000000        0.0335761420
        0.0501647059       -0.0000000000        0.0197355351
       -0.0861610752       -0.1016280298       -0.0497451199
       -0.0861610752        0.1016280298       -0.0497451199
        0.0360509363        0.0505977572       -0.0498402790
        0.0360509363       -0.0505977572       -0.0498402790
       -0.0251374796        0.0505977578        0.0561411662
       -0.0251374796       -0.0505977578        0.0561411662
  vibration                      8
       -0.0354394448       -0.0000000000       -0.0204609731
       -0.0225036178        0.0000000000       -0.0204613963
       -0.0289718978       -0.0000000000       -0.0092580064
        0.0515593439       -0.1415057200        0.0297678013
        0.0515593439        0.1415057200        0.0297678013
       -0.0225962979        0.0707425404        0.0297827093
       -0.0225962979       -0.0707425404        0.0297827093
        0.0144944342        0.0707425401       -0.0344603227
        0.0144944342       -0.0707425401       -0.0344603227
  vibration                      9
        0.0000000000       -0.0000000002       -0.0000000000
        0.0000000000       -0.0000000000       -0.0000000000
        0.0000000000        0.0000000002       -0.0000000000
       -0.1565127662       -0.0009133547        0.2711994387
        0.1566092209        0.0009133556       -0.2711437505
        0.3131219860       -0.0009133552       -0.0000556882
       -0.3131219860        0.0009133552       -0.0000556882
       -0.1566092209       -0.0009133556       -0.2711437505
        0.1565127662        0.0009133547        0.2711994387
  vibration                     10
        0.0000000000       -0.0773808508       -0.0000000000
        0.0000000000       -0.0773808503       -0.0000000000
        0.0000000000       -0.0773808508       -0.0000000000
        0.1565840197        0.0383579384        0.0904038254
       -0.1562758405        0.0390229126       -0.0902258980
       -0.0000000000        0.0383579378       -0.1808076519
       -0.0000000000        0.0390229120        0.1804517972
       -0.1565840197        0.0383579384        0.0904038254
        0.1562758405        0.0390229126       -0.0902258980
  vibration                     11
       -0.0000000000        0.0717044108       -0.0000000000
       -0.0000000000        0.0717044109       -0.0000000000
       -0.0000000000        0.0717044108       -0.0000000000
        0.0512592952       -0.0358440321        0.0295945681
       -0.0512354406       -0.0358603788       -0.0295807956
        0.0000000000       -0.0358440320       -0.0591891355
        0.0000000000       -0.0358603787        0.0591615906
       -0.0512592952       -0.0358440321        0.0295945681
        0.0512354406       -0.0358603788       -0.0295807956
  vibration                     12
        0.0001249957       -0.0000000002        0.0000721663
        0.0001208763       -0.0347972681        0.0000599161
        0.0001123270        0.0347972685        0.0000747239
       -0.1572174148       -0.0009324276        0.2726799777
        0.1575390812        0.0009324282       -0.2724942636
       -0.1575473938        0.0742630425       -0.1699981651
        0.1572083096        0.0753308225        0.1698004354
        0.2256556453       -0.0753308229        0.0512461718
       -0.2259964264       -0.0742630429       -0.0514409625
  vibration                     13
       -0.0000259540       -0.0000000002       -0.0000149845
        0.0000532038        0.1240943192       -0.0001707800
       -0.0001212980       -0.1240943198        0.0001314659
       -0.0495390915       -0.0000730847        0.0858129591
        0.0495466568        0.0000730849       -0.0858085912
       -0.0494071040        0.0709027933        0.0866598859
        0.0496789572        0.0711319307       -0.0870308878
       -0.0505314812       -0.0711319304        0.0865386830
        0.0503461108       -0.0709027930       -0.0861177502
  vibration                     14
        0.0000037533       -0.0000000001        0.0000021670
        0.0000121605       -0.0382901138       -0.0000126659
       -0.0000048888        0.0382901135        0.0000168643
       -0.0110423088       -0.0000045203        0.0191351446
        0.0110503669        0.0000045203       -0.0191304923
       -0.0110607476        0.0808996913        0.0916663749
        0.0110317769        0.0809395163       -0.0916382314
       -0.0738451482       -0.0809395161        0.0553729154
        0.0738550358       -0.0808996911       -0.0554120765
