
 Primary working directories    : /tmp/795519.98.gen4.q
 Secondary working directories  : /tmp/795519.98.gen4.q
 Wavefunction directory         : /home/vulcan/mel64643/wfu/
 Main file repository           : /tmp/795519.98.gen4.q/

 ARCHNAME  : Linux/x86_64
 FC        : /opt/intel/compilers_and_libraries_2016.1.150/linux/bin/intel64/ifort
 FCVERSION : 16.0.1
 BLASLIB   : -mkl
 id        : ccgc

 Nodes     nprocs
 n027         1
 ga_uses_ma=false, calling ma_init with nominal heap.
 GA-space will be limited to   8.0 MW (determined by -G option)

 Using customized tuning parameters: mindgm=10; mindgv=16; mindgc=4; mindgr=1; noblas=0; mincuda=1000; minvec=7
 default implementation of scratch files=df  

 ***,Optimization of min3
 memory,1000,m
 gthresh,energy=1.0d-12,orbital=1.0d-10,oneint=1.0d-16,twoint=1.0d-16,optgrad=1.0d-6,compress=1.0d-13
 geomtyp=xyz
 
  bohr
  geometry = {
  6
  arbitrary comment
  C   -1.3755820917   -0.0223529678    0.0000004623
  O    1.3063560429    0.1247711726    0.0000002959
  H   -2.0847573925    1.9110490499   -0.0000799740
  H   -2.1067134066   -0.9784382387    1.6828217235
  H   -2.1067060624   -0.9785695095   -1.6827496377
  H    1.9436787503   -1.5865916265   -0.0000012799
 }
 
 basis=cc-pvdz
 {rhf;maxit,200}
 {ccsd(t);maxit,200}

 Variables initialized (661), CPU time= 0.00 sec
 Commands  initialized (458), CPU time= 0.01 sec, 486 directives.
 Default parameters read. Elapsed time= 0.06 sec

 Checking input...
 Passed
1


                                         ***  PROGRAM SYSTEM MOLPRO  ***
                         Copyright, University College Cardiff Consultants Limited, 2008

                                    Version 2010.1 linked May 16 2016 07:17:05


 **********************************************************************************************************************************
 LABEL *   Optimization of min3                                                          
 Linux-4.4.3/n027(x86_64) 64 bit mpp version                                             DATE: 24-Oct-22          TIME: 15:42:51  
 **********************************************************************************************************************************

 SHA1:             9e8077add272b0f3cad6f7df79ec5211205f459d
 **********************************************************************************************************************************

 THRESHOLDS:

 ZERO    =  1.00D-12  ONEINT  =  1.00D-16  TWOINT  =  1.00D-16  PREFAC  =  1.00D-14  LOCALI  =  1.00D-09  EORDER  =  1.00D-04
 ENERGY  =  1.00D-12  ETEST   =  0.00D+00  EDENS   =  0.00D+00  THRDEDEF=  1.00D-06  GRADIENT=  1.00D-02  STEP    =  1.00D-03
 ORBITAL =  1.00D-10  CIVEC   =  1.00D-05  COEFF   =  1.00D-04  PRINTCI =  5.00D-02  PUNCHCI =  9.90D+01  OPTGRAD =  1.00D-06
 OPTENERG=  1.00D-06  OPTSTEP =  3.00D-04  THRGRAD =  1.00D-10  COMPRESS=  1.00D-13  VARMIN  =  1.00D-07  VARMAX  =  1.00D-03
 THRDOUB =  0.00D+00  THRDIV  =  1.00D-05  THRRED  =  1.00D-07  THRPSP  =  1.00D+00  THRDC   =  1.00D-10  THRCS   =  1.00D-10
 THRNRM  =  1.00D-08  THREQ   =  0.00D+00  THRDE   =  1.00D+00  THRREF  =  1.00D-05  SPARFAC =  1.00D+00  THRDLP  =  1.00D-07
 THRDIA  =  1.00D-10  THRDLS  =  1.00D-07  THRGPS  =  0.00D+00  THRKEX  =  0.00D+00  THRDIS  =  2.00D-01  THRVAR  =  1.00D-10
 THRLOC  =  1.00D-06  THRGAP  =  1.00D-06  THRLOCT = -1.00D+00  THRGAPT = -1.00D+00  THRORB  =  1.00D-06  THRMLTP =  0.00D+00
 THRCPQCI=  1.00D-10  KEXTA   =  0.00D+00  THRCOARS=  0.00D+00  SYMTOL  =  1.00D-06  GRADTOL =  1.00D-06  THROVL  =  1.00D-08
 THRORTH =  1.00D-08  GRID    =  1.00D-06  GRIDMAX =  1.00D-03  DTMAX   =  0.00D+00

 SETTING GEOMTYP        =    XYZ
 ZUNIT=BOHR
 

 Variable memory set to 1000000000 words,  buffer space   230000 words

 SETTING BASIS          =    CC-PVDZ


 Recomputing integrals since basis changed


 Using spherical harmonics

 Library entry C      S cc-pVDZ              selected for orbital group  1
 Library entry C      P cc-pVDZ              selected for orbital group  1
 Library entry C      D cc-pVDZ              selected for orbital group  1
 Library entry O      S cc-pVDZ              selected for orbital group  2
 Library entry O      P cc-pVDZ              selected for orbital group  2
 Library entry O      D cc-pVDZ              selected for orbital group  2
 Library entry H      S cc-pVDZ              selected for orbital group  3
 Library entry H      P cc-pVDZ              selected for orbital group  3

1PROGRAM * SEWARD (Integral evaluation for generally contracted gaussian basis sets)     Author: Roland Lindh, 1990

 Geometry written to block  1 of record 700


 Point group  C1  



 ATOMIC COORDINATES

 NR  ATOM    CHARGE       X              Y              Z

   1  C       6.00   -1.375582092   -0.022352968    0.000000462
   2  O       8.00    1.306356043    0.124771173    0.000000296
   3  H       1.00   -2.084757392    1.911049050   -0.000079974
   4  H       1.00   -2.106713407   -0.978438239    1.682821724
   5  H       1.00   -2.106706062   -0.978569509   -1.682749638
   6  H       1.00    1.943678750   -1.586591626   -0.000001280

 Bond lengths in Bohr (Angstrom)

 1-2  2.685970527  1-3  2.059362274  1-4  2.068946457  1-5  2.068946648  2-6  1.826182593
     ( 1.421354387)     ( 1.089767581)     ( 1.094839312)     ( 1.094839413)     ( 0.966374208)

 Bond angles

  1-2-6  107.28571003   2-1-3  107.00317705   2-1-4  112.22007248   2-1-5  112.22005980

  3-1-4  108.19099276   3-1-5  108.19082531   4-1-5  108.84983958

 NUCLEAR CHARGE:                   18
 NUMBER OF PRIMITIVE AOS:          82
 NUMBER OF SYMMETRY AOS:           80
 NUMBER OF CONTRACTIONS:           48   (  48A   )
 NUMBER OF CORE ORBITALS:           2   (   2A   )
 NUMBER OF VALENCE ORBITALS:       12   (  12A   )


 NUCLEAR REPULSION ENERGY   40.25996489


 Eigenvalues of metric

         1 0.967E-02 0.177E-01 0.369E-01 0.374E-01 0.386E-01 0.474E-01 0.478E-01 0.521E-01


 Contracted 2-electron integrals neglected if value below      1.0D-16
 AO integral compression algorithm  1   Integral accuracy      1.0D-16

     6.554 MB (compressed) written to integral file ( 94.5%)

     Node minimum: 6.554 MB, node maximum: 6.554 MB


 NUMBER OF SORTED TWO-ELECTRON INTEGRALS:     692076.     BUFFER LENGTH:  32768
 NUMBER OF SEGMENTS:   1  SEGMENT LENGTH:     692076      RECORD LENGTH: 524288

 Memory used in sort:       1.25 MW

 SORT1 READ      832256. AND WROTE      682148. INTEGRALS IN      2 RECORDS. CPU TIME:     0.01 SEC, REAL TIME:     0.01 SEC
 SORT2 READ      682148. AND WROTE      692076. INTEGRALS IN     25 RECORDS. CPU TIME:     0.02 SEC, REAL TIME:     0.03 SEC

 FILE SIZES:   FILE 1:     8.0 MBYTE,  FILE 4:     8.4 MBYTE,   TOTAL:     16.4 MBYTE

 OPERATOR DM      FOR CENTER  0  COORDINATES:    0.000000    0.000000    0.000000


 **********************************************************************************************************************************
 DATASETS  * FILE   NREC   LENGTH (MB)   RECORD NAMES
              1      19        8.03       500      610      700      900      950      970     1000      129      960     1100   
                                          VAR    BASINP    GEOM    SYMINP    ZMAT    AOBASIS   BASIS     P2S    ABASIS      S 
                                         1400     1410     1200     1210     1080     1600     1650     1300     1700   
                                           T        V       H0       H01     AOSYM     SMH    MOLCAS    ERIS     OPER   

 PROGRAMS   *        TOTAL       INT
 CPU TIMES  *         0.35      0.29
 REAL TIME  *         0.53 SEC
 DISK USED  *        23.60 MB      
 GA USED    *         0.00 MB       (max)       0.00 MB       (current)
 **********************************************************************************************************************************

1PROGRAM * RHF-SCF (CLOSED SHELL)       Authors: W. Meyer, H.-J. Werner


 NUMBER OF ELECTRONS:       9+    9-    SPACE SYMMETRY=1    SPIN SYMMETRY: Singlet 
 CONVERGENCE THRESHOLDS:    1.00E-10 (Density)    1.00E-13 (Energy)
 MAX. NUMBER OF ITERATIONS:      200
 INTERPOLATION TYPE:            DIIS
 INTERPOLATION STEPS:              2 (START)      1 (STEP)
 LEVEL SHIFTS:                  0.00 (CLOSED)  0.00 (OPEN) 



 Orbital guess generated from atomic densities. Full valence occupancy:   14

 Molecular orbital dump at record        2100.2

 ITERATION    DDIFF          GRAD             ENERGY        2-EL.EN.            DIPOLE MOMENTS         DIIS
    1      0.000D+00      0.000D+00      -115.01382960    164.316010   -0.49183   -0.90899   -0.00000    0
    2      0.000D+00      0.110D-01      -115.04226415    162.084982   -0.31540   -0.53819   -0.00000    1
    3      0.205D-01      0.532D-02      -115.04834898    163.116566   -0.39957   -0.61440   -0.00000    2
    4      0.641D-02      0.113D-02      -115.04881796    162.959169   -0.38989   -0.60276   -0.00000    3
    5      0.204D-02      0.205D-03      -115.04883963    162.965710   -0.39294   -0.59834   -0.00000    4
    6      0.438D-03      0.363D-04      -115.04884047    162.965868   -0.39332   -0.59810   -0.00000    5
    7      0.946D-04      0.760D-05      -115.04884051    162.964663   -0.39348   -0.59793   -0.00000    6
    8      0.156D-04      0.246D-05      -115.04884051    162.965060   -0.39353   -0.59790   -0.00000    7
    9      0.523D-05      0.510D-06      -115.04884051    162.965018   -0.39354   -0.59790   -0.00000    6
   10      0.147D-05      0.944D-07      -115.04884051    162.965017   -0.39354   -0.59790   -0.00000    6
   11      0.249D-06      0.351D-07      -115.04884051    162.965023   -0.39354   -0.59790   -0.00000    6
   12      0.640D-07      0.151D-07      -115.04884051    162.965021   -0.39354   -0.59790   -0.00000    7
   13      0.284D-07      0.326D-08      -115.04884051    162.965021   -0.39354   -0.59790   -0.00000    7
   14      0.817D-08      0.677D-09      -115.04884051    162.965021   -0.39354   -0.59790   -0.00000    7
   15      0.171D-08      0.160D-09      -115.04884051    162.965021   -0.39354   -0.59790   -0.00000    7
   16      0.358D-09      0.484D-10      -115.04884051    162.965021   -0.39354   -0.59790   -0.00000    7
   17      0.930D-10      0.161D-10      -115.04884051    162.965021   -0.39354   -0.59790   -0.00000    0

 Final occupancy:   9

 !RHF STATE 1.1 Energy               -115.048840509951
 Nuclear energy                        40.25996489
 One-electron energy                 -236.79131600
 Two-electron energy                   81.48251060
 Virial quotient                       -1.00105867
 !RHF STATE 1.1 Dipole moment          -0.39354419    -0.59790010    -0.00000271
 Dipole moment /Debye                  -1.00022405    -1.51961095    -0.00000689

 Orbital energies:

         1.1          2.1          3.1          4.1          5.1          6.1          7.1          8.1          9.1         10.1
    -20.550627   -11.274821    -1.348240    -0.920495    -0.681207    -0.613640    -0.584526    -0.496591    -0.442999     0.184053

        11.1
      0.223687


 **********************************************************************************************************************************
 DATASETS  * FILE   NREC   LENGTH (MB)   RECORD NAMES
              1      19        8.03       500      610      700      900      950      970     1000      129      960     1100   
                                          VAR    BASINP    GEOM    SYMINP    ZMAT    AOBASIS   BASIS     P2S    ABASIS      S 
                                         1400     1410     1200     1210     1080     1600     1650     1300     1700   
                                           T        V       H0       H01     AOSYM     SMH    MOLCAS    ERIS     OPER   

              2       3        0.39       700     1000     2100   
                                         GEOM     BASIS     RHF  

 PROGRAMS   *        TOTAL       RHF       INT
 CPU TIMES  *         0.45      0.10      0.29
 REAL TIME  *         0.65 SEC
 DISK USED  *        23.60 MB      
 GA USED    *         0.00 MB       (max)       0.00 MB       (current)
 **********************************************************************************************************************************


1PROGRAM * CCSD (Closed-shell coupled cluster)     Authors: C. Hampel, H.-J. Werner, 1991, M. Deegan, P.J. Knowles, 1992


 Convergence thresholds:  THRVAR = 1.00D-08  THRDEN = 1.00D-12

 CCSD(T)     terms to be evaluated (factor= 1.000)


 Number of core orbitals:           2 (   2 )
 Number of closed-shell orbitals:   7 (   7 )
 Number of external orbitals:      39 (  39 )

 Molecular orbitals read from record     2100.2  Type=RHF/CANONICAL (state 1.1)

 Number of N-1 electron functions:               7
 Number of N-2 electron functions:              28
 Number of singly external CSFs:               273
 Number of doubly external CSFs:             37401
 Total number of CSFs:                       37675

 Length of J-op  integral file:               0.00 MB
 Length of K-op  integral file:               0.19 MB
 Length of 3-ext integral record:             0.00 MB

 Memory could be reduced to 0.96 Mwords without degradation in triples

 Integral transformation finished. Total CPU:   0.02 sec, npass=  1  Memory used:   0.66 MW

 Reference energy:                   -115.04884051

 MP2 singlet pair energy:              -0.21887753
 MP2 triplet pair energy:              -0.11992540
 MP2 correlation energy:               -0.33880294
 MP2 total energy:                   -115.38764345

 SCS-MP2 correlation energy:           -0.33727329   (PS=  1.200000  PT=  0.333333)
 SCS-MP2 total energy:               -115.38611380

 ITER.      SQ.NORM     CORR.ENERGY   TOTAL ENERGY   ENERGY CHANGE        DEN1      VAR(S)    VAR(P)  DIIS     TIME
   1      1.10758076    -0.36158401  -115.41042452    -0.02278107    -0.01406498  0.92D-03  0.18D-02  1  1     0.06
   2      1.11615415    -0.36354041  -115.41238092    -0.00195640    -0.00928275  0.20D-04  0.16D-03  2  2     0.11
   3      1.11805967    -0.36366909  -115.41250960    -0.00012868    -0.00121736  0.96D-05  0.87D-05  3  3     0.16
   4      1.11858200    -0.36366799  -115.41250850     0.00000109    -0.00025768  0.35D-06  0.68D-06  4  4     0.21
   5      1.11868186    -0.36366844  -115.41250895    -0.00000045    -0.00003655  0.10D-06  0.50D-07  5  5     0.26
   6      1.11870144    -0.36366706  -115.41250757     0.00000138    -0.00000444  0.17D-07  0.42D-08  6  6     0.31
   7      1.11870637    -0.36366663  -115.41250714     0.00000042    -0.00000036  0.21D-08  0.75D-09  6  1     0.36
   8      1.11870768    -0.36366674  -115.41250725    -0.00000010     0.00000077  0.26D-09  0.76D-10  6  3     0.41
   9      1.11870877    -0.36366661  -115.41250712     0.00000013    -0.00000039  0.13D-10  0.11D-10  6  2     0.46
  10      1.11870883    -0.36366661  -115.41250712     0.00000000     0.00000000  0.14D-11  0.13D-11  6  4     0.51
  11      1.11870878    -0.36366661  -115.41250712     0.00000000     0.00000003  0.35D-12  0.88D-13  6  5     0.56
  12      1.11870873    -0.36366661  -115.41250712    -0.00000000     0.00000003  0.34D-13  0.13D-13  6  6     0.61
  13      1.11870872    -0.36366661  -115.41250712    -0.00000000     0.00000001  0.40D-14  0.16D-14  6  3     0.66
  14      1.11870871    -0.36366661  -115.41250712    -0.00000000     0.00000000  0.29D-15  0.15D-15  6  1     0.71
  15      1.11870871    -0.36366661  -115.41250712     0.00000000    -0.00000000  0.37D-16  0.33D-16  6  2     0.76
  16      1.11870871    -0.36366661  -115.41250712     0.00000000    -0.00000000  0.33D-17  0.17D-17  6  5     0.81
  17      1.11870871    -0.36366661  -115.41250712    -0.00000000     0.00000000  0.13D-18  0.13D-18  6  4     0.86
  18      1.11870871    -0.36366661  -115.41250712     0.00000000    -0.00000000  0.28D-19  0.13D-19  6  3     0.91
  19      1.11870871    -0.36366661  -115.41250712     0.00000000    -0.00000000  0.27D-20  0.11D-20  6  6     0.96
  20      1.11870871    -0.36366661  -115.41250712     0.00000000    -0.00000000  0.43D-21  0.17D-21  6  1     1.01

 Norm of t1 vector:      0.04185668      S-energy:    -0.00000000      T1 diagnostic:  0.00791017
                                                                       D1 diagnostic:  0.01760324


 Total CPU time for triples:      0.25 sec


 RESULTS
 =======

  Reference energy                   -115.048840509951
  CCSD singlet pair energy             -0.254902115178
  CCSD triplet pair energy             -0.108764497259
  CCSD correlation energy              -0.363666612438

  Triples (T) contribution             -0.007765464195
  Total correlation energy             -0.371432076633

  CCSD total energy                  -115.412507122388
  CCSD[T] energy                     -115.420564328797
  CCSD-T energy                      -115.420121708312
 !CCSD(T) total energy               -115.420272586584

 Timing summary (sec):

 STEP                 CPU(USER)    SYS     CPU(TOT)    WALL
 Transformation          0.02      0.00      0.02      0.03
 CCSD iterations         0.99      0.06      1.05      1.08
 Triples                 0.25      0.01      0.26      0.25

 Program statistics:

 Available memory in ccsd:               999999704
 Min. memory needed in ccsd:                136801
 Max. memory used in ccsd:                  163198
 Max. memory used in cckext:                182024 (20 integral passes)



 **********************************************************************************************************************************
 DATASETS  * FILE   NREC   LENGTH (MB)   RECORD NAMES
              1      20       10.57       500      610      700      900      950      970     1000      129      960     1100   
                                          VAR    BASINP    GEOM    SYMINP    ZMAT    AOBASIS   BASIS     P2S    ABASIS      S 
                                         1400     1410     1200     1210     1080     1600     1650     1300     1700     1380   
                                           T        V       H0       H01     AOSYM     SMH    MOLCAS    ERIS     OPER     JKOP   

              2       3        0.39       700     1000     2100   
                                         GEOM     BASIS     RHF  

 PROGRAMS   *        TOTAL   CCSD(T)       RHF       INT
 CPU TIMES  *         1.73      1.28      0.10      0.29
 REAL TIME  *         2.04 SEC
 DISK USED  *        25.03 MB      
 GA USED    *         0.00 MB       (max)       0.00 MB       (current)
 **********************************************************************************************************************************

        CCSD(T)         RHF-SCF 
   -115.42027259   -115.04884051
 **********************************************************************************************************************************
 Variable memory released
