
    -----------------------------------------------------------------------
          Psi4: An Open-Source Ab Initio Electronic Structure Package
                               Psi4 1.4a2.dev629 

                         Git: Rev {master} 2938fc2 dirty


    D. G. A. Smith, L. A. Burns, A. C. Simmonett, R. M. Parrish,
    M. C. Schieber, R. Galvelis, P. Kraus, H. Kruse, R. Di Remigio,
    A. Alenaizan, A. M. James, S. Lehtola, J. P. Misiewicz, M. Scheurer,
    R. A. Shaw, J. B. Schriber, Y. Xie, Z. L. Glick, D. A. Sirianni,
    J. S. O'Brien, J. M. Waldrop, A. Kumar, E. G. Hohenstein,
    B. P. Pritchard, B. R. Brooks, H. F. Schaefer III, A. Yu. Sokolov,
    K. Patkowski, A. E. DePrince III, U. Bozkaya, R. A. King,
    F. A. Evangelista, J. M. Turney, T. D. Crawford, C. D. Sherrill,
    J. Chem. Phys. 152(18) 184108 (2020). https://doi.org/10.1063/5.0006002

                            Additional Code Authors
    E. T. Seidl, C. L. Janssen, E. F. Valeev, M. L. Leininger,
    J. F. Gonthier, R. M. Richard, H. R. McAlexander, M. Saitow, X. Wang,
    P. Verma, and M. H. Lechner

             Previous Authors, Complete List of Code Contributors,
                       and Citations for Specific Modules
    https://github.com/psi4/psi4/blob/master/codemeta.json
    https://github.com/psi4/psi4/graphs/contributors
    http://psicode.org/psi4manual/master/introduction.html#citing-psifour

    -----------------------------------------------------------------------


    Psi4 started on: Wednesday, 21 September 2022 04:07PM

    Process ID: 111253
    Host:       n073
    PSIDATADIR: /opt/psi/4/master/share/psi4
    Memory:     500.0 MiB
    Threads:    1
    
  ==> Input File <==

--------------------------------------------------------------------------
# o-Benzyne preliminary computations

memory 14 gb

molecule {
  0 1
  units bohr
 C   -1.3724181757   -0.0234599587    0.0000070847
 O    1.3057048530    0.1204355066   -0.0000019353
 H   -2.0787005976    1.9093241907   -0.0000821850
 H   -2.1097590635   -0.9794179090    1.6817302324
 H   -2.1097515703   -0.9795474023   -1.6816607887
 H    1.9412003941   -1.5774665473   -0.0000008182
  no_reorient
  no_com
}

set {
  basis 6-31g*
  reference rhf
  e_convergence 10 
  d_convergence 10
  r_convergence 8
  maxiter 300
  dft_spherical_points 1202
  dft_radial_points 99
  freeze_core True
}


#gradient('ccsd(t)')
gradient('b3lyp')
--------------------------------------------------------------------------

  Memory set to  13.039 GiB by Python driver.

Scratch directory: /tmp/
gradient() will perform analytic gradient computation.

*** tstart() called on n073
*** at Wed Sep 21 16:07:37 2022

   => Loading Basis Set <=

    Name: 6-31G*
    Role: ORBITAL
    Keyword: BASIS
    atoms 1   entry C          line   111 file /opt/psi/4/master/share/psi4/basis/6-31gs.gbs 
    atoms 2   entry O          line   145 file /opt/psi/4/master/share/psi4/basis/6-31gs.gbs 
    atoms 3-6 entry H          line    44 file /opt/psi/4/master/share/psi4/basis/6-31gs.gbs 


         ---------------------------------------------------------
                                   SCF
               by Justin Turney, Rob Parrish, Andy Simmonett
                          and Daniel G. A. Smith
                              RKS Reference
                        1 Threads,  13351 MiB Core
         ---------------------------------------------------------

  ==> Geometry <==

    Molecular point group: c1
    Full point group: C1

    Geometry (in Bohr), charge = 0, multiplicity = 1:

       Center              X                  Y                   Z               Mass       
    ------------   -----------------  -----------------  -----------------  -----------------
         C           -1.372418175700    -0.023459958700     0.000007084700    12.000000000000
         O            1.305704853000     0.120435506600    -0.000001935300    15.994914619570
         H           -2.078700597600     1.909324190700    -0.000082185000     1.007825032230
         H           -2.109759063500    -0.979417909000     1.681730232400     1.007825032230
         H           -2.109751570300    -0.979547402300    -1.681660788700     1.007825032230
         H            1.941200394100    -1.577466547300    -0.000000818200     1.007825032230

  Running in c1 symmetry.

  Rotational constants: A =      4.28322  B =      0.82810  C =      0.79893 [cm^-1]
  Rotational constants: A = 128407.79148  B =  24825.74146  C =  23951.37540 [MHz]
  Nuclear repulsion =   40.324354281263552

  Charge       = 0
  Multiplicity = 1
  Electrons    = 18
  Nalpha       = 9
  Nbeta        = 9

  ==> Algorithm <==

  SCF Algorithm Type is DF.
  DIIS enabled.
  MOM disabled.
  Fractional occupation disabled.
  Guess Type is SAD.
  Energy threshold   = 1.00e-10
  Density threshold  = 1.00e-10
  Integral threshold = 0.00e+00

  ==> Primary Basis <==

  Basis Set: 6-31G*
    Blend: 6-31G*
    Number of shells: 20
    Number of basis function: 38
    Number of Cartesian functions: 38
    Spherical Harmonics?: false
    Max angular momentum: 2

  ==> DFT Potential <==

   => Composite Functional: B3LYP <= 

    B3LYP Hyb-GGA Exchange-Correlation Functional

    P. J. Stephens, F. J. Devlin, C. F. Chabalowski, and M. J. Frisch, J. Phys. Chem. 98, 11623 (1994)

    Deriv               =              1
    GGA                 =           TRUE
    Meta                =          FALSE

    Exchange Hybrid     =           TRUE
    MP2 Hybrid          =          FALSE

   => Exchange Functionals <=

    0.0800   Slater exchange
    0.7200         Becke 88

   => Exact (HF) Exchange <=

    0.2000               HF 

   => Correlation Functionals <=

    0.1900   Vosko, Wilk & Nusair (VWN5_RPA)
    0.8100   Lee, Yang & Parr

   => Molecular Quadrature <=

    Radial Scheme          =       TREUTLER
    Pruning Scheme         =           NONE
    Nuclear Scheme         =       TREUTLER

    BS radius alpha        =              1
    Pruning alpha          =              1
    Radial Points          =             99
    Spherical Points       =           1202
    Total Points           =         678834
    Total Blocks           =           4726
    Max Points             =            256
    Max Functions          =             38
    Weights Tolerance      =       1.00E-15

   => Loading Basis Set <=

    Name: (6-31G* AUX)
    Role: JKFIT
    Keyword: DF_BASIS_SCF
    atoms 1   entry C          line   121 file /opt/psi/4/master/share/psi4/basis/cc-pvdz-jkfit.gbs 
    atoms 2   entry O          line   221 file /opt/psi/4/master/share/psi4/basis/cc-pvdz-jkfit.gbs 
    atoms 3-6 entry H          line    51 file /opt/psi/4/master/share/psi4/basis/cc-pvdz-jkfit.gbs 

  ==> Integral Setup <==

  DFHelper Memory: AOs need 0.004 GiB; user supplied 9.070 GiB. Using in-core AOs.

  ==> MemDFJK: Density-Fitted J/K Matrices <==

    J tasked:                   Yes
    K tasked:                   Yes
    wK tasked:                   No
    OpenMP threads:               1
    Memory [MiB]:              9287
    Algorithm:                 Core
    Schwarz Cutoff:           1E-12
    Mask sparsity (%):       0.0000
    Fitting Condition:        1E-10

   => Auxiliary Basis Set <=

  Basis Set: (6-31G* AUX)
    Blend: CC-PVDZ-JKFIT
    Number of shells: 84
    Number of basis function: 262
    Number of Cartesian functions: 262
    Spherical Harmonics?: false
    Max angular momentum: 3

  Cached 100.0% of DFT collocation blocks in 0.709 [GiB].

  Minimum eigenvalue in the overlap matrix is 9.7372288695E-03.
  Reciprocal condition number of the overlap matrix is 1.6227250667E-03.
    Using symmetric orthogonalization.

  ==> Pre-Iterations <==

  SCF Guess: Superposition of Atomic Densities via on-the-fly atomic UHF (no occupation information).

   -------------------------
    Irrep   Nso     Nmo    
   -------------------------
     A         38      38 
   -------------------------
    Total      38      38
   -------------------------

  ==> Iterations <==

                           Total Energy        Delta E     RMS |[F,P]|

   @DF-RKS iter SAD:  -115.27780341237849   -1.15278e+02   0.00000e+00 
   @DF-RKS iter   1:  -115.54936151801120   -2.71558e-01   1.60957e-02 DIIS
   @DF-RKS iter   2:  -115.45006568682844    9.92958e-02   2.10827e-02 DIIS
   @DF-RKS iter   3:  -115.71158551414544   -2.61520e-01   2.13507e-03 DIIS
   @DF-RKS iter   4:  -115.71402376460421   -2.43825e-03   6.74059e-04 DIIS
   @DF-RKS iter   5:  -115.71429121076721   -2.67446e-04   8.12913e-05 DIIS
   @DF-RKS iter   6:  -115.71429509959528   -3.88883e-06   8.53906e-06 DIIS
   @DF-RKS iter   7:  -115.71429514592387   -4.63286e-08   7.67217e-07 DIIS
   @DF-RKS iter   8:  -115.71429514633219   -4.08320e-10   1.06418e-07 DIIS
   @DF-RKS iter   9:  -115.71429514633996   -7.77334e-12   2.04511e-08 DIIS
   @DF-RKS iter  10:  -115.71429514634036   -3.97904e-13   1.33569e-09 DIIS
   @DF-RKS iter  11:  -115.71429514634035    1.42109e-14   1.18953e-10 DIIS
   @DF-RKS iter  12:  -115.71429514634031    4.26326e-14   2.22440e-11 DIIS
  Energy and wave function converged.


  ==> Post-Iterations <==

    Orbital Energies [Eh]
    ---------------------

    Doubly Occupied:                                                      

       1A    -19.138605     2A    -10.223131     3A     -1.011869  
       4A     -0.680079     5A     -0.502987     6A     -0.435433  
       7A     -0.420000     8A     -0.330616     9A     -0.264456  

    Virtual:                                                              

      10A      0.077258    11A      0.132467    12A      0.168513  
      13A      0.176464    14A      0.206001    15A      0.534148  
      16A      0.566440    17A      0.575635    18A      0.791545  
      19A      0.852996    20A      0.872694    21A      0.906792  
      22A      0.956051    23A      0.976834    24A      1.025092  
      25A      1.115693    26A      1.462278    27A      1.502056  
      28A      1.586044    29A      1.743894    30A      2.042920  
      31A      2.114785    32A      2.136584    33A      2.352788  
      34A      2.403046    35A      2.457272    36A      2.794431  
      37A      3.700038    38A      4.216541  

    Final Occupation by Irrep:
              A 
    DOCC [     9 ]

  @DF-RKS Final Energy:  -115.71429514634031

   => Energetics <=

    Nuclear Repulsion Energy =             40.3243542812635525
    One-Electron Energy =                -237.0450404520210839
    Two-Electron Energy =                  93.5588782677192654
    DFT Exchange-Correlation Energy =     -12.5524872433020533
    Empirical Dispersion Energy =           0.0000000000000000
    VV10 Nonlocal Energy =                  0.0000000000000000
    Total Energy =                       -115.7142951463403051

Computation Completed


Properties will be evaluated at   0.000000,   0.000000,   0.000000 [a0]

Properties computed using the SCF density matrix

  Nuclear Dipole Moment: [e a0]
     X:    -2.1459      Y:    -0.8044      Z:     0.0000

  Electronic Dipole Moment: [e a0]
     X:     1.8158      Y:     0.2207      Z:    -0.0000

  Dipole Moment: [e a0]
     X:    -0.3301      Y:    -0.5837      Z:     0.0000     Total:     0.6705

  Dipole Moment: [D]
     X:    -0.8389      Y:    -1.4835      Z:     0.0000     Total:     1.7043


*** tstop() called on n073 at Wed Sep 21 16:07:54 2022
Module time:
	user time   =      16.73 seconds =       0.28 minutes
	system time =       0.28 seconds =       0.00 minutes
	total time  =         17 seconds =       0.28 minutes
Total time:
	user time   =      16.73 seconds =       0.28 minutes
	system time =       0.28 seconds =       0.00 minutes
	total time  =         17 seconds =       0.28 minutes

*** tstart() called on n073
*** at Wed Sep 21 16:07:54 2022


         ------------------------------------------------------------
                                   SCF GRAD                          
                          Rob Parrish, Justin Turney,                
                       Andy Simmonett, and Alex Sokolov              
         ------------------------------------------------------------

  ==> Geometry <==

    Molecular point group: c1
    Full point group: C1

    Geometry (in Bohr), charge = 0, multiplicity = 1:

       Center              X                  Y                   Z               Mass       
    ------------   -----------------  -----------------  -----------------  -----------------
         C           -1.372418175700    -0.023459958700     0.000007084700    12.000000000000
         O            1.305704853000     0.120435506600    -0.000001935300    15.994914619570
         H           -2.078700597600     1.909324190700    -0.000082185000     1.007825032230
         H           -2.109759063500    -0.979417909000     1.681730232400     1.007825032230
         H           -2.109751570300    -0.979547402300    -1.681660788700     1.007825032230
         H            1.941200394100    -1.577466547300    -0.000000818200     1.007825032230

  Nuclear repulsion =   40.324354281263552

  ==> Basis Set <==

  Basis Set: 6-31G*
    Blend: 6-31G*
    Number of shells: 20
    Number of basis function: 38
    Number of Cartesian functions: 38
    Spherical Harmonics?: false
    Max angular momentum: 2

  ==> DFJKGrad: Density-Fitted SCF Gradients <==

    Gradient:                    1
    J tasked:                  Yes
    K tasked:                  Yes
    wK tasked:                  No
    OpenMP threads:              1
    Integrals threads:           1
    Memory [MiB]:            10013
    Schwarz Cutoff:          0E+00
    Fitting Condition:       1E-10

   => Auxiliary Basis Set <=

  Basis Set: (6-31G* AUX)
    Blend: CC-PVDZ-JKFIT
    Number of shells: 84
    Number of basis function: 262
    Number of Cartesian functions: 262
    Spherical Harmonics?: false
    Max angular momentum: 3

  ==> DFT Potential <==

   => Composite Functional: B3LYP <= 

    B3LYP Hyb-GGA Exchange-Correlation Functional

    P. J. Stephens, F. J. Devlin, C. F. Chabalowski, and M. J. Frisch, J. Phys. Chem. 98, 11623 (1994)

    Deriv               =              1
    GGA                 =           TRUE
    Meta                =          FALSE

    Exchange Hybrid     =           TRUE
    MP2 Hybrid          =          FALSE

   => Exchange Functionals <=

    0.0800   Slater exchange
    0.7200         Becke 88

   => Exact (HF) Exchange <=

    0.2000               HF 

   => Correlation Functionals <=

    0.1900   Vosko, Wilk & Nusair (VWN5_RPA)
    0.8100   Lee, Yang & Parr

   => Molecular Quadrature <=

    Radial Scheme          =       TREUTLER
    Pruning Scheme         =           NONE
    Nuclear Scheme         =       TREUTLER

    BS radius alpha        =              1
    Pruning alpha          =              1
    Radial Points          =             99
    Spherical Points       =           1202
    Total Points           =         678834
    Total Blocks           =           4726
    Max Points             =            256
    Max Functions          =             38
    Weights Tolerance      =       1.00E-15


  -Total Gradient:
     Atom            X                  Y                   Z
    ------   -----------------  -----------------  -----------------
       1       -0.003700127732     0.000102350887     0.000004809387
       2        0.003067936977    -0.008913268401    -0.000000304298
       3        0.000608052495    -0.002890151953    -0.000000605863
       4        0.001824090627     0.001627723861    -0.002702473653
       5        0.001823179842     0.001626570972     0.002698803790
       6       -0.003623218239     0.008446840575    -0.000000229365


*** tstop() called on n073 at Wed Sep 21 16:07:57 2022
Module time:
	user time   =       2.79 seconds =       0.05 minutes
	system time =       0.01 seconds =       0.00 minutes
	total time  =          3 seconds =       0.05 minutes
Total time:
	user time   =      19.52 seconds =       0.33 minutes
	system time =       0.29 seconds =       0.00 minutes
	total time  =         20 seconds =       0.33 minutes

    Psi4 stopped on: Wednesday, 21 September 2022 04:07PM
    Psi4 wall time for execution: 0:00:19.86

*** Psi4 exiting successfully. Buy a developer a beer!
