
 Primary working directories    : /tmp/333988.7.gen4.q
 Secondary working directories  : /tmp/333988.7.gen4.q
 Wavefunction directory         : /home/vulcan/mel64643/wfu/
 Main file repository           : /tmp/333988.7.gen4.q/

 ARCHNAME  : Linux/x86_64
 FC        : /opt/intel/compilers_and_libraries_2016.1.150/linux/bin/intel64/ifort
 FCVERSION : 16.0.1
 BLASLIB   : -mkl
 id        : ccgc

 Nodes     nprocs
 n046         3
 Number of processes for MPI-2 version of Molpro:   nprocs(total)=    4   nprocs(compute)=    3   nprocs(helper)=    1
 ga_uses_ma=false, calling ma_init with nominal heap.
 GA-space will be limited to   8.0 MW (determined by -G option)

 Using customized tuning parameters: mindgm=10; mindgv=16; mindgc=4; mindgr=1; noblas=0; mincuda=1000; minvec=7
 default implementation of scratch files=sf  

 ***,Optimization of min3
 memory,1000,m
 gthresh,energy=1.0d-10,orbital=1.0d-10,oneint=1.0d-16,twoint=1.0d-16,optgrad=1.0d-6,compress=1.0d-13
 geomtyp=xyz
 
  bohr
  geometry = {
  12
  arbitrary comment
  C         -3.1008210498          1.5864541578          0.0192541408
  C         -0.8638971933         -0.0714798120         -0.6569918413
  C         -1.1184966024         -2.7802673980          0.2454553327
  O          1.3107392733          1.1039355798          0.5899489092
  O          3.4497183385          0.1215164153         -0.2507362316
  H         -4.8064761828          0.8423505322         -0.8689732560
  H         -2.8095001171          3.5208934229         -0.6281711049
  H         -3.3854392207          1.6054952789          2.0627542052
  H         -0.4594649556         -0.0046244976         -2.6780707140
  H         -2.7114832117         -3.6862640794         -0.7024201476
  H         -1.4511136362         -2.8237225900          2.2819753050
  H          0.5965287755         -3.8373129049         -0.1798067022
 }
 
 basis=cc-pvtz
 {rhf;maxit,200}
 {uccsd(t);maxit,200}

 Variables initialized (661), CPU time= 0.00 sec
 Commands  initialized (458), CPU time= 0.00 sec, 486 directives.
 Default parameters read. Elapsed time= 0.05 sec

 Checking input...
 Passed
1


                                         ***  PROGRAM SYSTEM MOLPRO  ***
                         Copyright, University College Cardiff Consultants Limited, 2008

                                    Version 2010.1 linked May 16 2016 07:17:05


 **********************************************************************************************************************************
 LABEL *   Optimization of min3                                                          
 Linux-4.4.3/n046(x86_64) 64 bit mpp version                                             DATE: 15-Jul-20          TIME: 03:18:08  
 **********************************************************************************************************************************

 SHA1:             9e8077add272b0f3cad6f7df79ec5211205f459d
 **********************************************************************************************************************************

 THRESHOLDS:

 ZERO    =  1.00D-12  ONEINT  =  1.00D-16  TWOINT  =  1.00D-16  PREFAC  =  1.00D-14  LOCALI  =  1.00D-09  EORDER  =  1.00D-04
 ENERGY  =  1.00D-10  ETEST   =  0.00D+00  EDENS   =  0.00D+00  THRDEDEF=  1.00D-06  GRADIENT=  1.00D-02  STEP    =  1.00D-03
 ORBITAL =  1.00D-10  CIVEC   =  1.00D-05  COEFF   =  1.00D-04  PRINTCI =  5.00D-02  PUNCHCI =  9.90D+01  OPTGRAD =  1.00D-06
 OPTENERG=  1.00D-06  OPTSTEP =  3.00D-04  THRGRAD =  1.00D-10  COMPRESS=  1.00D-13  VARMIN  =  1.00D-07  VARMAX  =  1.00D-03
 THRDOUB =  0.00D+00  THRDIV  =  1.00D-05  THRRED  =  1.00D-07  THRPSP  =  1.00D+00  THRDC   =  1.00D-10  THRCS   =  1.00D-10
 THRNRM  =  1.00D-08  THREQ   =  0.00D+00  THRDE   =  1.00D+00  THRREF  =  1.00D-05  SPARFAC =  1.00D+00  THRDLP  =  1.00D-07
 THRDIA  =  1.00D-10  THRDLS  =  1.00D-07  THRGPS  =  0.00D+00  THRKEX  =  0.00D+00  THRDIS  =  2.00D-01  THRVAR  =  1.00D-10
 THRLOC  =  1.00D-06  THRGAP  =  1.00D-06  THRLOCT = -1.00D+00  THRGAPT = -1.00D+00  THRORB  =  1.00D-06  THRMLTP =  0.00D+00
 THRCPQCI=  1.00D-10  KEXTA   =  0.00D+00  THRCOARS=  0.00D+00  SYMTOL  =  1.00D-06  GRADTOL =  1.00D-06  THROVL  =  1.00D-08
 THRORTH =  1.00D-08  GRID    =  1.00D-06  GRIDMAX =  1.00D-03  DTMAX   =  0.00D+00

 SETTING GEOMTYP        =    XYZ
 ZUNIT=BOHR
 

 Variable memory set to 1000000000 words,  buffer space   230000 words

 SETTING BASIS          =    CC-PVTZ


 Recomputing integrals since basis changed


 Using spherical harmonics

 Library entry C      S cc-pVTZ              selected for orbital group  1
 Library entry C      P cc-pVTZ              selected for orbital group  1
 Library entry C      D cc-pVTZ              selected for orbital group  1
 Library entry C      F cc-pVTZ              selected for orbital group  1
 Library entry O      S cc-pVTZ              selected for orbital group  2
 Library entry O      P cc-pVTZ              selected for orbital group  2
 Library entry O      D cc-pVTZ              selected for orbital group  2
 Library entry O      F cc-pVTZ              selected for orbital group  2
 Library entry H      S cc-pVTZ              selected for orbital group  3
 Library entry H      P cc-pVTZ              selected for orbital group  3
 Library entry H      D cc-pVTZ              selected for orbital group  3

1PROGRAM * SEWARD (Integral evaluation for generally contracted gaussian basis sets)     Author: Roland Lindh, 1990

 Geometry written to block  1 of record 700


 Point group  C1  



 ATOMIC COORDINATES

 NR  ATOM    CHARGE       X              Y              Z

   1  C       6.00   -3.100821050    1.586454158    0.019254141
   2  C       6.00   -0.863897193   -0.071479812   -0.656991841
   3  C       6.00   -1.118496602   -2.780267398    0.245455333
   4  O       8.00    1.310739273    1.103935580    0.589948909
   5  O       8.00    3.449718338    0.121516415   -0.250736232
   6  H       1.00   -4.806476183    0.842350532   -0.868973256
   7  H       1.00   -2.809500117    3.520893423   -0.628171105
   8  H       1.00   -3.385439221    1.605495279    2.062754205
   9  H       1.00   -0.459464956   -0.004624498   -2.678070714
  10  H       1.00   -2.711483212   -3.686264079   -0.702420148
  11  H       1.00   -1.451113636   -2.823722590    2.281975305
  12  H       1.00    0.596528776   -3.837312905   -0.179806702

 Bond lengths in Bohr (Angstrom)

 1-2  2.865289168  1-6  2.062012984  1-7  2.060602486  1-8  2.063313495  2-3  2.866489481
     ( 1.516245725)     ( 1.091170276)     ( 1.090423872)     ( 1.091858477)     ( 1.516880903)

  2- 4  2.768665083   2- 9  2.062230559   3-10  2.063226660   3-11  2.063961250   3-12  2.059005840
       ( 1.465114461)       ( 1.091285411)       ( 1.091812525)       ( 1.092201254)       ( 1.089578964)

 4-5  2.499426007
     ( 1.322639278)

 Bond angles

  1-2-3  113.77520823   1-2-4  105.14419590   1-2-9  111.44763615   2-1-6  109.59124534

  2- 1- 7  111.01878611   2- 1- 8  110.29035698   2- 3-10  109.80976885   2- 3-11  110.17266650

  2- 3-12  110.25069185   2- 4- 5  110.72119799   3- 2- 4  109.21768323   3- 2- 9  110.89143502

  4-2-9  105.87793448   6-1-7  108.68539979   6-1-8  108.41202187   7-1-8  108.78473777

 10- 3-11  108.64088915  10- 3-12  108.83119753  11- 3-12  109.09980818

 NUCLEAR CHARGE:                   41
 NUMBER OF PRIMITIVE AOS:         354
 NUMBER OF SYMMETRY AOS:          322
 NUMBER OF CONTRACTIONS:          248   ( 248A   )
 NUMBER OF CORE ORBITALS:           5   (   5A   )
 NUMBER OF VALENCE ORBITALS:       27   (  27A   )


 NUCLEAR REPULSION ENERGY  186.62669434


 Eigenvalues of metric

         1 0.807E-03 0.957E-03 0.110E-02 0.124E-02 0.136E-02 0.150E-02 0.160E-02 0.164E-02


 Contracted 2-electron integrals neglected if value below      1.0D-16
 AO integral compression algorithm  1   Integral accuracy      1.0D-16

     3371.434 MB (compressed) written to integral file ( 82.1%)

     Node minimum: 816.841 MB, node maximum: 1290.797 MB


 NUMBER OF SORTED TWO-ELECTRON INTEGRALS:  158903334.     BUFFER LENGTH:  32768
 NUMBER OF SEGMENTS:  10  SEGMENT LENGTH:   15997437      RECORD LENGTH: 524288

 Memory used in sort:      16.55 MW

 SORT1 READ   513522897. AND WROTE   152625686. INTEGRALS IN    442 RECORDS. CPU TIME:    18.64 SEC, REAL TIME:    20.31 SEC
 SORT2 READ   459368894. AND WROTE   476679126. INTEGRALS IN  14772 RECORDS. CPU TIME:     1.52 SEC, REAL TIME:    13.01 SEC

 Node minimum:   158882750.  Node maximum:   158903334. integrals

 OPERATOR DM      FOR CENTER  0  COORDINATES:    0.000000    0.000000    0.000000


 **********************************************************************************************************************************
 DATASETS  * FILE   NREC   LENGTH (MB)   RECORD NAMES
              1      18        5.04       500      610      700      900      950      970     1000      129      960     1100   
                                          VAR    BASINP    GEOM    SYMINP    ZMAT    AOBASIS   BASIS     P2S    ABASIS      S 
                                         1400     1410     1200     1210     1080     1600     1650     1700   
                                           T        V       H0       H01     AOSYM     SMH    MOLCAS    OPER   

 PROGRAMS   *        TOTAL       INT
 CPU TIMES  *        28.43     28.39
 REAL TIME  *        42.42 SEC
 DISK USED  *         9.10 GB      
 GA USED    *         0.01 MB       (max)       0.00 MB       (current)
 **********************************************************************************************************************************

1PROGRAM * RHF-SCF (OPEN SHELL)       Authors: W. Meyer, H.-J. Werner


 NUMBER OF ELECTRONS:      21+   20-    SPACE SYMMETRY=1    SPIN SYMMETRY: Doublet 
 CONVERGENCE THRESHOLDS:    1.00E-10 (Density)    1.00E-11 (Energy)
 MAX. NUMBER OF ITERATIONS:      200
 INTERPOLATION TYPE:            DIIS
 INTERPOLATION STEPS:              2 (START)      1 (STEP)
 LEVEL SHIFTS:                 -0.30 (CLOSED)  0.00 (OPEN) 



 Orbital guess generated from atomic densities. Full valence occupancy:   32

 Molecular orbital dump at record        2100.2

 ITERATION    DDIFF          GRAD             ENERGY        2-EL.EN.            DIPOLE MOMENTS         DIIS
    1      0.000D+00      0.000D+00      -267.26105457    559.799096   -1.77482   -0.06960   -0.09692    0
    2      0.000D+00      0.326D-02      -267.33462268    562.648473   -1.01514   -0.43100   -0.35924    1
    3      0.471D-02      0.230D-02      -267.36117193    561.600765   -1.18878   -0.24297   -0.21696    2
    4      0.211D-02      0.546D-03      -267.36941126    561.787763   -0.97726   -0.31579   -0.29798    3
    5      0.926D-03      0.484D-03      -267.37363367    561.830150   -0.92171   -0.31789   -0.30223    4
    6      0.583D-03      0.272D-03      -267.37555561    561.797346   -0.88044   -0.31128   -0.30013    5
    7      0.485D-03      0.133D-03      -267.37589132    561.783156   -0.89036   -0.29975   -0.29204    6
    8      0.258D-03      0.356D-04      -267.37591318    561.780446   -0.88994   -0.29650   -0.29055    7
    9      0.847D-04      0.189D-04      -267.37592410    561.780665   -0.89247   -0.29703   -0.29060    8
   10      0.448D-04      0.820D-05      -267.37592591    561.780566   -0.89364   -0.29640   -0.29031    9
   11      0.199D-04      0.321D-05      -267.37592616    561.780511   -0.89427   -0.29624   -0.29015    9
   12      0.785D-05      0.148D-05      -267.37592622    561.780737   -0.89441   -0.29634   -0.29019    9
   13      0.370D-05      0.527D-06      -267.37592622    561.780790   -0.89443   -0.29640   -0.29022    9
   14      0.148D-05      0.298D-06      -267.37592623    561.780789   -0.89441   -0.29641   -0.29022    9
   15      0.813D-06      0.145D-06      -267.37592623    561.780796   -0.89441   -0.29642   -0.29022    9
   16      0.411D-06      0.720D-07      -267.37592623    561.780799   -0.89441   -0.29642   -0.29023    9
   17      0.172D-06      0.334D-07      -267.37592623    561.780794   -0.89440   -0.29642   -0.29023    9
   18      0.111D-06      0.194D-07      -267.37592623    561.780792   -0.89440   -0.29642   -0.29022    9
   19      0.625D-07      0.108D-07      -267.37592623    561.780794   -0.89440   -0.29642   -0.29022    9
   20      0.495D-07      0.782D-08      -267.37592623    561.780793   -0.89440   -0.29642   -0.29022    9
   21      0.449D-07      0.659D-08      -267.37592623    561.780793   -0.89440   -0.29642   -0.29022    9
   22      0.572D-07      0.545D-08      -267.37592623    561.780794   -0.89440   -0.29642   -0.29022    9
   23      0.809D-07      0.360D-08      -267.37592623    561.780795   -0.89440   -0.29642   -0.29022    9
   24      0.735D-07      0.219D-08      -267.37592623    561.780795   -0.89440   -0.29642   -0.29022    9
   25      0.395D-07      0.984D-09      -267.37592623    561.780795   -0.89440   -0.29642   -0.29022    9
   26      0.164D-07      0.408D-09      -267.37592623    561.780795   -0.89440   -0.29642   -0.29022    9
   27      0.181D-08      0.194D-09      -267.37592623    561.780795   -0.89440   -0.29642   -0.29022    9
   28      0.860D-09      0.936D-10      -267.37592623    561.780795   -0.89440   -0.29642   -0.29022    9
   29      0.523D-09      0.491D-10      -267.37592623    561.780795   -0.89440   -0.29642   -0.29022    9
   30      0.169D-09      0.242D-10      -267.37592623    561.780795   -0.89440   -0.29642   -0.29022    9
   31      0.705D-10      0.202D-10      -267.37592623    561.780795   -0.89440   -0.29642   -0.29022    0

 Final alpha occupancy:  21
 Final beta  occupancy:  20

 !RHF STATE 1.1 Energy               -267.375926227208
 Nuclear energy                       186.62669434
 One-electron energy                 -734.89301809
 Two-electron energy                  280.89039752
 Virial quotient                       -1.00116674
 !RHF STATE 1.1 Dipole moment          -0.89440123    -0.29641878    -0.29022443
 Dipole moment /Debye                  -2.27319228    -0.75337205    -0.73762860

 Orbital energies:

         1.1          2.1          3.1          4.1          5.1          6.1          7.1          8.1          9.1         10.1
    -20.648678   -20.640385   -11.297463   -11.229075   -11.225464    -1.523545    -1.170932    -1.034494    -0.952859    -0.819457

        11.1         12.1         13.1         14.1         15.1         16.1         17.1         18.1         19.1         20.1
     -0.695294    -0.667973    -0.652467    -0.595300    -0.562965    -0.557750    -0.544382    -0.501293    -0.489687    -0.465208

        21.1         22.1         23.1
     -0.562882     0.137699     0.174779


 **********************************************************************************************************************************
 DATASETS  * FILE   NREC   LENGTH (MB)   RECORD NAMES
              1      18        5.04       500      610      700      900      950      970     1000      129      960     1100   
                                          VAR    BASINP    GEOM    SYMINP    ZMAT    AOBASIS   BASIS     P2S    ABASIS      S 
                                         1400     1410     1200     1210     1080     1600     1650     1700   
                                           T        V       H0       H01     AOSYM     SMH    MOLCAS    OPER   

              2       3        2.21       700     1000     2100   
                                         GEOM     BASIS     RHF  

 PROGRAMS   *        TOTAL       RHF       INT
 CPU TIMES  *        77.74     49.31     28.39
 REAL TIME  *        95.61 SEC
 DISK USED  *         9.14 GB      
 SF USED    *         0.25 MB      
 GA USED    *         0.01 MB       (max)       0.00 MB       (current)
 **********************************************************************************************************************************


1PROGRAM * CCSD (Unrestricted open-shell coupled cluster)     Authors: C. Hampel, H.-J. Werner, 1991, M. Deegan, P.J. Knowles, 1992


 Convergence thresholds:  THRVAR = 1.00D-08  THRDEN = 1.00D-10

 CCSD(T)     terms to be evaluated (factor= 1.000)


 Number of core orbitals:           5 (   5 )
 Number of closed-shell orbitals:  15 (  15 )
 Number of active  orbitals:        1 (   1 )
 Number of external orbitals:     227 ( 227 )

 Memory could be reduced to 332.02 Mwords without degradation in triples

 Number of N-1 electron functions:              31
 Number of N-2 electron functions:             465
 Number of singly external CSFs:              7068
 Number of doubly external CSFs:          18353430
 Total number of CSFs:                    18360498

 Molecular orbitals read from record     2100.2  Type=RHF/CANONICAL (state 1.1)

 Integral transformation finished. Total CPU:  31.77 sec, npass=  1  Memory used: 145.25 MW

 Starting RMP2 calculation

 ITER.      SQ.NORM     CORR.ENERGY   TOTAL ENERGY   ENERGY CHANGE        DEN1      VAR(S)    VAR(P)  DIIS     TIME
   1      1.26537028    -0.96761004  -268.34353627    -0.96761004    -0.00323684  0.26D-04  0.11D-02  1  1    36.74
   2      1.26815561    -0.97110011  -268.34702634    -0.00349007    -0.00000666  0.10D-05  0.23D-05  2  2    40.04
   3      1.26823555    -0.97115302  -268.34707924    -0.00005291    -0.00000008  0.54D-07  0.11D-07  3  3    43.58
   4      1.26823725    -0.97115282  -268.34707905     0.00000019    -0.00000000  0.16D-08  0.12D-09  4  4    48.20
   5      1.26823751    -0.97115291  -268.34707914    -0.00000009    -0.00000000  0.19D-10  0.46D-11  5  5    52.71
   6      1.26823757    -0.97115294  -268.34707917    -0.00000003    -0.00000000  0.50D-13  0.56D-13  6  6    57.06
   7      1.26823757    -0.97115294  -268.34707917     0.00000000    -0.00000000  0.15D-14  0.85D-15  6  1    61.82
   8      1.26823757    -0.97115294  -268.34707917     0.00000000    -0.00000000  0.16D-16  0.79D-17  6  2    66.34
   9      1.26823757    -0.97115294  -268.34707917    -0.00000000    -0.00000000  0.31D-18  0.10D-18  6  3    71.07

 Norm of t1 vector:      0.04589560      S-energy:    -0.00446797      T1 diagnostic:  0.00074408
 Norm of t2 vector:      0.51587902      P-energy:    -0.96668497
                                         Alpha-Beta:  -0.73708750
                                         Alpha-Alpha: -0.11898909
                                         Beta-Beta:   -0.11060838

 Spin contamination <S**2-Sz**2-Sz>     0.00145425
  Reference energy                   -267.375926227208
  RHF-RMP2 correlation energy          -0.971152942974
 !RHF-RMP2 energy                    -268.347079170181

 Starting UCCSD calculation

 ITER.      SQ.NORM     CORR.ENERGY   TOTAL ENERGY   ENERGY CHANGE        DEN1      VAR(S)    VAR(P)  DIIS     TIME
   1      1.27984086    -0.97926806  -268.35519429    -0.97926806    -0.02933200  0.65D-02  0.54D-02  1  1   167.26
   2      1.30624589    -1.00589325  -268.38181948    -0.02662519    -0.00363475  0.62D-03  0.97D-03  2  2   263.99
   3      1.32289376    -1.01271692  -268.38864315    -0.00682367    -0.00091197  0.75D-03  0.76D-04  3  3   360.23
   4      1.33413022    -1.01537582  -268.39130204    -0.00265890    -0.00038513  0.31D-03  0.33D-04  4  4   458.86
   5      1.34919905    -1.01737247  -268.39329870    -0.00199666    -0.00011793  0.10D-03  0.90D-05  5  5   558.55
   6      1.36072756    -1.01839521  -268.39432143    -0.00102273    -0.00001812  0.93D-05  0.32D-05  6  6   656.48
   7      1.36441738    -1.01863576  -268.39456199    -0.00024055    -0.00000316  0.16D-05  0.61D-06  6  1   753.96
   8      1.36502145    -1.01867790  -268.39460413    -0.00004214    -0.00000067  0.27D-06  0.15D-06  6  2   850.83
   9      1.36534203    -1.01869637  -268.39462260    -0.00001847    -0.00000015  0.66D-07  0.32D-07  6  4   950.06
  10      1.36532838    -1.01869509  -268.39462132     0.00000128    -0.00000002  0.11D-07  0.43D-08  6  3  1049.63
  11      1.36539089    -1.01870019  -268.39462642    -0.00000510    -0.00000000  0.25D-08  0.94D-09  6  5  1144.90
  12      1.36538338    -1.01869770  -268.39462393     0.00000249    -0.00000000  0.11D-08  0.22D-09  6  6  1239.72
  13      1.36537899    -1.01869655  -268.39462277     0.00000116    -0.00000000  0.68D-09  0.58D-10  6  1  1334.90
  14      1.36536611    -1.01869504  -268.39462127     0.00000150    -0.00000000  0.46D-09  0.24D-10  6  2  1430.23
  15      1.36535997    -1.01869431  -268.39462053     0.00000074    -0.00000000  0.38D-09  0.18D-10  6  3  1525.04
  16      1.36535687    -1.01869414  -268.39462037     0.00000017    -0.00000000  0.27D-09  0.15D-10  6  4  1620.10
  17      1.36535638    -1.01869416  -268.39462039    -0.00000002    -0.00000000  0.13D-09  0.15D-10  6  5  1733.57
  18      1.36535935    -1.01869435  -268.39462058    -0.00000019    -0.00000000  0.28D-10  0.58D-11  6  6  1827.60
  19      1.36536259    -1.01869468  -268.39462091    -0.00000033    -0.00000000  0.25D-11  0.17D-11  6  2  1922.08
  20      1.36536202    -1.01869455  -268.39462077     0.00000013    -0.00000000  0.61D-12  0.17D-12  6  1  2037.08
  21      1.36536231    -1.01869459  -268.39462082    -0.00000004    -0.00000000  0.21D-12  0.60D-13  6  4  2154.53
  22      1.36536223    -1.01869458  -268.39462081     0.00000001    -0.00000000  0.59D-13  0.14D-13  6  3  2273.40
  23      1.36536224    -1.01869458  -268.39462081    -0.00000000    -0.00000000  0.17D-13  0.57D-14  6  6  2384.77
  24      1.36536222    -1.01869458  -268.39462081     0.00000000    -0.00000000  0.17D-14  0.56D-15  6  1  2501.33
  25      1.36536223    -1.01869458  -268.39462081     0.00000000    -0.00000000  0.64D-15  0.16D-15  6  5  2612.31
  26      1.36536224    -1.01869458  -268.39462081    -0.00000000    -0.00000000  0.17D-15  0.69D-16  6  2  2723.84
  27      1.36536225    -1.01869458  -268.39462081    -0.00000000    -0.00000000  0.42D-16  0.92D-17  6  4  2839.73
  28      1.36536226    -1.01869458  -268.39462081    -0.00000000    -0.00000000  0.11D-16  0.37D-17  6  3  2952.26
  29      1.36536226    -1.01869458  -268.39462081    -0.00000000    -0.00000000  0.43D-17  0.69D-18  6  6  3064.43
  30      1.36536226    -1.01869458  -268.39462081     0.00000000    -0.00000000  0.29D-17  0.26D-18  6  1  3166.10

 Norm of t1 vector:      0.23118060      S-energy:    -0.00501525      T1 diagnostic:  0.02848708
                                                                       D1 diagnostic:  0.14599100
 Norm of t2 vector:      0.55849600      P-energy:    -1.01367933
                                         Alpha-Beta:  -0.80138160
                                         Alpha-Alpha: -0.10868145
                                         Beta-Beta:   -0.10361628

 Singles amplitudes (print threshold =  0.500E-01):

         I         SYM. A    A   T(IA) [Beta-Beta]

         8         1         1     -0.09619813
         9         1         1      0.09913468
        11         1         1     -0.05452250
        12         1         1     -0.07468507
        14         1         1     -0.11134149

 Spin contamination <S**2-Sz**2-Sz>     0.00175980

 Memory could be reduced to 360.52 Mwords without degradation in triples
 

 RESULTS
 =======

  Reference energy                   -267.375926227208
  UCCSD singles energy                 -0.005015248952
  UCCSD pair energy                    -1.013679332837
  UCCSD correlation energy             -1.018694581789
  Triples (T) contribution             -0.040834554749
  Total correlation energy             -1.059529136538
 
  RHF-UCCSD energy                   -268.394620808997
  RHF-UCCSD[T] energy                -268.438776791711
  RHF-UCCSD-T energy                 -268.434957640442
 !RHF-UCCSD(T) energy                -268.435455363746

 Program statistics:

 Available memory in ccsd:               999997692
 Min. memory needed in ccsd:              51505734
 Max. memory used in ccsd:                74803578
 Max. memory used in cckext:              59475747 (30 integral passes)
 Max. memory used in cckint:             145249478 ( 1 integral passes)



 **********************************************************************************************************************************
 DATASETS  * FILE   NREC   LENGTH (MB)   RECORD NAMES
              1      18        5.04       500      610      700      900      950      970     1000      129      960     1100   
                                          VAR    BASINP    GEOM    SYMINP    ZMAT    AOBASIS   BASIS     P2S    ABASIS      S 
                                         1400     1410     1200     1210     1080     1600     1650     1700   
                                           T        V       H0       H01     AOSYM     SMH    MOLCAS    OPER   

              2       3        2.21       700     1000     2100   
                                         GEOM     BASIS     RHF  

 PROGRAMS   *        TOTAL  UCCSD(T)       RHF       INT
 CPU TIMES  *      5084.93   5007.18     49.31     28.39
 REAL TIME  *      5206.22 SEC
 DISK USED  *        16.12 GB      
 SF USED    *         6.57 GB      
 GA USED    *         0.01 MB       (max)       0.00 MB       (current)
 **********************************************************************************************************************************

        UCCSD(T)        RHF-SCF 
   -268.43545536   -267.37592623
 **********************************************************************************************************************************
 Variable memory released
