
 Primary working directories    : /tmp/601556.20.gen6.q
 Secondary working directories  : /tmp/601556.20.gen6.q
 Wavefunction directory         : /home/vulcan/mel64643/wfu/
 Main file repository           : /tmp/601556.20.gen6.q/

 ARCHNAME  : Linux/x86_64
 FC        : /opt/intel/compilers_and_libraries_2016.1.150/linux/bin/intel64/ifort
 FCVERSION : 16.0.1
 BLASLIB   : -mkl
 id        : ccgc

 Nodes     nprocs
 n089         1
 ga_uses_ma=false, calling ma_init with nominal heap.
 GA-space will be limited to   8.0 MW (determined by -G option)

 Using customized tuning parameters: mindgm=10; mindgv=16; mindgc=4; mindgr=1; noblas=0; mincuda=1000; minvec=7
 default implementation of scratch files=df  

 ***,Optimization of min3
 memory,1000,m
 gthresh,energy=1.0d-12,orbital=1.0d-10,oneint=1.0d-16,twoint=1.0d-16,optgrad=1.0d-6,compress=1.0d-13
 geomtyp=xyz
 
  bohr
  geometry = {
  6
  arbitrary comment
  C   -1.3750741536   -0.0242784288    0.0025895779
  O    1.3060181133    0.1207015099    0.0010724494
  H   -2.0778745117    1.9096115212    0.0022032112
  H   -2.1064243273   -0.9763560871    1.6786318331
  H   -2.1115451447   -0.9823176376   -1.6852429177
  H    1.9411758641   -1.5774929976    0.0007374361
 }
 
 basis=cc-pvtz
 {rhf;maxit,200}
 {ccsd(t);maxit,200}

 Variables initialized (661), CPU time= 0.01 sec
 Commands  initialized (458), CPU time= 0.00 sec, 486 directives.
 Default parameters read. Elapsed time= 0.05 sec

 Checking input...
 Passed
1


                                         ***  PROGRAM SYSTEM MOLPRO  ***
                         Copyright, University College Cardiff Consultants Limited, 2008

                                    Version 2010.1 linked May 16 2016 07:17:05


 **********************************************************************************************************************************
 LABEL *   Optimization of min3                                                          
 Linux-4.4.3/n089(x86_64) 64 bit mpp version                                             DATE: 06-Nov-21          TIME: 15:41:46  
 **********************************************************************************************************************************

 SHA1:             9e8077add272b0f3cad6f7df79ec5211205f459d
 **********************************************************************************************************************************

 THRESHOLDS:

 ZERO    =  1.00D-12  ONEINT  =  1.00D-16  TWOINT  =  1.00D-16  PREFAC  =  1.00D-14  LOCALI  =  1.00D-09  EORDER  =  1.00D-04
 ENERGY  =  1.00D-12  ETEST   =  0.00D+00  EDENS   =  0.00D+00  THRDEDEF=  1.00D-06  GRADIENT=  1.00D-02  STEP    =  1.00D-03
 ORBITAL =  1.00D-10  CIVEC   =  1.00D-05  COEFF   =  1.00D-04  PRINTCI =  5.00D-02  PUNCHCI =  9.90D+01  OPTGRAD =  1.00D-06
 OPTENERG=  1.00D-06  OPTSTEP =  3.00D-04  THRGRAD =  1.00D-10  COMPRESS=  1.00D-13  VARMIN  =  1.00D-07  VARMAX  =  1.00D-03
 THRDOUB =  0.00D+00  THRDIV  =  1.00D-05  THRRED  =  1.00D-07  THRPSP  =  1.00D+00  THRDC   =  1.00D-10  THRCS   =  1.00D-10
 THRNRM  =  1.00D-08  THREQ   =  0.00D+00  THRDE   =  1.00D+00  THRREF  =  1.00D-05  SPARFAC =  1.00D+00  THRDLP  =  1.00D-07
 THRDIA  =  1.00D-10  THRDLS  =  1.00D-07  THRGPS  =  0.00D+00  THRKEX  =  0.00D+00  THRDIS  =  2.00D-01  THRVAR  =  1.00D-10
 THRLOC  =  1.00D-06  THRGAP  =  1.00D-06  THRLOCT = -1.00D+00  THRGAPT = -1.00D+00  THRORB  =  1.00D-06  THRMLTP =  0.00D+00
 THRCPQCI=  1.00D-10  KEXTA   =  0.00D+00  THRCOARS=  0.00D+00  SYMTOL  =  1.00D-06  GRADTOL =  1.00D-06  THROVL  =  1.00D-08
 THRORTH =  1.00D-08  GRID    =  1.00D-06  GRIDMAX =  1.00D-03  DTMAX   =  0.00D+00

 SETTING GEOMTYP        =    XYZ
 ZUNIT=BOHR
 

 Variable memory set to 1000000000 words,  buffer space   230000 words

 SETTING BASIS          =    CC-PVTZ


 Recomputing integrals since basis changed


 Using spherical harmonics

 Library entry C      S cc-pVTZ              selected for orbital group  1
 Library entry C      P cc-pVTZ              selected for orbital group  1
 Library entry C      D cc-pVTZ              selected for orbital group  1
 Library entry C      F cc-pVTZ              selected for orbital group  1
 Library entry O      S cc-pVTZ              selected for orbital group  2
 Library entry O      P cc-pVTZ              selected for orbital group  2
 Library entry O      D cc-pVTZ              selected for orbital group  2
 Library entry O      F cc-pVTZ              selected for orbital group  2
 Library entry H      S cc-pVTZ              selected for orbital group  3
 Library entry H      P cc-pVTZ              selected for orbital group  3
 Library entry H      D cc-pVTZ              selected for orbital group  3

1PROGRAM * SEWARD (Integral evaluation for generally contracted gaussian basis sets)     Author: Roland Lindh, 1990

 Geometry written to block  1 of record 700


 Point group  C1  



 ATOMIC COORDINATES

 NR  ATOM    CHARGE       X              Y              Z

   1  C       6.00   -1.375074154   -0.024278429    0.002589578
   2  O       8.00    1.306018113    0.120701510    0.001072449
   3  H       1.00   -2.077874512    1.909611521    0.002203211
   4  H       1.00   -2.106424327   -0.976356087    1.678631833
   5  H       1.00   -2.111545145   -0.982317638   -1.685242918
   6  H       1.00    1.941175864   -1.577492998    0.000737436

 Bond lengths in Bohr (Angstrom)

 1-2  2.685009726  1-3  2.057634280  1-4  2.061660153  1-5  2.075814823  2-6  1.813088543
     ( 1.420845953)     ( 1.088853166)     ( 1.090983566)     ( 1.098473894)     ( 0.959445135)

 Bond angles

  1-2-6  107.41152480   2-1-3  106.87653090   2-1-4  112.30988112   2-1-5  112.25503144

  3-1-4  108.24121537   3-1-5  108.20610218   4-1-5  108.78524201

 NUCLEAR CHARGE:                   18
 NUMBER OF PRIMITIVE AOS:         162
 NUMBER OF SYMMETRY AOS:          148
 NUMBER OF CONTRACTIONS:          116   ( 116A   )
 NUMBER OF CORE ORBITALS:           2   (   2A   )
 NUMBER OF VALENCE ORBITALS:       12   (  12A   )


 NUCLEAR REPULSION ENERGY   40.30780037


 Eigenvalues of metric

         1 0.133E-02 0.180E-02 0.191E-02 0.235E-02 0.330E-02 0.461E-02 0.738E-02 0.100E-01


 Contracted 2-electron integrals neglected if value below      1.0D-16
 AO integral compression algorithm  1   Integral accuracy      1.0D-16

     207.618 MB (compressed) written to integral file ( 97.6%)

     Node minimum: 207.618 MB, node maximum: 207.618 MB


 NUMBER OF SORTED TWO-ELECTRON INTEGRALS:   23028291.     BUFFER LENGTH:  32768
 NUMBER OF SEGMENTS:   2  SEGMENT LENGTH:   15997996      RECORD LENGTH: 524288

 Memory used in sort:      16.56 MW

 SORT1 READ    26631627. AND WROTE    22815833. INTEGRALS IN     67 RECORDS. CPU TIME:     0.21 SEC, REAL TIME:     0.36 SEC
 SORT2 READ    22815833. AND WROTE    23028291. INTEGRALS IN    792 RECORDS. CPU TIME:     0.19 SEC, REAL TIME:     0.30 SEC

 FILE SIZES:   FILE 1:   185.2 MBYTE,  FILE 4:   281.1 MBYTE,   TOTAL:    466.2 MBYTE

 OPERATOR DM      FOR CENTER  0  COORDINATES:    0.000000    0.000000    0.000000


 **********************************************************************************************************************************
 DATASETS  * FILE   NREC   LENGTH (MB)   RECORD NAMES
              1      19      185.36       500      610      700      900      950      970     1000      129      960     1100   
                                          VAR    BASINP    GEOM    SYMINP    ZMAT    AOBASIS   BASIS     P2S    ABASIS      S 
                                         1400     1410     1200     1210     1080     1600     1650     1300     1700   
                                           T        V       H0       H01     AOSYM     SMH    MOLCAS    ERIS     OPER   

 PROGRAMS   *        TOTAL       INT
 CPU TIMES  *         1.35      1.31
 REAL TIME  *         1.90 SEC
 DISK USED  *       674.51 MB      
 GA USED    *         0.00 MB       (max)       0.00 MB       (current)
 **********************************************************************************************************************************

1PROGRAM * RHF-SCF (CLOSED SHELL)       Authors: W. Meyer, H.-J. Werner


 NUMBER OF ELECTRONS:       9+    9-    SPACE SYMMETRY=1    SPIN SYMMETRY: Singlet 
 CONVERGENCE THRESHOLDS:    1.00E-10 (Density)    1.00E-13 (Energy)
 MAX. NUMBER OF ITERATIONS:      200
 INTERPOLATION TYPE:            DIIS
 INTERPOLATION STEPS:              2 (START)      1 (STEP)
 LEVEL SHIFTS:                  0.00 (CLOSED)  0.00 (OPEN) 



 Orbital guess generated from atomic densities. Full valence occupancy:   14

 Molecular orbital dump at record        2100.2

 ITERATION    DDIFF          GRAD             ENERGY        2-EL.EN.            DIPOLE MOMENTS         DIIS
    1      0.000D+00      0.000D+00      -115.05315953    164.437792   -0.48600   -0.90498   -0.00081    0
    2      0.000D+00      0.474D-02      -115.08147540    161.988533   -0.29811   -0.50138    0.00199    1
    3      0.784D-02      0.254D-02      -115.08855901    163.158692   -0.38986   -0.59914    0.00225    2
    4      0.257D-02      0.497D-03      -115.08906590    163.003273   -0.38295   -0.59316    0.00259    3
    5      0.686D-03      0.981D-04      -115.08909682    163.010373   -0.38657   -0.58843    0.00274    4
    6      0.186D-03      0.186D-04      -115.08909818    163.008954   -0.38697   -0.58843    0.00277    5
    7      0.479D-04      0.393D-05      -115.08909824    163.008042   -0.38717   -0.58822    0.00278    6
    8      0.910D-05      0.119D-05      -115.08909824    163.008506   -0.38719   -0.58819    0.00278    7
    9      0.233D-05      0.323D-06      -115.08909824    163.008401   -0.38720   -0.58818    0.00278    6
   10      0.767D-06      0.597D-07      -115.08909824    163.008412   -0.38721   -0.58818    0.00278    6
   11      0.159D-06      0.150D-07      -115.08909824    163.008415   -0.38721   -0.58818    0.00278    6
   12      0.299D-07      0.633D-08      -115.08909824    163.008413   -0.38721   -0.58818    0.00278    7
   13      0.111D-07      0.172D-08      -115.08909824    163.008414   -0.38721   -0.58818    0.00278    7
   14      0.348D-08      0.355D-09      -115.08909824    163.008414   -0.38721   -0.58818    0.00278    7
   15      0.853D-09      0.917D-10      -115.08909824    163.008414   -0.38721   -0.58818    0.00278    7
   16      0.187D-09      0.231D-10      -115.08909824    163.008414   -0.38721   -0.58818    0.00278    7
   17      0.530D-10      0.760D-11      -115.08909824    163.008414   -0.38721   -0.58818    0.00278    7
   18      0.152D-10      0.175D-11      -115.08909824    163.008414   -0.38721   -0.58818    0.00278    7
   19      0.334D-11      0.607D-12      -115.08909824    163.008414   -0.38721   -0.58818    0.00278    7
   20      0.142D-11      0.175D-12      -115.08909824    163.008414   -0.38721   -0.58818    0.00278    7
   21      0.398D-12      0.780D-13      -115.08909824    163.008414   -0.38721   -0.58818    0.00278    7
   22      0.185D-12      0.427D-13      -115.08909824    163.008414   -0.38721   -0.58818    0.00278    0

 Final occupancy:   9

 !RHF STATE 1.1 Energy               -115.089098244212
 Nuclear energy                        40.30780037
 One-electron energy                 -236.90110541
 Two-electron energy                   81.50420679
 Virial quotient                       -1.00128759
 !RHF STATE 1.1 Dipole moment          -0.38720798    -0.58817889     0.00277888
 Dipole moment /Debye                  -0.98412005    -1.49490371     0.00706274

 Orbital energies:

         1.1          2.1          3.1          4.1          5.1          6.1          7.1          8.1          9.1         10.1
    -20.552621   -11.269754    -1.354103    -0.923083    -0.687880    -0.617655    -0.590047    -0.502059    -0.449143     0.138408

        11.1
      0.178611


 **********************************************************************************************************************************
 DATASETS  * FILE   NREC   LENGTH (MB)   RECORD NAMES
              1      19      185.36       500      610      700      900      950      970     1000      129      960     1100   
                                          VAR    BASINP    GEOM    SYMINP    ZMAT    AOBASIS   BASIS     P2S    ABASIS      S 
                                         1400     1410     1200     1210     1080     1600     1650     1300     1700   
                                           T        V       H0       H01     AOSYM     SMH    MOLCAS    ERIS     OPER   

              2       3        0.63       700     1000     2100   
                                         GEOM     BASIS     RHF  

 PROGRAMS   *        TOTAL       RHF       INT
 CPU TIMES  *         4.49      3.14      1.31
 REAL TIME  *         5.47 SEC
 DISK USED  *       674.51 MB      
 GA USED    *         0.00 MB       (max)       0.00 MB       (current)
 **********************************************************************************************************************************


1PROGRAM * CCSD (Closed-shell coupled cluster)     Authors: C. Hampel, H.-J. Werner, 1991, M. Deegan, P.J. Knowles, 1992


 Convergence thresholds:  THRVAR = 1.00D-08  THRDEN = 1.00D-12

 CCSD(T)     terms to be evaluated (factor= 1.000)


 Number of core orbitals:           2 (   2 )
 Number of closed-shell orbitals:   7 (   7 )
 Number of external orbitals:     107 ( 107 )

 Molecular orbitals read from record     2100.2  Type=RHF/CANONICAL (state 1.1)

 Number of N-1 electron functions:               7
 Number of N-2 electron functions:              28
 Number of singly external CSFs:               749
 Number of doubly external CSFs:            280875
 Total number of CSFs:                      281625

 Length of J-op  integral file:               0.00 MB
 Length of K-op  integral file:               0.96 MB
 Length of 3-ext integral record:             0.00 MB

 Memory could be reduced to 12.77 Mwords without degradation in triples

 Integral transformation finished. Total CPU:   0.48 sec, npass=  1  Memory used:   7.23 MW

 Reference energy:                   -115.08909824

 MP2 singlet pair energy:              -0.28103052
 MP2 triplet pair energy:              -0.14730390
 MP2 correlation energy:               -0.42833442
 MP2 total energy:                   -115.51743267

 SCS-MP2 correlation energy:           -0.42889239   (PS=  1.200000  PT=  0.333333)
 SCS-MP2 total energy:               -115.51799063

 ITER.      SQ.NORM     CORR.ENERGY   TOTAL ENERGY   ENERGY CHANGE        DEN1      VAR(S)    VAR(P)  DIIS     TIME
   1      1.11803228    -0.44561930  -115.53471755    -0.01728488    -0.00693412  0.12D-02  0.18D-02  1  1     1.03
   2      1.12591404    -0.44680442  -115.53590266    -0.00118511    -0.00944925  0.16D-04  0.22D-03  2  2     1.62
   3      1.12850569    -0.44688102  -115.53597926    -0.00007660    -0.00178371  0.75D-05  0.10D-04  3  3     2.23
   4      1.12914583    -0.44688245  -115.53598069    -0.00000143    -0.00033294  0.35D-06  0.84D-06  4  4     2.83
   5      1.12925131    -0.44688428  -115.53598252    -0.00000183    -0.00003994  0.11D-06  0.65D-07  5  5     3.43
   6      1.12927630    -0.44688211  -115.53598036     0.00000217    -0.00000746  0.18D-07  0.50D-08  6  6     4.02
   7      1.12927988    -0.44688202  -115.53598027     0.00000009    -0.00000027  0.26D-08  0.90D-09  6  2     4.63
   8      1.12928123    -0.44688197  -115.53598021     0.00000005     0.00000002  0.42D-09  0.11D-09  6  1     5.23
   9      1.12928197    -0.44688192  -115.53598016     0.00000005    -0.00000003  0.28D-10  0.17D-10  6  3     5.83
  10      1.12928204    -0.44688193  -115.53598018    -0.00000002     0.00000007  0.25D-11  0.19D-11  6  4     6.43
  11      1.12928191    -0.44688194  -115.53598019    -0.00000001     0.00000011  0.23D-12  0.12D-12  6  6     7.03
  12      1.12928189    -0.44688194  -115.53598019    -0.00000000     0.00000001  0.27D-13  0.11D-13  6  5     7.64
  13      1.12928189    -0.44688194  -115.53598019    -0.00000000    -0.00000000  0.56D-14  0.17D-14  6  2     8.24
  14      1.12928189    -0.44688194  -115.53598019     0.00000000    -0.00000000  0.44D-15  0.14D-15  6  1     8.84
  15      1.12928189    -0.44688194  -115.53598019    -0.00000000    -0.00000000  0.65D-16  0.28D-16  6  3     9.44
  16      1.12928189    -0.44688194  -115.53598019     0.00000000     0.00000000  0.19D-16  0.34D-17  6  4    10.04
  17      1.12928189    -0.44688194  -115.53598019    -0.00000000     0.00000000  0.13D-17  0.74D-18  6  5    10.64
  18      1.12928189    -0.44688194  -115.53598019    -0.00000000     0.00000000  0.12D-18  0.49D-19  6  6    11.25
  19      1.12928189    -0.44688194  -115.53598019     0.00000000    -0.00000000  0.28D-19  0.11D-19  6  2    11.85
  20      1.12928189    -0.44688194  -115.53598019     0.00000000    -0.00000000  0.29D-20  0.10D-20  6  1    12.44

 Norm of t1 vector:      0.04468696      S-energy:    -0.00000000      T1 diagnostic:  0.00844504
                                                                       D1 diagnostic:  0.01722631


 Total CPU time for triples:      6.35 sec


 RESULTS
 =======

  Reference energy                   -115.089098244212
  CCSD singlet pair energy             -0.313137907380
  CCSD triplet pair energy             -0.133744036631
  CCSD correlation energy              -0.446881944011

  Triples (T) contribution             -0.014790229517
  Total correlation energy             -0.461672173528

  CCSD total energy                  -115.535980188223
  CCSD[T] energy                     -115.551236607076
  CCSD-T energy                      -115.550504756311
 !CCSD(T) total energy               -115.550770417740

 Timing summary (sec):

 STEP                 CPU(USER)    SYS     CPU(TOT)    WALL
 Transformation          0.49      0.06      0.55      0.55
 CCSD iterations        11.96      0.65     12.61     12.64
 Triples                 6.35      0.13      6.48      6.48

 Program statistics:

 Available memory in ccsd:               999999704
 Min. memory needed in ccsd:                915605
 Max. memory used in ccsd:                 1141922
 Max. memory used in cckext:                874802 (20 integral passes)



 **********************************************************************************************************************************
 DATASETS  * FILE   NREC   LENGTH (MB)   RECORD NAMES
              1      20      224.76       500      610      700      900      950      970     1000      129      960     1100   
                                          VAR    BASINP    GEOM    SYMINP    ZMAT    AOBASIS   BASIS     P2S    ABASIS      S 
                                         1400     1410     1200     1210     1080     1600     1650     1300     1700     1380   
                                           T        V       H0       H01     AOSYM     SMH    MOLCAS    ERIS     OPER     JKOP   

              2       3        0.63       700     1000     2100   
                                         GEOM     BASIS     RHF  

 PROGRAMS   *        TOTAL   CCSD(T)       RHF       INT
 CPU TIMES  *        23.29     18.80      3.14      1.31
 REAL TIME  *        25.17 SEC
 DISK USED  *       674.51 MB      
 GA USED    *         0.00 MB       (max)       0.00 MB       (current)
 **********************************************************************************************************************************

        CCSD(T)         RHF-SCF 
   -115.55077042   -115.08909824
 **********************************************************************************************************************************
 Variable memory released
