
 Primary working directories    : /tmp/795519.153.gen6.q
 Secondary working directories  : /tmp/795519.153.gen6.q
 Wavefunction directory         : /home/vulcan/mel64643/wfu/
 Main file repository           : /tmp/795519.153.gen6.q/

 ARCHNAME  : Linux/x86_64
 FC        : /opt/intel/compilers_and_libraries_2016.1.150/linux/bin/intel64/ifort
 FCVERSION : 16.0.1
 BLASLIB   : -mkl
 id        : ccgc

 Nodes     nprocs
 n079         1
 ga_uses_ma=false, calling ma_init with nominal heap.
 GA-space will be limited to   8.0 MW (determined by -G option)

 Using customized tuning parameters: mindgm=10; mindgv=16; mindgc=4; mindgr=1; noblas=0; mincuda=1000; minvec=7
 default implementation of scratch files=df  

 ***,Optimization of min3
 memory,1000,m
 gthresh,energy=1.0d-12,orbital=1.0d-10,oneint=1.0d-16,twoint=1.0d-16,optgrad=1.0d-6,compress=1.0d-13
 geomtyp=xyz
 
  bohr
  geometry = {
  6
  arbitrary comment
  C   -1.3745148226   -0.0251312488    0.0000003412
  O    1.3039496913    0.1212483893    0.0000002432
  H   -2.0696431710    1.9078274902   -0.0000798847
  H   -2.1115833564   -0.9809136505    1.6810031027
  H   -2.1115765935   -0.9810448235   -1.6809308526
  H    1.9396440921   -1.5721182767   -0.0000013597
 }
 
 basis=cc-pvdz
 {rhf;maxit,200}
 {ccsd(t);maxit,200}

 Variables initialized (661), CPU time= 0.01 sec
 Commands  initialized (458), CPU time= 0.00 sec, 486 directives.
 Default parameters read. Elapsed time= 0.05 sec

 Checking input...
 Passed
1


                                         ***  PROGRAM SYSTEM MOLPRO  ***
                         Copyright, University College Cardiff Consultants Limited, 2008

                                    Version 2010.1 linked May 16 2016 07:17:05


 **********************************************************************************************************************************
 LABEL *   Optimization of min3                                                          
 Linux-4.4.3/n079(x86_64) 64 bit mpp version                                             DATE: 24-Oct-22          TIME: 15:44:21  
 **********************************************************************************************************************************

 SHA1:             9e8077add272b0f3cad6f7df79ec5211205f459d
 **********************************************************************************************************************************

 THRESHOLDS:

 ZERO    =  1.00D-12  ONEINT  =  1.00D-16  TWOINT  =  1.00D-16  PREFAC  =  1.00D-14  LOCALI  =  1.00D-09  EORDER  =  1.00D-04
 ENERGY  =  1.00D-12  ETEST   =  0.00D+00  EDENS   =  0.00D+00  THRDEDEF=  1.00D-06  GRADIENT=  1.00D-02  STEP    =  1.00D-03
 ORBITAL =  1.00D-10  CIVEC   =  1.00D-05  COEFF   =  1.00D-04  PRINTCI =  5.00D-02  PUNCHCI =  9.90D+01  OPTGRAD =  1.00D-06
 OPTENERG=  1.00D-06  OPTSTEP =  3.00D-04  THRGRAD =  1.00D-10  COMPRESS=  1.00D-13  VARMIN  =  1.00D-07  VARMAX  =  1.00D-03
 THRDOUB =  0.00D+00  THRDIV  =  1.00D-05  THRRED  =  1.00D-07  THRPSP  =  1.00D+00  THRDC   =  1.00D-10  THRCS   =  1.00D-10
 THRNRM  =  1.00D-08  THREQ   =  0.00D+00  THRDE   =  1.00D+00  THRREF  =  1.00D-05  SPARFAC =  1.00D+00  THRDLP  =  1.00D-07
 THRDIA  =  1.00D-10  THRDLS  =  1.00D-07  THRGPS  =  0.00D+00  THRKEX  =  0.00D+00  THRDIS  =  2.00D-01  THRVAR  =  1.00D-10
 THRLOC  =  1.00D-06  THRGAP  =  1.00D-06  THRLOCT = -1.00D+00  THRGAPT = -1.00D+00  THRORB  =  1.00D-06  THRMLTP =  0.00D+00
 THRCPQCI=  1.00D-10  KEXTA   =  0.00D+00  THRCOARS=  0.00D+00  SYMTOL  =  1.00D-06  GRADTOL =  1.00D-06  THROVL  =  1.00D-08
 THRORTH =  1.00D-08  GRID    =  1.00D-06  GRIDMAX =  1.00D-03  DTMAX   =  0.00D+00

 SETTING GEOMTYP        =    XYZ
 ZUNIT=BOHR
 

 Variable memory set to 1000000000 words,  buffer space   230000 words

 SETTING BASIS          =    CC-PVDZ


 Recomputing integrals since basis changed


 Using spherical harmonics

 Library entry C      S cc-pVDZ              selected for orbital group  1
 Library entry C      P cc-pVDZ              selected for orbital group  1
 Library entry C      D cc-pVDZ              selected for orbital group  1
 Library entry O      S cc-pVDZ              selected for orbital group  2
 Library entry O      P cc-pVDZ              selected for orbital group  2
 Library entry O      D cc-pVDZ              selected for orbital group  2
 Library entry H      S cc-pVDZ              selected for orbital group  3
 Library entry H      P cc-pVDZ              selected for orbital group  3

1PROGRAM * SEWARD (Integral evaluation for generally contracted gaussian basis sets)     Author: Roland Lindh, 1990

 Geometry written to block  1 of record 700


 Point group  C1  



 ATOMIC COORDINATES

 NR  ATOM    CHARGE       X              Y              Z

   1  C       6.00   -1.374514823   -0.025131249    0.000000341
   2  O       8.00    1.303949691    0.121248389    0.000000243
   3  H       1.00   -2.069643171    1.907827490   -0.000079885
   4  H       1.00   -2.111583356   -0.980913651    1.681003103
   5  H       1.00   -2.111576594   -0.981044823   -1.680930853
   6  H       1.00    1.939644092   -1.572118277   -0.000001360

 Bond lengths in Bohr (Angstrom)

 1-2  2.682461398  1-3  2.054150168  1-4  2.069434780  1-5  2.069434825  2-6  1.808755936
     ( 1.419497436)     ( 1.087009453)     ( 1.095097721)     ( 1.095097745)     ( 0.957152418)

 Bond angles

  1-2-6  107.44813463   2-1-3  106.65140413   2-1-4  112.38581523   2-1-5  112.38582317

  3-1-4  108.30717905   3-1-5  108.30701592   4-1-5  108.63920597

 NUCLEAR CHARGE:                   18
 NUMBER OF PRIMITIVE AOS:          82
 NUMBER OF SYMMETRY AOS:           80
 NUMBER OF CONTRACTIONS:           48   (  48A   )
 NUMBER OF CORE ORBITALS:           2   (   2A   )
 NUMBER OF VALENCE ORBITALS:       12   (  12A   )


 NUCLEAR REPULSION ENERGY   40.34594121


 Eigenvalues of metric

         1 0.965E-02 0.176E-01 0.367E-01 0.374E-01 0.379E-01 0.475E-01 0.477E-01 0.515E-01


 Contracted 2-electron integrals neglected if value below      1.0D-16
 AO integral compression algorithm  1   Integral accuracy      1.0D-16

     6.554 MB (compressed) written to integral file ( 94.5%)

     Node minimum: 6.554 MB, node maximum: 6.554 MB


 NUMBER OF SORTED TWO-ELECTRON INTEGRALS:     692076.     BUFFER LENGTH:  32768
 NUMBER OF SEGMENTS:   1  SEGMENT LENGTH:     692076      RECORD LENGTH: 524288

 Memory used in sort:       1.25 MW

 SORT1 READ      832256. AND WROTE      682148. INTEGRALS IN      2 RECORDS. CPU TIME:     0.00 SEC, REAL TIME:     0.01 SEC
 SORT2 READ      682148. AND WROTE      692076. INTEGRALS IN     25 RECORDS. CPU TIME:     0.02 SEC, REAL TIME:     0.02 SEC

 FILE SIZES:   FILE 1:     8.0 MBYTE,  FILE 4:     8.4 MBYTE,   TOTAL:     16.4 MBYTE

 OPERATOR DM      FOR CENTER  0  COORDINATES:    0.000000    0.000000    0.000000


 **********************************************************************************************************************************
 DATASETS  * FILE   NREC   LENGTH (MB)   RECORD NAMES
              1      19        8.03       500      610      700      900      950      970     1000      129      960     1100   
                                          VAR    BASINP    GEOM    SYMINP    ZMAT    AOBASIS   BASIS     P2S    ABASIS      S 
                                         1400     1410     1200     1210     1080     1600     1650     1300     1700   
                                           T        V       H0       H01     AOSYM     SMH    MOLCAS    ERIS     OPER   

 PROGRAMS   *        TOTAL       INT
 CPU TIMES  *         0.19      0.15
 REAL TIME  *         0.38 SEC
 DISK USED  *        23.60 MB      
 GA USED    *         0.00 MB       (max)       0.00 MB       (current)
 **********************************************************************************************************************************

1PROGRAM * RHF-SCF (CLOSED SHELL)       Authors: W. Meyer, H.-J. Werner


 NUMBER OF ELECTRONS:       9+    9-    SPACE SYMMETRY=1    SPIN SYMMETRY: Singlet 
 CONVERGENCE THRESHOLDS:    1.00E-10 (Density)    1.00E-13 (Energy)
 MAX. NUMBER OF ITERATIONS:      200
 INTERPOLATION TYPE:            DIIS
 INTERPOLATION STEPS:              2 (START)      1 (STEP)
 LEVEL SHIFTS:                  0.00 (CLOSED)  0.00 (OPEN) 



 Orbital guess generated from atomic densities. Full valence occupancy:   14

 Molecular orbital dump at record        2100.2

 ITERATION    DDIFF          GRAD             ENERGY        2-EL.EN.            DIPOLE MOMENTS         DIIS
    1      0.000D+00      0.000D+00      -115.01437125    164.453984   -0.49270   -0.89933   -0.00000    0
    2      0.000D+00      0.110D-01      -115.04271118    162.237962   -0.31436   -0.53471   -0.00000    1
    3      0.205D-01      0.529D-02      -115.04871490    163.260885   -0.39776   -0.60963   -0.00000    2
    4      0.638D-02      0.112D-02      -115.04917676    163.104952   -0.38754   -0.59856   -0.00000    3
    5      0.204D-02      0.201D-03      -115.04919756    163.111344   -0.39032   -0.59428   -0.00000    4
    6      0.431D-03      0.352D-04      -115.04919834    163.111508   -0.39061   -0.59408   -0.00000    5
    7      0.925D-04      0.729D-05      -115.04919837    163.110320   -0.39074   -0.59391   -0.00000    6
    8      0.148D-04      0.235D-05      -115.04919837    163.110697   -0.39078   -0.59389   -0.00000    7
    9      0.499D-05      0.484D-06      -115.04919837    163.110656   -0.39079   -0.59389   -0.00000    6
   10      0.139D-05      0.851D-07      -115.04919837    163.110655   -0.39079   -0.59389   -0.00000    6
   11      0.230D-06      0.318D-07      -115.04919837    163.110661   -0.39079   -0.59389   -0.00000    6
   12      0.575D-07      0.131D-07      -115.04919837    163.110659   -0.39079   -0.59389   -0.00000    7
   13      0.243D-07      0.293D-08      -115.04919837    163.110659   -0.39079   -0.59389   -0.00000    7
   14      0.730D-08      0.634D-09      -115.04919837    163.110659   -0.39079   -0.59389   -0.00000    7
   15      0.163D-08      0.145D-09      -115.04919837    163.110659   -0.39079   -0.59389   -0.00000    7
   16      0.322D-09      0.434D-10      -115.04919837    163.110659   -0.39079   -0.59389   -0.00000    7
   17      0.837D-10      0.142D-10      -115.04919837    163.110659   -0.39079   -0.59389   -0.00000    0

 Final occupancy:   9

 !RHF STATE 1.1 Energy               -115.049198372337
 Nuclear energy                        40.34594121
 One-electron energy                 -236.95046916
 Two-electron energy                   81.55532957
 Virial quotient                       -1.00084832
 !RHF STATE 1.1 Dipole moment          -0.39079338    -0.59388721    -0.00000279
 Dipole moment /Debye                  -0.99323264    -1.50941186    -0.00000708

 Orbital energies:

         1.1          2.1          3.1          4.1          5.1          6.1          7.1          8.1          9.1         10.1
    -20.549763   -11.274460    -1.350904    -0.921618    -0.683789    -0.613621    -0.585261    -0.497509    -0.442979     0.184732

        11.1
      0.224783


 **********************************************************************************************************************************
 DATASETS  * FILE   NREC   LENGTH (MB)   RECORD NAMES
              1      19        8.03       500      610      700      900      950      970     1000      129      960     1100   
                                          VAR    BASINP    GEOM    SYMINP    ZMAT    AOBASIS   BASIS     P2S    ABASIS      S 
                                         1400     1410     1200     1210     1080     1600     1650     1300     1700   
                                           T        V       H0       H01     AOSYM     SMH    MOLCAS    ERIS     OPER   

              2       3        0.39       700     1000     2100   
                                         GEOM     BASIS     RHF  

 PROGRAMS   *        TOTAL       RHF       INT
 CPU TIMES  *         0.26      0.07      0.15
 REAL TIME  *         0.48 SEC
 DISK USED  *        23.60 MB      
 GA USED    *         0.00 MB       (max)       0.00 MB       (current)
 **********************************************************************************************************************************


1PROGRAM * CCSD (Closed-shell coupled cluster)     Authors: C. Hampel, H.-J. Werner, 1991, M. Deegan, P.J. Knowles, 1992


 Convergence thresholds:  THRVAR = 1.00D-08  THRDEN = 1.00D-12

 CCSD(T)     terms to be evaluated (factor= 1.000)


 Number of core orbitals:           2 (   2 )
 Number of closed-shell orbitals:   7 (   7 )
 Number of external orbitals:      39 (  39 )

 Molecular orbitals read from record     2100.2  Type=RHF/CANONICAL (state 1.1)

 Number of N-1 electron functions:               7
 Number of N-2 electron functions:              28
 Number of singly external CSFs:               273
 Number of doubly external CSFs:             37401
 Total number of CSFs:                       37675

 Length of J-op  integral file:               0.00 MB
 Length of K-op  integral file:               0.19 MB
 Length of 3-ext integral record:             0.00 MB

 Memory could be reduced to 0.96 Mwords without degradation in triples

 Integral transformation finished. Total CPU:   0.02 sec, npass=  1  Memory used:   0.66 MW

 Reference energy:                   -115.04919837

 MP2 singlet pair energy:              -0.21854403
 MP2 triplet pair energy:              -0.11981148
 MP2 correlation energy:               -0.33835551
 MP2 total energy:                   -115.38755389

 SCS-MP2 correlation energy:           -0.33680221   (PS=  1.200000  PT=  0.333333)
 SCS-MP2 total energy:               -115.38600058

 ITER.      SQ.NORM     CORR.ENERGY   TOTAL ENERGY   ENERGY CHANGE        DEN1      VAR(S)    VAR(P)  DIIS     TIME
   1      1.10721502    -0.36115664  -115.41035501    -0.02280112    -0.01413605  0.91D-03  0.17D-02  1  1     0.05
   2      1.11571936    -0.36309649  -115.41229486    -0.00193986    -0.00923592  0.20D-04  0.16D-03  2  2     0.08
   3      1.11759121    -0.36322318  -115.41242155    -0.00012669    -0.00119878  0.95D-05  0.85D-05  3  3     0.11
   4      1.11810371    -0.36322171  -115.41242008     0.00000148    -0.00025391  0.33D-06  0.67D-06  4  4     0.14
   5      1.11820128    -0.36322209  -115.41242046    -0.00000039    -0.00003587  0.98D-07  0.49D-07  5  5     0.18
   6      1.11822019    -0.36322074  -115.41241911     0.00000135    -0.00000434  0.16D-07  0.40D-08  6  6     0.21
   7      1.11822489    -0.36322032  -115.41241869     0.00000042    -0.00000035  0.20D-08  0.71D-09  6  1     0.24
   8      1.11822615    -0.36322042  -115.41241880    -0.00000010     0.00000074  0.25D-09  0.71D-10  6  3     0.27
   9      1.11822720    -0.36322030  -115.41241867     0.00000012    -0.00000038  0.12D-10  0.10D-10  6  2     0.31
  10      1.11822713    -0.36322030  -115.41241868    -0.00000000     0.00000007  0.11D-11  0.86D-12  6  5     0.34
  11      1.11822716    -0.36322030  -115.41241867     0.00000000    -0.00000000  0.19D-12  0.49D-13  6  4     0.37
  12      1.11822714    -0.36322030  -115.41241868    -0.00000000     0.00000001  0.18D-13  0.98D-14  6  1     0.40
  13      1.11822715    -0.36322030  -115.41241868    -0.00000000    -0.00000000  0.23D-14  0.92D-15  6  6     0.43
  14      1.11822715    -0.36322030  -115.41241868     0.00000000    -0.00000000  0.22D-15  0.12D-15  6  3     0.47
  15      1.11822715    -0.36322030  -115.41241868    -0.00000000    -0.00000000  0.24D-16  0.16D-16  6  2     0.50
  16      1.11822715    -0.36322030  -115.41241868    -0.00000000    -0.00000000  0.54D-17  0.16D-17  6  5     0.53
  17      1.11822715    -0.36322030  -115.41241868    -0.00000000    -0.00000000  0.52D-18  0.24D-18  6  4     0.57
  18      1.11822715    -0.36322030  -115.41241868     0.00000000    -0.00000000  0.80D-19  0.41D-19  6  1     0.60
  19      1.11822715    -0.36322030  -115.41241868    -0.00000000    -0.00000000  0.90D-20  0.41D-20  6  6     0.63
  20      1.11822715    -0.36322030  -115.41241868     0.00000000     0.00000000  0.13D-20  0.53D-21  6  3     0.66

 Norm of t1 vector:      0.04159832      S-energy:    -0.00000000      T1 diagnostic:  0.00786134
                                                                       D1 diagnostic:  0.01744260


 Total CPU time for triples:      0.17 sec


 RESULTS
 =======

  Reference energy                   -115.049198372337
  CCSD singlet pair energy             -0.254461707335
  CCSD triplet pair energy             -0.108758595657
  CCSD correlation energy              -0.363220302993

  Triples (T) contribution             -0.007725790922
  Total correlation energy             -0.370946093915

  CCSD total energy                  -115.412418675330
  CCSD[T] energy                     -115.420433740991
  CCSD-T energy                      -115.419994942764
 !CCSD(T) total energy               -115.420144466252

 Timing summary (sec):

 STEP                 CPU(USER)    SYS     CPU(TOT)    WALL
 Transformation          0.02      0.00      0.02      0.02
 CCSD iterations         0.64      0.04      0.68      0.71
 Triples                 0.17      0.00      0.17      0.17

 Program statistics:

 Available memory in ccsd:               999999704
 Min. memory needed in ccsd:                136801
 Max. memory used in ccsd:                  163198
 Max. memory used in cckext:                182024 (20 integral passes)



 **********************************************************************************************************************************
 DATASETS  * FILE   NREC   LENGTH (MB)   RECORD NAMES
              1      20       10.56       500      610      700      900      950      970     1000      129      960     1100   
                                          VAR    BASINP    GEOM    SYMINP    ZMAT    AOBASIS   BASIS     P2S    ABASIS      S 
                                         1400     1410     1200     1210     1080     1600     1650     1300     1700     1380   
                                           T        V       H0       H01     AOSYM     SMH    MOLCAS    ERIS     OPER     JKOP   

              2       3        0.39       700     1000     2100   
                                         GEOM     BASIS     RHF  

 PROGRAMS   *        TOTAL   CCSD(T)       RHF       INT
 CPU TIMES  *         1.09      0.83      0.07      0.15
 REAL TIME  *         1.40 SEC
 DISK USED  *        25.03 MB      
 GA USED    *         0.00 MB       (max)       0.00 MB       (current)
 **********************************************************************************************************************************

        CCSD(T)         RHF-SCF 
   -115.42014447   -115.04919837
 **********************************************************************************************************************************
 Variable memory released
