
 Working directory              : /scratch/mel64643/tmp/40073201/
 Global scratch directory       : /scratch/mel64643/tmp/40073201/
 Wavefunction directory         : /home/mel64643/wfu/
 Main file repository           : /scratch/mel64643/tmp/40073201/

 id        : ccgc

 Nodes     nprocs
 a1-8         3
 Distribution of processes:   nprocs(total)=    4   nprocs(compute)=    3   nprocs(helper)=    1
 GA implementation: MPI file
 GA implementation (serial work in mppx): MPI file

 Using customized tuning parameters: mindgm=1; mindgv=20; mindgc=4; mindgr=1; noblas=0; minvec=7
 default implementation of scratch files=sf  


 Variables initialized (1015), CPU time= 0.00 sec
 ***,Optimization of min3
 memory,1000,m
 gthresh,energy=1.0d-12,orbital=1.0d-10,oneint=1.0d-16,twoint=1.0d-16,optgrad=1.0d-6,compress=1.0d-13
 geomtyp=xyz
 
  bohr
  geometry = {
  6
  arbitrary comment
  C   -1.3708692442   -0.0207204623   -0.0024734554
  O    1.3054856710    0.1195731303   -0.0085470489
  H   -2.0792305501    1.9088644104    0.0038250834
  H   -2.1112707414   -0.9815421533    1.6815362119
  H   -2.1090994549   -0.9789935982   -1.6810743291
  H    1.9412601596   -1.5773134468    0.0067251281
 }
 
 basis=cc-pvdz
 {rhf;maxit,200}
 {ccsd(t);maxit,200}
 Commands initialized (818), CPU time= 0.01 sec, 672 directives.
 Default parameters read. Elapsed time= 0.10 sec

 Checking input...
 Passed
1


                                         ***  PROGRAM SYSTEM MOLPRO  ***
                                       Copyright, TTI GmbH Stuttgart, 2015
                                    Version 2022.1 linked Mar  4 2022 00:40:14


 **********************************************************************************************************************************
 LABEL *   Optimization of min3                                                          
  64 bit mpp version                                                                     DATE: 07-Aug-25          TIME: 21:24:35  
 **********************************************************************************************************************************

 SHA1:             31073afc4d8441e10870424e0d77336a33bc4286
 **********************************************************************************************************************************

 Memory per process:      1000 MW
 Total memory per node:   3000 MW

 GA preallocation disabled
 GA check disabled

 Variable memory set to 1000.0 MW


 THRESHOLDS:

 ZERO    =  1.00D-12  ONEINT  =  1.00D-16  TWOINT  =  1.00D-16  PREFAC  =  1.00D-14  XXXXXX  =  1.00D-09  EORDER  =  1.00D-04
 ENERGY  =  1.00D-12  ETEST   =  0.00D+00  EDENS   =  0.00D+00  THRDEDEF=  1.00D-06  GRADIENT=  1.00D-05  STEP    =  1.00D-03
 ORBITAL =  1.00D-10  CIVEC   =  1.00D-05  COEFF   =  1.00D-04  PRINTCI =  5.00D-02  PUNCHCI =  9.90D+01  OPTGRAD =  1.00D-06
 OPTENERG=  1.00D-06  OPTSTEP =  3.00D-04  THRGRAD =  1.00D-10  COMPRESS=  1.00D-13  VARMIN  =  1.00D-07  VARMAX  =  1.00D-03
 THRDOUB =  0.00D+00  THRDIV  =  1.00D-05  THRRED  =  1.00D-07  THRPSP  =  1.00D+00  THRDC   =  1.00D-10  THRCS   =  1.00D-10
 THRNRM  =  1.00D-08  THREQ   =  0.00D+00  THRDE   =  1.00D+00  THRREF  =  1.00D-05  SPARFAC =  1.00D+00  THRDLP  =  1.00D-07
 THRDIA  =  1.00D-10  THRDLS  =  1.00D-07  THRGPS  =  0.00D+00  THRKEX  =  0.00D+00  THRDIS  =  2.00D-01  THRVAR  =  1.00D-10
 THRLOC  =  1.00D-06  THRGAP  =  1.00D-06  THRLOCT = -1.00D+00  THRGAPT = -1.00D+00  THRORB  =  1.00D-06  THRMLTP =  0.00D+00
 THRCPQCI=  1.00D-10  KEXTA   =  0.00D+00  THRCOARS=  0.00D+00  SYMTOL  =  1.00D-06  GRADTOL =  1.00D-06  THROVL  =  1.00D-08
 THRORTH =  1.00D-08  THRDLOVL= -1.00D+00  GRID    =  1.00D-06  GRIDMAX =  1.00D-03  DTMAX   =  0.00D+00  THROCCDE=  1.00D-01
 THROCCDE=  1.00D-01  THRPRINT=  2.50D-01

 SETTING GEOMTYP        =    XYZ
 ZUNIT=BOHR

 SETTING BASIS          =    CC-PVDZ


 Recomputing integrals since basis changed


 Using spherical harmonics

 Library entry C      S cc-pVDZ              selected for orbital group  1
 Library entry C      P cc-pVDZ              selected for orbital group  1
 Library entry C      D cc-pVDZ              selected for orbital group  1
 Library entry O      S cc-pVDZ              selected for orbital group  2
 Library entry O      P cc-pVDZ              selected for orbital group  2
 Library entry O      D cc-pVDZ              selected for orbital group  2
 Library entry H      S cc-pVDZ              selected for orbital group  3
 Library entry H      P cc-pVDZ              selected for orbital group  3


 PROGRAM * SEWARD (Integral evaluation for generally contracted gaussian basis sets)     Author: Roland Lindh, 1990

 Geometry written to block  1 of record 700


 Point group  C1  



 ATOMIC COORDINATES

 NR  ATOM    CHARGE       X              Y              Z

   1  C       6.00   -1.370869244   -0.020720462   -0.002473455
   2  O       8.00    1.305485671    0.119573130   -0.008547049
   3  H       1.00   -2.079230550    1.908864410    0.003825083
   4  H       1.00   -2.111270741   -0.981542153    1.681536212
   5  H       1.00   -2.109099455   -0.978993598   -1.681074329
   6  H       1.00    1.941260160   -1.577313447    0.006725128

 Bond lengths in Bohr (Angstrom)

 1-2  2.680036345  1-3  2.055508013  1-4  2.075394242  1-5  2.069051024  2-6  1.812144171
     ( 1.418214158)     ( 1.087727997)     ( 1.098251336)     ( 1.094894650)     ( 0.958945398)

 Bond angles

  1-2-6  107.53701035   2-1-3  107.15807563   2-1-4  112.47844403   2-1-5  112.25395152

  3-1-4  108.00911143   3-1-5  108.31864401   4-1-5  108.45676679

 NUCLEAR CHARGE:                   18
 NUMBER OF PRIMITIVE AOS:          82
 NUMBER OF SYMMETRY AOS:           80
 NUMBER OF CONTRACTIONS:           48   (   48A   )
 NUMBER OF INNER CORE ORBITALS:     0   (    0A   )
 NUMBER OF OUTER CORE ORBITALS:     2   (    2A   )
 NUMBER OF VALENCE ORBITALS:       12   (   12A   )


 NUCLEAR REPULSION ENERGY   40.33677713

 Eigenvalues of metric

         1 0.967E-02 0.176E-01 0.368E-01 0.376E-01 0.380E-01 0.476E-01 0.481E-01 0.516E-01


 Contracted 2-electron integrals neglected if value below      1.0D-16
 AO integral compression algorithm  1   Integral accuracy      1.0D-16

     7.340 MB (compressed) written to integral file (100.0%)

     Node minimum: 2.359 MB, node maximum: 2.621 MB


 NUMBER OF SORTED TWO-ELECTRON INTEGRALS:     231084.     BUFFER LENGTH:  32768
 NUMBER OF SEGMENTS:   1  SEGMENT LENGTH:     231084      RECORD LENGTH: 524288

 Memory used in sort:       0.79 MW

 SORT1 READ      832256. AND WROTE      227683. INTEGRALS IN      1 RECORDS. CPU TIME:     0.01 SEC, REAL TIME:     0.03 SEC
 SORT2 READ      682150. AND WROTE      692076. INTEGRALS IN     27 RECORDS. CPU TIME:     0.01 SEC, REAL TIME:     0.02 SEC

 Node minimum:      230300.  Node maximum:      231084. integrals

 OPERATOR DM      FOR CENTER  0  COORDINATES:    0.000000    0.000000    0.000000


 **********************************************************************************************************************************
 DATASETS  * FILE   NREC   LENGTH (MB)   RECORD NAMES
              1      18       28.73       500      610      700      900      950      970     1000      129      960     1100   
                                          VAR    BASINP    GEOM    SYMINP    ZMAT    AOBASIS   BASIS     P2S    ABASIS      S 
                                         1400     1410     1200     1210     1080     1600     1650     1700   
                                           T        V       H0       H01     AOSYM     SMH    MOLCAS    OPER   

 PROGRAMS   *        TOTAL       INT
 CPU TIMES  *         0.44      0.30
 REAL TIME  *         1.57 SEC
 DISK USED  *        29.07 MB (local),      104.72 MB (total)
 GA USED    *         0.00 MB       (max)       0.00 MB       (current)
 **********************************************************************************************************************************


 Program * Restricted Hartree-Fock

 Orbital guess generated from atomic densities. Full valence occupancy:   14

 Initial occupancy:   9

 NELEC=   18   SYM=1   MS2= 0   THRE=1.0D-12   THRD=1.0D-10   THRG=1.0D-10  HFMA2=F  DIIS_START=2   DIIS_MAX=10   DIIS_INCORE=F

 Level shifts:    0.00 (CLOSED)    0.00 (OPEN)    0.30 (GAP_MIN)

 ITER           ETOT              DE          GRAD        DDIFF     DIIS  NEXP   TIME(IT)  TIME(TOT)  DIAG
   1     -115.01436372    -115.01436372     0.00D+00     0.16D+00     0     0       0.00      0.00    start
   2     -115.04270709      -0.02834338     0.10D-01     0.20D-01     1     0       0.01      0.01    diag
   3     -115.04870424      -0.00599715     0.48D-02     0.64D-02     2     0       0.00      0.01    diag
   4     -115.04916716      -0.00046291     0.10D-02     0.20D-02     3     0       0.00      0.01    diag
   5     -115.04918804      -0.00002089     0.18D-03     0.43D-03     4     0       0.01      0.02    diag
   6     -115.04918883      -0.00000079     0.32D-04     0.93D-04     5     0       0.01      0.03    diag
   7     -115.04918886      -0.00000003     0.67D-05     0.15D-04     6     0       0.00      0.03    diag
   8     -115.04918886      -0.00000000     0.22D-05     0.50D-05     7     0       0.00      0.03    fixocc
   9     -115.04918886      -0.00000000     0.45D-06     0.14D-05     8     0       0.00      0.03    diag
  10     -115.04918886      -0.00000000     0.72D-07     0.23D-06     9     0       0.01      0.04    diag/orth
  11     -115.04918886      -0.00000000     0.17D-07     0.47D-07     9     0       0.00      0.04    diag
  12     -115.04918886      -0.00000000     0.43D-08     0.14D-07     9     0       0.00      0.04    diag
  13     -115.04918886       0.00000000     0.67D-09     0.19D-08     9     0       0.00      0.04    diag
  14     -115.04918886       0.00000000     0.15D-09     0.39D-09     9     0       0.00      0.04    diag
  15     -115.04918886      -0.00000000     0.61D-10     0.11D-09     9     0       0.01      0.05    diag
  16     -115.04918886       0.00000000     0.15D-10     0.35D-10     9     0       0.00      0.05    diag
  17     -115.04918886       0.00000000     0.33D-11     0.57D-11     0     0       0.00      0.05    diag

 Final occupancy:   9

 !RHF STATE 1.1 Energy               -115.049188863316
  RHF One-electron energy            -236.932650977230
  RHF Two-electron energy              81.546684983212
  RHF Kinetic energy                  114.944368466313
  RHF Nuclear energy                   40.336777130701
  RHF Virial quotient                  -1.000911922858

 !RHF STATE 1.1 Dipole moment          -0.38869754    -0.59309279     0.00610101
 Dipole moment /Debye                  -0.98797060    -1.50749151     0.01550721

 Orbital energies:

           1.1          2.1          3.1          4.1          5.1          6.1          7.1          8.1          9.1         10.1
    -20.550102   -11.274824    -1.351000    -0.921160    -0.683525    -0.613292    -0.586150    -0.496967    -0.442619     0.184539

          11.1
      0.224257


 HOMO      9.1    -0.442619 =     -12.0443eV
 LUMO     10.1     0.184539 =       5.0216eV
 LUMO-HOMO         0.627158 =      17.0658eV

 Orbitals saved in record  2100.2


 **********************************************************************************************************************************
 DATASETS  * FILE   NREC   LENGTH (MB)   RECORD NAMES
              1      18       28.73       500      610      700      900      950      970     1000      129      960     1100   
                                          VAR    BASINP    GEOM    SYMINP    ZMAT    AOBASIS   BASIS     P2S    ABASIS      S 
                                         1400     1410     1200     1210     1080     1600     1650     1700   
                                           T        V       H0       H01     AOSYM     SMH    MOLCAS    OPER   

              2       4        0.47       700     1000      520     2100   
                                         GEOM     BASIS   MCVARS     RHF  

 PROGRAMS   *        TOTAL   RHF-SCF       INT
 CPU TIMES  *         0.49      0.05      0.30
 REAL TIME  *         1.84 SEC
 DISK USED  *        29.40 MB (local),      105.70 MB (total)
 GA USED    *         0.00 MB       (max)       0.00 MB       (current)
 **********************************************************************************************************************************


 PROGRAM * CCSD (Closed-shell coupled cluster)     Authors: C. Hampel, H.-J. Werner, 1991, M. Deegan, P.J. Knowles, 1992


 Convergence thresholds:  THRVAR = 1.00D-08  THRDEN = 1.00D-12

 CCSD(T)     terms to be evaluated (factor= 1.000)


 Number of core orbitals:           2 (   2 )
 Number of closed-shell orbitals:   7 (   7 )
 Number of external orbitals:      39 (  39 )

 Molecular orbitals read from record     2100.2  Type=RHF/CANONICAL  

 Number of N-1 electron functions:               7
 Number of N-2 electron functions:              28
 Number of singly external CSFs:               273
 Number of doubly external CSFs:             37401
 Total number of CSFs:                       37675

 Length of J-op  integral file:               0.00 MB
 Length of K-op  integral file:               0.16 MB
 Length of 3-ext integral record:             0.00 MB

 Memory could be reduced to 0.73 Mwords without degradation in triples

 Integral transformation finished. Total CPU:   0.02 sec, npass=  1  Memory used:   0.66 MW

 Reference energy:                   -115.04918886

 MP2 singlet pair energy:              -0.21860333
 MP2 triplet pair energy:              -0.11982917
 MP2 correlation energy:               -0.33843251
 MP2 total energy:                   -115.38762137

 SCS-MP2 correlation energy:           -0.33688438   (PS=  1.200000  PT=  0.333333)
 SCS-MP2 total energy:               -115.38607324

 ITER.      SQ.NORM     CORR.ENERGY   TOTAL ENERGY   ENERGY CHANGE        DEN1      VAR(S)    VAR(P)  DIIS     TIME  TIME/IT
   1      1.10729751    -0.36124104  -115.41042991    -0.02280854    -0.01413604  0.91D-03  0.17D-02  1  1     0.05     0.04
   2      1.11581784    -0.36318515  -115.41237402    -0.00194411    -0.00924492  0.20D-04  0.16D-03  2  2     0.07     0.04
   3      1.11769492    -0.36331226  -115.41250112    -0.00012710    -0.00120126  0.95D-05  0.86D-05  3  3     0.09     0.05
   4      1.11820888    -0.36331090  -115.41249976     0.00000136    -0.00025455  0.33D-06  0.67D-06  4  4     0.11     0.04
   5      1.11830676    -0.36331130  -115.41250017    -0.00000041    -0.00003596  0.99D-07  0.49D-07  5  5     0.13     0.04
   6      1.11832577    -0.36330996  -115.41249882     0.00000134    -0.00000437  0.16D-07  0.41D-08  6  6     0.15     0.04
   7      1.11833049    -0.36330954  -115.41249840     0.00000042    -0.00000035  0.20D-08  0.71D-09  6  1     0.18     0.04
   8      1.11833175    -0.36330964  -115.41249851    -0.00000010     0.00000075  0.26D-09  0.71D-10  6  3     0.20     0.04
   9      1.11833281    -0.36330952  -115.41249838     0.00000012    -0.00000038  0.13D-10  0.10D-10  6  2     0.22     0.04
  10      1.11833274    -0.36330952  -115.41249838    -0.00000000     0.00000007  0.11D-11  0.87D-12  6  5     0.24     0.04
  11      1.11833277    -0.36330952  -115.41249838     0.00000000    -0.00000000  0.19D-12  0.50D-13  6  4     0.26     0.04
  12      1.11833276    -0.36330952  -115.41249838    -0.00000000     0.00000001  0.19D-13  0.10D-13  6  1     0.28     0.04
  13      1.11833276    -0.36330952  -115.41249838    -0.00000000    -0.00000000  0.24D-14  0.94D-15  6  6     0.30     0.04
  14      1.11833276    -0.36330952  -115.41249838     0.00000000    -0.00000000  0.23D-15  0.12D-15  6  3     0.32     0.04
  15      1.11833276    -0.36330952  -115.41249838    -0.00000000    -0.00000000  0.27D-16  0.17D-16  6  2     0.34     0.04
  16      1.11833276    -0.36330952  -115.41249838    -0.00000000    -0.00000000  0.63D-17  0.17D-17  6  5     0.36     0.04
  17      1.11833276    -0.36330952  -115.41249838    -0.00000000    -0.00000000  0.72D-18  0.27D-18  6  4     0.38     0.04
  18      1.11833276    -0.36330952  -115.41249838     0.00000000    -0.00000000  0.13D-18  0.50D-19  6  1     0.40     0.04
  19      1.11833276    -0.36330952  -115.41249838    -0.00000000    -0.00000000  0.19D-19  0.55D-20  6  6     0.42     0.05
  20      1.11833276    -0.36330952  -115.41249838     0.00000000     0.00000000  0.37D-20  0.94D-21  6  3     0.44     0.05

 Norm of t1 vector:      0.04160238      S-energy:    -0.00000000      T1 diagnostic:  0.00786211
                                                                       D1 diagnostic:  0.01736186
                                                                       D2 diagnostic:  0.13413003 (internal)


 Total CPU time for triples:      0.08 sec


 RESULTS
 =======

  Reference energy                   -115.049188863316
  CCSD singlet pair energy             -0.254547268233
  CCSD triplet pair energy             -0.108762253047
  CCSD correlation energy              -0.363309521280

  Triples (T) contribution             -0.007731512702
  Total correlation energy             -0.371041033982

  CCSD total energy                  -115.412498384596
  CCSD[T] energy                     -115.420519377519
  CCSD-T energy                      -115.420080230110
 !CCSD(T) total energy               -115.420229897298

 Timing summary (sec):

 STEP                 CPU(USER)    SYS     CPU(TOT)    WALL
 Transformation          0.02      0.01      0.03      0.04
 CCSD iterations         0.42      0.07      0.49      1.05
 Triples                 0.08      0.00      0.08      0.09

 Program statistics:

 Available memory in ccsd:               999999795
 Min. memory needed in ccsd:                136177
 Max. memory used in ccsd:                  162910
 Max. memory used in cckext:                178997 (20 integral passes)



 **********************************************************************************************************************************
 DATASETS  * FILE   NREC   LENGTH (MB)   RECORD NAMES
              1      19       31.13       500      610      700      900      950      970     1000      129      960     1100   
                                          VAR    BASINP    GEOM    SYMINP    ZMAT    AOBASIS   BASIS     P2S    ABASIS      S 
                                         1400     1410     1200     1210     1080     1600     1650     1700     1380   
                                           T        V       H0       H01     AOSYM     SMH    MOLCAS    OPER     JKOP   

              2       4        0.47       700     1000      520     2100   
                                         GEOM     BASIS   MCVARS     RHF  

 PROGRAMS   *        TOTAL   CCSD(T)   RHF-SCF       INT
 CPU TIMES  *         1.05      0.56      0.05      0.30
 REAL TIME  *         3.09 SEC
 DISK USED  *        35.56 MB (local),      116.36 MB (total)
 SF USED    *         5.97 MB
 GA USED    *         0.00 MB       (max)       0.00 MB       (current)
 **********************************************************************************************************************************

 CCSD(T)/cc-pVDZ energy=   -115.420229897298

         CCSD(T)         RHF-SCF
   -115.42022990   -115.04918886
 **********************************************************************************************************************************
 Molpro calculation terminated
