
 Working directory              : /scratch/mel64643/tmp/40073343/
 Global scratch directory       : /scratch/mel64643/tmp/40073343/
 Wavefunction directory         : /home/mel64643/wfu/
 Main file repository           : /scratch/mel64643/tmp/40073343/

 id        : ccgc

 Nodes     nprocs
 a1-8         3
 Distribution of processes:   nprocs(total)=    4   nprocs(compute)=    3   nprocs(helper)=    1
 GA implementation: MPI file
 GA implementation (serial work in mppx): MPI file

 Using customized tuning parameters: mindgm=1; mindgv=20; mindgc=4; mindgr=1; noblas=0; minvec=7
 default implementation of scratch files=sf  


 Variables initialized (1015), CPU time= 0.01 sec
 ***,Optimization of min3
 memory,1000,m
 gthresh,energy=1.0d-12,orbital=1.0d-10,oneint=1.0d-16,twoint=1.0d-16,optgrad=1.0d-6,compress=1.0d-13
 geomtyp=xyz
 
  bohr
  geometry = {
  6
  arbitrary comment
  C   -1.3733234267   -0.0265091084    0.0000003643
  O    1.3127895313    0.1125826640    0.0000003983
  H   -2.0803342333    1.9207316874   -0.0000803662
  H   -2.1100272603   -0.9837813031    1.6914598894
  H   -2.1100204912   -0.9839132756   -1.6913874606
  H    1.9371917203   -1.5692427843   -0.0000012352
 }
 
 basis=cc-pvdz
 {rhf;maxit,200}
 {ccsd(t);maxit,200}
 Commands initialized (818), CPU time= 0.01 sec, 672 directives.
 Default parameters read. Elapsed time= 0.09 sec

 Checking input...
 Passed
1


                                         ***  PROGRAM SYSTEM MOLPRO  ***
                                       Copyright, TTI GmbH Stuttgart, 2015
                                    Version 2022.1 linked Mar  4 2022 00:40:14


 **********************************************************************************************************************************
 LABEL *   Optimization of min3                                                          
  64 bit mpp version                                                                     DATE: 07-Aug-25          TIME: 21:26:04  
 **********************************************************************************************************************************

 SHA1:             31073afc4d8441e10870424e0d77336a33bc4286
 **********************************************************************************************************************************

 Memory per process:      1000 MW
 Total memory per node:   3000 MW

 GA preallocation disabled
 GA check disabled

 Variable memory set to 1000.0 MW


 THRESHOLDS:

 ZERO    =  1.00D-12  ONEINT  =  1.00D-16  TWOINT  =  1.00D-16  PREFAC  =  1.00D-14  XXXXXX  =  1.00D-09  EORDER  =  1.00D-04
 ENERGY  =  1.00D-12  ETEST   =  0.00D+00  EDENS   =  0.00D+00  THRDEDEF=  1.00D-06  GRADIENT=  1.00D-05  STEP    =  1.00D-03
 ORBITAL =  1.00D-10  CIVEC   =  1.00D-05  COEFF   =  1.00D-04  PRINTCI =  5.00D-02  PUNCHCI =  9.90D+01  OPTGRAD =  1.00D-06
 OPTENERG=  1.00D-06  OPTSTEP =  3.00D-04  THRGRAD =  1.00D-10  COMPRESS=  1.00D-13  VARMIN  =  1.00D-07  VARMAX  =  1.00D-03
 THRDOUB =  0.00D+00  THRDIV  =  1.00D-05  THRRED  =  1.00D-07  THRPSP  =  1.00D+00  THRDC   =  1.00D-10  THRCS   =  1.00D-10
 THRNRM  =  1.00D-08  THREQ   =  0.00D+00  THRDE   =  1.00D+00  THRREF  =  1.00D-05  SPARFAC =  1.00D+00  THRDLP  =  1.00D-07
 THRDIA  =  1.00D-10  THRDLS  =  1.00D-07  THRGPS  =  0.00D+00  THRKEX  =  0.00D+00  THRDIS  =  2.00D-01  THRVAR  =  1.00D-10
 THRLOC  =  1.00D-06  THRGAP  =  1.00D-06  THRLOCT = -1.00D+00  THRGAPT = -1.00D+00  THRORB  =  1.00D-06  THRMLTP =  0.00D+00
 THRCPQCI=  1.00D-10  KEXTA   =  0.00D+00  THRCOARS=  0.00D+00  SYMTOL  =  1.00D-06  GRADTOL =  1.00D-06  THROVL  =  1.00D-08
 THRORTH =  1.00D-08  THRDLOVL= -1.00D+00  GRID    =  1.00D-06  GRIDMAX =  1.00D-03  DTMAX   =  0.00D+00  THROCCDE=  1.00D-01
 THROCCDE=  1.00D-01  THRPRINT=  2.50D-01

 SETTING GEOMTYP        =    XYZ
 ZUNIT=BOHR

 SETTING BASIS          =    CC-PVDZ


 Recomputing integrals since basis changed


 Using spherical harmonics

 Library entry C      S cc-pVDZ              selected for orbital group  1
 Library entry C      P cc-pVDZ              selected for orbital group  1
 Library entry C      D cc-pVDZ              selected for orbital group  1
 Library entry O      S cc-pVDZ              selected for orbital group  2
 Library entry O      P cc-pVDZ              selected for orbital group  2
 Library entry O      D cc-pVDZ              selected for orbital group  2
 Library entry H      S cc-pVDZ              selected for orbital group  3
 Library entry H      P cc-pVDZ              selected for orbital group  3


 PROGRAM * SEWARD (Integral evaluation for generally contracted gaussian basis sets)     Author: Roland Lindh, 1990

 Geometry written to block  1 of record 700


 Point group  C1  



 ATOMIC COORDINATES

 NR  ATOM    CHARGE       X              Y              Z

   1  C       6.00   -1.373323427   -0.026509108    0.000000364
   2  O       8.00    1.312789531    0.112582664    0.000000398
   3  H       1.00   -2.080334233    1.920731687   -0.000080366
   4  H       1.00   -2.110027260   -0.983781303    1.691459889
   5  H       1.00   -2.110020491   -0.983913276   -1.691387461
   6  H       1.00    1.937191720   -1.569242784   -0.000001235

 Bond lengths in Bohr (Angstrom)

 1-2  2.689711759  1-3  2.071620381  1-4  2.078494147  1-5  2.078494185  2-6  1.793994128
     ( 1.423334167)     ( 1.096254295)     ( 1.099891735)     ( 1.099891756)     ( 0.949340809)

 Bond angles

  1-2-6  107.40394570   2-1-3  106.99088786   2-1-4  112.19646316   2-1-5  112.19646592

  3-1-4  108.17830245   3-1-5  108.17814341   4-1-5  108.93255586

 NUCLEAR CHARGE:                   18
 NUMBER OF PRIMITIVE AOS:          82
 NUMBER OF SYMMETRY AOS:           80
 NUMBER OF CONTRACTIONS:           48   (   48A   )
 NUMBER OF INNER CORE ORBITALS:     0   (    0A   )
 NUMBER OF OUTER CORE ORBITALS:     2   (    2A   )
 NUMBER OF VALENCE ORBITALS:       12   (   12A   )


 NUCLEAR REPULSION ENERGY   40.25671853

 Eigenvalues of metric

         1 0.971E-02 0.177E-01 0.371E-01 0.380E-01 0.381E-01 0.478E-01 0.488E-01 0.519E-01


 Contracted 2-electron integrals neglected if value below      1.0D-16
 AO integral compression algorithm  1   Integral accuracy      1.0D-16

     6.816 MB (compressed) written to integral file ( 98.2%)

     Node minimum: 2.097 MB, node maximum: 2.359 MB


 NUMBER OF SORTED TWO-ELECTRON INTEGRALS:     231084.     BUFFER LENGTH:  32768
 NUMBER OF SEGMENTS:   1  SEGMENT LENGTH:     231084      RECORD LENGTH: 524288

 Memory used in sort:       0.79 MW

 SORT1 READ      832256. AND WROTE      227682. INTEGRALS IN      1 RECORDS. CPU TIME:     0.01 SEC, REAL TIME:     0.01 SEC
 SORT2 READ      682148. AND WROTE      692076. INTEGRALS IN     24 RECORDS. CPU TIME:     0.01 SEC, REAL TIME:     0.02 SEC

 Node minimum:      230300.  Node maximum:      231084. integrals

 OPERATOR DM      FOR CENTER  0  COORDINATES:    0.000000    0.000000    0.000000


 **********************************************************************************************************************************
 DATASETS  * FILE   NREC   LENGTH (MB)   RECORD NAMES
              1      18       28.73       500      610      700      900      950      970     1000      129      960     1100   
                                          VAR    BASINP    GEOM    SYMINP    ZMAT    AOBASIS   BASIS     P2S    ABASIS      S 
                                         1400     1410     1200     1210     1080     1600     1650     1700   
                                           T        V       H0       H01     AOSYM     SMH    MOLCAS    OPER   

 PROGRAMS   *        TOTAL       INT
 CPU TIMES  *         0.37      0.25
 REAL TIME  *         0.94 SEC
 DISK USED  *        29.07 MB (local),      104.31 MB (total)
 GA USED    *         0.00 MB       (max)       0.00 MB       (current)
 **********************************************************************************************************************************


 Program * Restricted Hartree-Fock

 Orbital guess generated from atomic densities. Full valence occupancy:   14

 Initial occupancy:   9

 NELEC=   18   SYM=1   MS2= 0   THRE=1.0D-12   THRD=1.0D-10   THRG=1.0D-10  HFMA2=F  DIIS_START=2   DIIS_MAX=10   DIIS_INCORE=F

 Level shifts:    0.00 (CLOSED)    0.00 (OPEN)    0.30 (GAP_MIN)

 ITER           ETOT              DE          GRAD        DDIFF     DIIS  NEXP   TIME(IT)  TIME(TOT)  DIAG
   1     -115.01435067    -115.01435067     0.00D+00     0.16D+00     0     0       0.00      0.00    start
   2     -115.04262165      -0.02827098     0.10D-01     0.21D-01     1     0       0.01      0.01    diag
   3     -115.04867276      -0.00605111     0.49D-02     0.64D-02     2     0       0.00      0.01    diag
   4     -115.04912898      -0.00045622     0.10D-02     0.20D-02     3     0       0.00      0.01    diag
   5     -115.04914912      -0.00002014     0.18D-03     0.43D-03     4     0       0.00      0.01    diag
   6     -115.04914986      -0.00000074     0.31D-04     0.90D-04     5     0       0.01      0.02    diag
   7     -115.04914989      -0.00000003     0.62D-05     0.14D-04     6     0       0.00      0.02    diag
   8     -115.04914989      -0.00000000     0.20D-05     0.45D-05     7     0       0.01      0.03    fixocc
   9     -115.04914989      -0.00000000     0.42D-06     0.13D-05     8     0       0.00      0.03    diag
  10     -115.04914989      -0.00000000     0.61D-07     0.21D-06     9     0       0.00      0.03    diag/orth
  11     -115.04914989      -0.00000000     0.12D-07     0.36D-07     9     0       0.00      0.03    diag
  12     -115.04914989       0.00000000     0.32D-08     0.97D-08     9     0       0.00      0.03    diag
  13     -115.04914989      -0.00000000     0.58D-09     0.16D-08     9     0       0.01      0.04    diag
  14     -115.04914989      -0.00000000     0.14D-09     0.36D-09     9     0       0.00      0.04    diag
  15     -115.04914989      -0.00000000     0.53D-10     0.96D-10     9     0       0.00      0.04    diag
  16     -115.04914989      -0.00000000     0.13D-10     0.26D-10     0     0       0.00      0.04    diag

 Final occupancy:   9

 !RHF STATE 1.1 Energy               -115.049149888293
  RHF One-electron energy            -236.772149470887
  RHF Two-electron energy              81.466281049274
  RHF Kinetic energy                  114.931733894270
  RHF Nuclear energy                   40.256718533320
  RHF Virial quotient                  -1.001021615093

 !RHF STATE 1.1 Dipole moment          -0.39667430    -0.59082789    -0.00000278
 Dipole moment /Debye                  -1.00824551    -1.50173470    -0.00000707

 Orbital energies:

           1.1          2.1          3.1          4.1          5.1          6.1          7.1          8.1          9.1         10.1
    -20.549373   -11.277127    -1.351603    -0.920470    -0.683810    -0.612821    -0.584171    -0.497015    -0.443404     0.184826

          11.1
      0.224852


 HOMO      9.1    -0.443404 =     -12.0656eV
 LUMO     10.1     0.184826 =       5.0294eV
 LUMO-HOMO         0.628230 =      17.0950eV

 Orbitals saved in record  2100.2


 **********************************************************************************************************************************
 DATASETS  * FILE   NREC   LENGTH (MB)   RECORD NAMES
              1      18       28.73       500      610      700      900      950      970     1000      129      960     1100   
                                          VAR    BASINP    GEOM    SYMINP    ZMAT    AOBASIS   BASIS     P2S    ABASIS      S 
                                         1400     1410     1200     1210     1080     1600     1650     1700   
                                           T        V       H0       H01     AOSYM     SMH    MOLCAS    OPER   

              2       4        0.47       700     1000      520     2100   
                                         GEOM     BASIS   MCVARS     RHF  

 PROGRAMS   *        TOTAL   RHF-SCF       INT
 CPU TIMES  *         0.41      0.04      0.25
 REAL TIME  *         1.18 SEC
 DISK USED  *        29.40 MB (local),      105.30 MB (total)
 GA USED    *         0.00 MB       (max)       0.00 MB       (current)
 **********************************************************************************************************************************


 PROGRAM * CCSD (Closed-shell coupled cluster)     Authors: C. Hampel, H.-J. Werner, 1991, M. Deegan, P.J. Knowles, 1992


 Convergence thresholds:  THRVAR = 1.00D-08  THRDEN = 1.00D-12

 CCSD(T)     terms to be evaluated (factor= 1.000)


 Number of core orbitals:           2 (   2 )
 Number of closed-shell orbitals:   7 (   7 )
 Number of external orbitals:      39 (  39 )

 Molecular orbitals read from record     2100.2  Type=RHF/CANONICAL  

 Number of N-1 electron functions:               7
 Number of N-2 electron functions:              28
 Number of singly external CSFs:               273
 Number of doubly external CSFs:             37401
 Total number of CSFs:                       37675

 Length of J-op  integral file:               0.00 MB
 Length of K-op  integral file:               0.16 MB
 Length of 3-ext integral record:             0.00 MB

 Memory could be reduced to 0.73 Mwords without degradation in triples

 Integral transformation finished. Total CPU:   0.02 sec, npass=  1  Memory used:   0.66 MW

 Reference energy:                   -115.04914989

 MP2 singlet pair energy:              -0.21865408
 MP2 triplet pair energy:              -0.11974979
 MP2 correlation energy:               -0.33840387
 MP2 total energy:                   -115.38755376

 SCS-MP2 correlation energy:           -0.33689587   (PS=  1.200000  PT=  0.333333)
 SCS-MP2 total energy:               -115.38604576

 ITER.      SQ.NORM     CORR.ENERGY   TOTAL ENERGY   ENERGY CHANGE        DEN1      VAR(S)    VAR(P)  DIIS     TIME  TIME/IT
   1      1.10746666    -0.36127249  -115.41042238    -0.02286862    -0.01417871  0.91D-03  0.17D-02  1  1     0.04     0.12
   2      1.11602663    -0.36322147  -115.41237135    -0.00194897    -0.00926182  0.20D-04  0.16D-03  2  2     0.06     0.08
   3      1.11791730    -0.36335064  -115.41250053    -0.00012918    -0.00120659  0.95D-05  0.87D-05  3  3     0.07     0.07
   4      1.11843533    -0.36334910  -115.41249899     0.00000154    -0.00025618  0.32D-06  0.68D-06  4  4     0.09     0.06
   5      1.11853401    -0.36334951  -115.41249940    -0.00000041    -0.00003626  0.96D-07  0.50D-07  5  5     0.11     0.06
   6      1.11855299    -0.36334818  -115.41249807     0.00000133    -0.00000440  0.15D-07  0.41D-08  6  6     0.12     0.05
   7      1.11855757    -0.36334776  -115.41249765     0.00000042    -0.00000034  0.19D-08  0.70D-09  6  1     0.14     0.05
   8      1.11855879    -0.36334786  -115.41249775    -0.00000010     0.00000073  0.26D-09  0.69D-10  6  3     0.16     0.05
   9      1.11855984    -0.36334774  -115.41249763     0.00000012    -0.00000038  0.12D-10  0.10D-10  6  2     0.18     0.05
  10      1.11855977    -0.36334774  -115.41249763    -0.00000000     0.00000007  0.11D-11  0.86D-12  6  5     0.19     0.04
  11      1.11855981    -0.36334774  -115.41249762     0.00000000    -0.00000000  0.17D-12  0.49D-13  6  4     0.21     0.04
  12      1.11855979    -0.36334774  -115.41249763    -0.00000000     0.00000001  0.17D-13  0.93D-14  6  1     0.23     0.04
  13      1.11855979    -0.36334774  -115.41249763    -0.00000000    -0.00000000  0.24D-14  0.88D-15  6  6     0.24     0.04
  14      1.11855979    -0.36334774  -115.41249763     0.00000000    -0.00000000  0.23D-15  0.12D-15  6  3     0.26     0.04
  15      1.11855980    -0.36334774  -115.41249763    -0.00000000    -0.00000000  0.24D-16  0.16D-16  6  2     0.28     0.04
  16      1.11855980    -0.36334774  -115.41249763    -0.00000000    -0.00000000  0.54D-17  0.16D-17  6  5     0.30     0.04
  17      1.11855980    -0.36334774  -115.41249763    -0.00000000    -0.00000000  0.51D-18  0.25D-18  6  4     0.31     0.04
  18      1.11855980    -0.36334774  -115.41249763     0.00000000    -0.00000000  0.47D-19  0.24D-19  6  6     0.33     0.04
  19      1.11855980    -0.36334774  -115.41249763    -0.00000000    -0.00000000  0.16D-20  0.14D-20  6  1     0.35     0.04
  20      1.11855980    -0.36334774  -115.41249763    -0.00000000     0.00000000  0.27D-21  0.19D-21  6  3     0.37     0.04

 Norm of t1 vector:      0.04161165      S-energy:    -0.00000000      T1 diagnostic:  0.00786386
                                                                       D1 diagnostic:  0.01750212
                                                                       D2 diagnostic:  0.13455599 (internal)


 Total CPU time for triples:      0.07 sec


 RESULTS
 =======

  Reference energy                   -115.049149888293
  CCSD singlet pair energy             -0.254664186912
  CCSD triplet pair energy             -0.108683551612
  CCSD correlation energy              -0.363347738525

  Triples (T) contribution             -0.007748184555
  Total correlation energy             -0.371095923080

  CCSD total energy                  -115.412497626818
  CCSD[T] energy                     -115.420537819612
  CCSD-T energy                      -115.420094635322
 !CCSD(T) total energy               -115.420245811373

 Timing summary (sec):

 STEP                 CPU(USER)    SYS     CPU(TOT)    WALL
 Transformation          0.02      0.01      0.03      0.03
 CCSD iterations         0.35      0.06      0.41      0.87
 Triples                 0.07      0.00      0.07      0.08

 Program statistics:

 Available memory in ccsd:               999999795
 Min. memory needed in ccsd:                136177
 Max. memory used in ccsd:                  162910
 Max. memory used in cckext:                178997 (20 integral passes)



 **********************************************************************************************************************************
 DATASETS  * FILE   NREC   LENGTH (MB)   RECORD NAMES
              1      19       31.13       500      610      700      900      950      970     1000      129      960     1100   
                                          VAR    BASINP    GEOM    SYMINP    ZMAT    AOBASIS   BASIS     P2S    ABASIS      S 
                                         1400     1410     1200     1210     1080     1600     1650     1700     1380   
                                           T        V       H0       H01     AOSYM     SMH    MOLCAS    OPER     JKOP   

              2       4        0.47       700     1000      520     2100   
                                         GEOM     BASIS   MCVARS     RHF  

 PROGRAMS   *        TOTAL   CCSD(T)   RHF-SCF       INT
 CPU TIMES  *         0.89      0.48      0.04      0.25
 REAL TIME  *         2.24 SEC
 DISK USED  *        35.56 MB (local),      115.95 MB (total)
 SF USED    *         5.97 MB
 GA USED    *         0.00 MB       (max)       0.00 MB       (current)
 **********************************************************************************************************************************

 CCSD(T)/cc-pVDZ energy=   -115.420245811373

         CCSD(T)         RHF-SCF
   -115.42024581   -115.04914989
 **********************************************************************************************************************************
 Molpro calculation terminated
