 --invoking executable--
/opt/vulcan/opt/vulcan/linux-x86_64/intel-16.0.1/cfour-2.0-hjkzrfqmrmfvexnyvlji4zmpovcjpspy/bin/xinitenv
--executable xinitenv finished with status     0 in        0.17 seconds (walltime).
 --invoking executable--
/opt/vulcan/opt/vulcan/linux-x86_64/intel-16.0.1/cfour-2.0-hjkzrfqmrmfvexnyvlji4zmpovcjpspy/bin/xjoda


   *************************************************************************
         <<<     CCCCCC     CCCCCC   |||     CCCCCC     CCCCCC   >>>
       <<<      CCC        CCC       |||    CCC        CCC         >>>
      <<<      CCC        CCC        |||   CCC        CCC            >>>
    <<<        CCC        CCC        |||   CCC        CCC              >>>
      <<<      CCC        CCC        |||   CCC        CCC            >>>
       <<<      CCC        CCC       |||    CCC        CCC         >>>
         <<<     CCCCCC     CCCCCC   |||     CCCCCC     CCCCCC   >>>
   *************************************************************************

     ****************************************************************
     * CFOUR Coupled-Cluster techniques for Computational Chemistry *
     ****************************************************************
 

   Department of Chemistry                Institut fuer Physikalische Chemie
   University of Texas at Austin          Universitaet Mainz
   Austin, TX  78712, USA                 D-55099 Mainz, Germany
 
                       Version 1.2
 
                     n070                                              
                     Thu Jul 13 13:43:34 EDT 2017                      
                     integer*8 version is running
 
********************************************************************************
*                          Input from ZMAT file                                *
********************************************************************************
CCSD(T) Optimization                                                            
X                                                                               
X 1 r1                                                                          
Bi 2 r2 1 a1                                                                    
Bi 2 r2 1 a1 3 d1                                                               
Bi 2 r3 1 a2 3 d2                                                               
Bi 2 r3 1 a2 3 d3                                                               
                                                                                
r1   =        1.000000000000000                                                 
r2   =        1.543446893943765                                                 
a1   =       90.000000000000000                                                 
d1   =      180.000000000000000                                                 
r3   =        2.450575540646534                                                 
a2   =      113.656606314777491                                                 
d2   =       90.000000000000000                                                 
d3   =      -90.000000000000000                                                 
                                                                                
*CFOUR(VIB=FINDIF                                                               
CALC_LEVEL=CCSD[T]                                                              
CC_PROG=ECC,ABCDTYPE=AOBASIS                                                    
REFERENCE=RHF                                                                   
BASIS=SPECIAL                                                                   
ECP=ON                                                                          
SCF_MAXCYC=500,CC_MAXCYC=500                                                    
SCF_CONV=10,CC_CONV=8                                                           
CONVERGENCE=8,LINEQ_CONV=8                                                      
MEMORY=30,MEM_UNIT=GB                                                           
MULTIPLICITY=1,CHARGE=0                                                         
ANHARM=VPT2                                                                     
ANH_ALGORITH=PARALLEL,FD_PROJECT=OFF)                                           
                                                                                
BI:PVQZPP                                                                       
BI:PVQZPP                                                                       
BI:PVQZPP                                                                       
BI:PVQZPP                                                                       
                                                                                
BI:ECP60MDF                                                                     
BI:ECP60MDF                                                                     
BI:ECP60MDF                                                                     
BI:ECP60MDF                                                                     
                                                                                
********************************************************************************
 
     PARALLEL RUN STARTED ON            4  CORES/NODES.
 
    -------------------------------------------------------------------
                    CFOUR Control Parameters 
    -------------------------------------------------------------------
        External           Internal           Value            Units
          Name               Name
    -------------------------------------------------------------------
       ABCDTYPE             IABCDT         AOBASIS      [  2]   ***   
       ANHARMONIC           IANHAR         VPT2         [  1]   ***   
       ANH_ALGORIT          IANALG         PARALLEL     [  1]   ***   
       ANH_DERIVAT          IANDER         SECOND       [  1]   ***   
       ANH_STEPSIZ          ICUBST             50000          x 10-6  
       ANH_SYMMETR          IANHSM         ABELIAN      [  0]   ***   
       AO_LADDERS           IAOLAD         SINGLEPASS   [  1]   ***   
       AV_SCF               IAVSCF         OFF          [  0]   ***   
       BASIS                IBASIS         SPECIAL      [  0]   ***   
       BOTHVECTORS          BOTHVC         OFF          [  0]   ***   
       BOX_POTENT           IPIAB          OFF          [  0]   ***   
       BREIT                IBREIT         OFF          [  0]   ***   
       BRUCK_CONV           IBRTOL          10D-  4             ***   
       BRUECKNER            IBRKNR             OFF      [  0]   ***   
       BUFFERSIZE           IBUFFS            600               ***   
       CACHE_RECS           ICHREC             10               ***   
       CALCLEVEL            ICLLVL           CCSD(T)    [ 22]   ***   
       CCORBOPT             ICCORB             OFF      [  0] x 0.01  
       CC_CONV              ICCCNV          10D-  9             ***   
       CC_EXPORDER          ICCEOR              5               ***   
       CC_EXTRAPOL          ICCEXT             DIIS     [  1]   ***   
       CC_GUESS             ICCGES         MP2          [  0]   ***   
       CC_MAXCYC            ICCCYC            500              cycles 
       CC_PROGRAM           ICCPRO         ECC          [  1]   ***   
       CHARGE               ICHRGE              0               ***   
       CHOLESKY             ICHOLE         OFF          [  0]   ***   
       CIS_CONV             ICISTL              5               ***   
       COMM_SIZE            IPSIZE            ***               ***   
       CONSTANT             ICONST         OLD          [  1]   ***   
       CONTINUUM            ICONTU         NONE         [  0]   ***   
       CONTRACTION          ICNTYP          GENERAL     [  1]   ***   
       COORDINATES          ICOORD         INTERNAL     [  0]   ***   
       CPHF_CONVER          ICPHFT          10D- 16             ***   
       CPHF_MAXCYC          ICPHFC             64              cycles 
       CUBIC                ICUBIC         OFF          [  0]   ***   
       CURVILINEAR          ICURVY            OFF       [  0]   ***   
       D3_ISOTRANS          D3ISOT         OFF          [  0]   ***   
       DBOC                 IDBOC          OFF          [  0]   ***   
       DCT                  IDCT           OFF          [  0]   ***   
       DERIV_LEV            IDRLVL            FIRST     [  1]   ***   
       DEVMEM_SIZE          IDVMEM         *********           MByte  
       DIAG_MRCC            IEOMST          10D-  0             ***   
       DIFF_TYPE            IDIFTY         RELAXED      [  0]   ***   
       DIRECT               IDIRCT         OFF          [  0]   ***   
       DROPMO               IDRPMO      NONE         
       ECP                  IECP           ON           [  1]   ***   
       EIGENVECTOR          IVEC                1               ***   
       EL_ANHARM            IELANH         OFF          [  0]   ***   
       EOMFOLLOW            IEOMSR         ENERGY       [  0]   ***   
       EOMIP                IEOMIP         OFF          [  0]   ***   
       EOM_MRCC             IMRCCE         NEW          [  1]   ***   
       EOM_NONIT            EOMNON         OFF          [  0]   ***   
       EOM_NSING            IEOMSI          10D-  0             ***   
       EOM_NSTATES          IMRCCD         DAVIDSON     [  0]   ***   
       EOM_NTRIP            IEOMTR          10D-  0             ***   
       EOM_ORDER            IEXORD         ENERGY       [  0]   ***   
       EOM_PROPSTA          IEOMST              0               ***   
       ESTATE_CONV          IEXTOL          10D-  5             ***   
       ESTATE_DIAG          IEXDIG         ITERATIVE    [  0]   ***   
       ESTATE_LOCK          IESLOC         ON           [  1]   ***   
       ESTATE_MAXC          IEXMXC             40               ***   
       ESTATE_PROP          IEXPRP         OFF          [  0]   ***   
       EVAL_HESS            IRECAL              0            # of cyc.
       EXCITATION           IEXCIT              0               ***   
       EXCITE               IEXCIT         NONE         [  0]   ***   
       EXTERN_POT           IEXPOT         OFF          [  0]   ***   
       FCGRADNEW            IFCGNW         OFF          [  0]   ***   
       FC_FIELD             IFINFC              0             x 10-6  
       FD_CALTYPE           IFDCAL         GRADONLY     [  0]   ***   
       FD_PROJECT           IFDPRJ         OFF          [  1]   ***   
       FD_STEPSIZE          IDISFD              5            10-4 bohr
       FD_USEGROUP          IFDGRP         FULL         [  0]   ***   
       FILE_RECSIZ          IFLREC              4096           words  
       FINITE_PERT          IFIPER              0             x 10-6  
       FIXGEOM              IFIXGM         OFF          [  0]   ***   
       FOCK                 IFOCK          AO           [  1]   ***   
       FREQ_ALGORI          IVIALG         STANDARD     [  0]   ***   
       FROZEN_CORE          IFROCO         OFF          [  0]   ***   
       FROZEN_VIRT          IFROVI         OFF          [  0]   ***   
       GAMMA_ABCD           IGABCD         DIRECT       [  1]   ***   
       GAMMA_ABCI           IGABCI         STORE        [  0]   ***   
       GENBAS_1             IGNBS1              0               ***   
       GENBAS_2             IGNBS2              0               ***   
       GENBAS_3             IGNBS3              0               ***   
       GENBAS_4             IGNBS4              0               ***   
       GEO_CONV             ICONTL              8              H/bohr 
       GEO_MAXCYC           IOPTCY             50               ***   
       GEO_MAXSTEP          IMXSTP            300            millibohr
       GEO_METHOD           INR            SINGLE_POINT [  5]   ***   
       GIAO                 IGIAO          OFF          [  1]   ***   
       GIMIC                IGIMIC         OFF          [  0]   ***   
       GRID                 IGRID          OFF          [  0]   ***   
       GRID_ALGO            IGALGO         SERIAL       [  0]   ***   
       GUESS                IGUESS            MOREAD    [  0]   ***   
       HBAR                 IHBAR              OFF      [  0]   ***   
       HESS_TYPE            IHESTP         SCF          [  0]   ***   
       HF2_FILE             IHF2Fl         USE          [  1]   ***   
       HFSTABILITY          ISTABL         OFF          [  0]   ***   
       INCORE               INCORE             OFF      [  0]   ***   
       INPUT_MRCC           IMRCC          ON           [  1]   ***   
       INTEGRALS            INTTYP             VMOL     [  1]   ***   
       JODA_PRINT           IJPRNT              0               ***   
       KEYWORD_OUT          IDMPKW         NO           [  0]   ***   
       LINDEP_TOL           ILINDP              8               ***   
       LINEQ_CONV           IZTACN          10D-  9           cycles  
       LINEQ_EXPOR          ILMAXD              5               ***   
       LINEQ_MAXCY          ILMAXC            100               ***   
       LINEQ_TYPE           ILTYPE         DIIS         [  1]   ***   
       LOCK_ORBOCC          ILOCOC             OFF      [  0]   ***   
       MEMORY_SIZE          IMEMSZ         *********           words  
       MEM_UNIT             IMEMU          GB           [  3]   ***   
       MRCC                 IMRCCC         OFF          [  0]   ***   
       MULTIPLICTY          IMULTP              1               ***   
       NACOUPLING           IVCOUP         OFF          [  0]   ***   
       NEGEVAL              IDIE             ABORT      [  0]   ***   
       NEWNORM              INEWNO         OFF          [  0]   ***   
       NON-HF               INONHF             OFF      [  0]   ***   
       NTOP_TAMP            ITOPT2             15               ***   
       NUC_MODEL            INUCMO         POINT        [  0]   ***   
       OCCUPATION           IOCCU   ESTIMATED BY SCF 
       OPEN-SHELL           IOPEN          SPIN-ORBITAL [  0]   ***   
       OPTVIB               IOPTVB         OFF          [  0]   ***   
       ORBITALS             IORBTP           STANDARD   [  0]   ***   
       PARALLEL             IPARAL         ON           [  1]   ***   
       PARA_INT             IPINTS         ON           [  1]   ***   
       PARA_PRINT           IPPRIN              0               ***   
       PERT_ORB             IPTORB         CANONICAL    [  1]   ***   
       POINTS               IGRDFD              0               ***   
       PRINT                IPRNT               0               ***   
       PROPS                IPROPS             OFF      [  0]   ***   
       PROP_INTEGR          IINTYP         INTERNAL     [  0]   ***   
       PSI                  IPSI           OFF          [  0]   ***   
       QC_ALG               IQCALG         FLM          [  0]   ***   
       QC_LINALG            IQCLIN         TRIDIAG      [  2]   ***   
       QC_MAXCYC            IQCMAX          10D-100           cycles  
       QC_MAXSCFCY          IQCMSC          10D- 15           cycles  
       QC_RTRUST            IQCRTR          10D-  0           x 10-3  
       QC_SKIPSCF           IQCSKI         OFF          [  0]   ***   
       QC_START             IQCSTA          10D-  1             ***   
       QRHFGUESS            IQGUES         OFF          [  0]   ***   
       QUARTIC              IQUART         OFF          [  0]   ***   
       RAMAN_INT            IRAMIN         OFF          [  0]   ***   
       RAMAN_ORB            IRAMRE         UNRELAXED    [  0]   ***   
       RDO                  IRDOFM              ON      [  1]   ***   
       REFERENCE            IREFNC             RHF      [  0]   ***   
       RELATIVIST           IRELAT         OFF          [  0]   ***   
       RELAX_DENS           IRDENS              ON      [  1]   ***   
       RESET_FLAGS          IRESET             OFF      [  0]   ***   
       RESTART_CC           ICCRES         OFF          [  0]   ***   
       ROT_EVEC             ROTVEC              0               ***   
       SAVE_INTS            ISVINT             OFF      [  0]   ***   
       SCALE_ON             ISTCRT              0               ***   
       SCF_CONV             ISCFCV          10D- 10             ***   
       SCF_DAMPING          IDAMP               0             x 10-3  
       SCF_EXPORDE          IRPPOR              6               ***   
       SCF_EXPSTAR          IRPPLS              8               ***   
       SCF_EXTRAPO          IRPP                ON      [  1]   ***   
       SCF_MAXCYC           ISCFCY            500              cycles 
       SCF_NOSTOP           ISCFST         OFF          [  0]   ***   
       SCF_PRINT            ISCFPR              0               ***   
       SCF_PROG             ISCFPR         SCF          [  0]   ***   
       SD_FIELD             IFINSD              0             x 10-6  
       SOPERT               IPERSO         OFF          [  0]   ***   
       SPHERICAL            IDFGHI             ON       [  1]   ***   
       SPINORBIT            ISOCAL         OFF          [  0]   ***   
       SPINROTATIO          ISRCON         OFF          [  0]   ***   
       SPIN_FLIP            ISPFLP         OFF          [  0]   ***   
       SPIN_ORBIT           ISPORB         OFF          [  0]   ***   
       SPIN_SCAL            ISCSMP         OFF          [  0]   ***   
       STEEPSCALE           ISTPSC              1000          x 10-3  
       SUBGROUP             ISUBGP         DEFAULT      [  0]   ***   
       SUBGRPAXIS           ISBXYZ         X            [  0]   ***   
       SYMMETRY             ISYM             ON         [  0]   ***   
       SYM_CHECK            ISYMCK         OVERRIDE     [  1]   ***   
       T3_EXTRAPOL          IT3EXT         OFF          [  0]   ***   
       T4_EXTRAPOL          IT4EXP         OFF          [  0]   ***   
       TAMP_SUM             IEVERY              5               ***   
       TESTSUITE            ITESTS         OFF          [  0]   ***   
       THERMOCH             ITHERM         OFF          [  0]   ***   
       TOL_CHOLESK          ITOLCH          10D-  4             ***   
       TRANGRAD             IRESRM         OFF          [  0]   ***   
       TRANS_INV            ITRAIN         USE          [  0]   ***   
       TREAT_PERT           ITREAT         SIMULTANEOUS [  0]   ***   
       TRIP_ALGORI          ITRALG         NORMAL       [  0]   ***   
       UIJ_THRESHO          IUIJTH              1               ***   
       UNITS                IUNITS         ANGSTROM     [  0]   ***   
       UNOS                 IUNOS          OFF          [  0]   ***   
       UPDATE_HESS          IHUPDT         ON           [  1]   ***   
       VIBPHASE             ISETPH         STANDARD     [  0]   ***   
       VIBRATION            IVIB             FINDIF     [  3]   ***   
       VIB_ALGORIT          IGEALG         STANDARD     [  0]   ***   
       VNATORB              IVNORB         OFF          [  0]   ***   
       VTRAN                IVTRAN         PARTIAL      [  2]   ***   
       XFIELD               IXEFLD              0             x 10-6  
       XFORM_TOL            IXFTOL          10D- 11             ***   
       YFIELD               IYEFLD              0             x 10-6  
       ZFIELD               IZEFLD              0             x 10-6  
       ZSCALE_EXP           IZEXPS         OFF          [  0]   ***   
    -------------------------------------------------------------------
   6 entries found in Z-matrix 
   Job Title : CCSD(T) Optimization                                                            
   There are  8 unique internal coordinates.
   Of these,  0 will be optimized.
   User supplied Z-matrix: 
--------------------------------------------------------------------------------
       SYMBOL    BOND      LENGTH    ANGLE     ANGLE     DIHED     ANGLE
                  TO      (ANGST)    WRT      (DEG)      WRT      (DEG)
--------------------------------------------------------------------------------
        X    
        X          1         r1   
        Bi         2         r2         1        a1   
        Bi         2         r2         1        a1         3        d1   
        Bi         2         r3         1        a2         3        d2   
        Bi         2         r3         1        a2         3        d3   
                  *Initial values for internal coordinates* 
                      Name             Value
                        r1              1.0000000000
                        r2              1.5434468939
                        a1             90.0000000000
                        d1            180.0000000000
                        r3              2.4505755406
                        a2            113.6566063148
                        d2             90.0000000000
                        d3            -90.0000000000
--------------------------------------------------------------------------------
  1  X          0     0.00000
  2  X          0     0.00000
  3  BI        83   208.98037
  4  BI        83   208.98037
  5  BI        83   208.98037
  6  BI        83   208.98037
   Rotational constants (in cm-1): 
          0.0054352355             0.0073042276             0.0140745551
   Rotational constants (in MHz): 
        162.9442836805           218.9752639374           421.9446046136
********************************************************************************
   The full molecular point group is C2v .
   The largest Abelian subgroup of the full molecular point group is C2v .
   The computational point group is C2v .
********************************************************************************
--------------------------------------------------------------------------------
   Analysis of internal coordinates specified by Z-matrix 
--------------------------------------------------------------------------------
   *The nuclear repulsion energy is 7028.007178047377238 a.u.
   *There are   3 degrees of freedom within the tot. symm. molecular subspace.
   *Z-matrix requests optimization of   0 coordinates.
   *The optimization is constrained.
   *The following   4 parameters can have non-zero 
    derivatives within the totally symmetric subspace:
             a2   [11]  r2   [ 2]  a1   [ 3]  r3   [ 7]
   *The following   0 parameters are to be optimized:

   *The following coordinates must be varied in an  unconstrained optimization.
             a2   [11]  r2   [ 2]  a1   [ 3]  r3   [ 7]
--------------------------------------------------------------------------------
 ----------------------------------------------------------------
 Z-matrix   Atomic            Coordinates (in bohr)
  Symbol    Number           X              Y              Z
 ----------------------------------------------------------------
     X         0        -0.00000000     0.00000000    -2.81881402
     X         0        -0.00000000     0.00000000    -0.92908750
     BI       83         0.00000000    -2.91669253    -0.92908750
     BI       83        -0.00000000     2.91669253    -0.92908750
     BI       83         4.24176654     0.00000000     0.92908750
     BI       83        -4.24176654    -0.00000000     0.92908750
 ----------------------------------------------------------------
   Interatomic distance matrix (Angstroms) 
 
                 X             X             BI            BI            BI   
                [ 1]        [ 2]        [ 3]        [ 4]        [ 5]
  X    [ 1]     0.00000
  X    [ 2]     1.00000     0.00000
  BI   [ 3]     1.83908     1.54345     0.00000
  BI   [ 4]     1.83908     1.54345     3.08689     0.00000
  BI   [ 5]     2.99532     2.45058     2.89613     2.89613     0.00000
  BI   [ 6]     2.99532     2.45058     2.89613     2.89613     4.48929
 
                 BI   
                [ 6]
  BI   [ 6]     0.00000
   Rotational constants (in cm-1): 
          0.0140745551             0.0073042276             0.0054352355
   Rotational constants (in MHz): 
        421.9446046136           218.9752639374           162.9442836805
  There are  268 basis functions.
 @GEOPT-W, Archive file not created for single-point calculation.
  at this point                      0                     0
  @CHECKOUT-I, Total execution time (CPU/WALL):        0.19/       0.22 seconds.
--executable xjoda finished with status     0 in        0.36 seconds (walltime).
 --invoking executable--
/opt/vulcan/opt/vulcan/linux-x86_64/intel-16.0.1/cfour-2.0-hjkzrfqmrmfvexnyvlji4zmpovcjpspy/bin/xsymcor
 @GETMEM-I,  Allocated   28610 MB of main memory.
  @CHRTABLE-I, There are   4 unique irreducible representations.
  @CHRTABLE-I, There are   4 unique irreducible representations.
  @VIBINF-I, Symmetries species for nuclear motions:
  Irrep     Label    Total    Vibrations     Translations     Rotations
    1          A1     4.00       3.00            1.00            0.00
    2          A2     2.00       1.00            0.00            1.00
    3          B1     3.00       1.00            1.00            1.00
    4          B2     3.00       1.00            1.00            1.00
   Total number of calculations required      :    12
   Number of single-point energy calculations :     0
   Number of energy gradient     calculations :    12
  @CHECKOUT-I, Total execution time (CPU/WALL):        0.01/       0.02 seconds.
--executable xsymcor finished with status     0 in        0.14 seconds (walltime).
 --invoking executable--
/opt/vulcan/opt/vulcan/linux-x86_64/intel-16.0.1/cfour-2.0-hjkzrfqmrmfvexnyvlji4zmpovcjpspy/bin/xjoda
  1  X          0     0.00000
  2  X          0     0.00000
  3  BI        83   208.98037
  4  BI        83   208.98037
  5  BI        83   208.98037
  6  BI        83   208.98037
   Rotational constants (in cm-1): 
          0.0054352648             0.0073042276             0.0140747513
   Rotational constants (in MHz): 
        162.9451609275           218.9752639374           421.9504870640
********************************************************************************
   The full molecular point group is C2v .
   The largest Abelian subgroup of the full molecular point group is C2v .
   The computational point group is C2v .
********************************************************************************
  There are  268 basis functions.
 @GEOPT-W, Archive file not created for single-point calculation.
  @CHECKOUT-I, Total execution time (CPU/WALL):        0.09/       0.13 seconds.
--executable xjoda finished with status     0 in        0.19 seconds (walltime).
 --invoking executable--
/opt/vulcan/opt/vulcan/linux-x86_64/intel-16.0.1/cfour-2.0-hjkzrfqmrmfvexnyvlji4zmpovcjpspy/bin/xvmol
 Parallel version of molecule started on node            0 :
********************************************************************************
                    Input from MOL file
********************************************************************************
INTGRL        1    0    1    1    0    0    0    0    0                         
         *** CFOUR Program System (Release V0.1) ***                            
CCSD(T) Optimization                                                            
    2    2 X  Y       0.10E-08              0    0                              
   9999.00      3.00                                                            
         83.00000000    1    5    1    1    1    1    1                         
BI#1  -0.000000000000000  -2.916668071779916  -0.929087503375141                
   14    6                                                                      
   8131.09000000000       2.900000000000000E-005  1.400000000000000E-005        
  0.000000000000000E+000  0.000000000000000E+000  0.000000000000000E+000        
  0.000000000000000E+000                                                        
   1225.77000000000       2.000000000000000E-004  9.500000000000001E-005        
  0.000000000000000E+000  0.000000000000000E+000  0.000000000000000E+000        
  0.000000000000000E+000                                                        
   274.672000000000       6.840000000000000E-004  3.450000000000000E-004        
  0.000000000000000E+000  0.000000000000000E+000  0.000000000000000E+000        
  0.000000000000000E+000                                                        
   37.6164000000000       2.021800000000000E-002  8.252000000000001E-003        
  0.000000000000000E+000  0.000000000000000E+000  0.000000000000000E+000        
  0.000000000000000E+000                                                        
   23.4804000000000      -0.159326000000000      -6.791899999999999E-002        
  0.000000000000000E+000  0.000000000000000E+000  0.000000000000000E+000        
  0.000000000000000E+000                                                        
   14.1065000000000       0.611726000000000       0.281065000000000             
  0.000000000000000E+000  0.000000000000000E+000  0.000000000000000E+000        
  0.000000000000000E+000                                                        
   8.81305000000000      -0.544653000000000      -0.293282000000000             
  0.000000000000000E+000  0.000000000000000E+000  0.000000000000000E+000        
  0.000000000000000E+000                                                        
   5.50778000000000      -0.636884000000000      -0.263451000000000             
  0.000000000000000E+000  0.000000000000000E+000  0.000000000000000E+000        
  0.000000000000000E+000                                                        
   2.03977000000000       0.771698000000000       0.477772000000000             
  0.000000000000000E+000  0.000000000000000E+000  0.000000000000000E+000        
  0.000000000000000E+000                                                        
   1.09440000000000       0.638367000000000       0.528566000000000             
  0.000000000000000E+000  0.000000000000000E+000  0.000000000000000E+000        
  0.000000000000000E+000                                                        
  0.491526000000000       8.888200000000000E-002  1.916400000000000E-002        
   1.00000000000000       0.000000000000000E+000  0.000000000000000E+000        
  0.000000000000000E+000                                                        
  0.289903000000000      -1.191400000000000E-002 -0.572793000000000             
  0.000000000000000E+000   1.00000000000000       0.000000000000000E+000        
  0.000000000000000E+000                                                        
  0.138193000000000       2.869000000000000E-003 -0.583179000000000             
  0.000000000000000E+000  0.000000000000000E+000   1.00000000000000             
  0.000000000000000E+000                                                        
  6.358500000000000E-002 -4.740000000000000E-004 -0.142004000000000             
  0.000000000000000E+000  0.000000000000000E+000  0.000000000000000E+000        
   1.00000000000000                                                             
   11    6                                                                      
   99.5914000000000       3.460000000000000E-004 -1.090000000000000E-004        
  0.000000000000000E+000  0.000000000000000E+000  0.000000000000000E+000        
  0.000000000000000E+000                                                        
   19.8964000000000      -1.997600000000000E-002  6.023000000000000E-003        
  0.000000000000000E+000  0.000000000000000E+000  0.000000000000000E+000        
  0.000000000000000E+000                                                        
   12.4376000000000       0.175446000000000      -5.752500000000000E-002        
  0.000000000000000E+000  0.000000000000000E+000  0.000000000000000E+000        
  0.000000000000000E+000                                                        
   7.77400000000000      -0.379556000000000       0.135432000000000             
  0.000000000000000E+000  0.000000000000000E+000  0.000000000000000E+000        
  0.000000000000000E+000                                                        
   4.83995000000000      -5.526200000000000E-002  2.210000000000000E-003        
  0.000000000000000E+000  0.000000000000000E+000  0.000000000000000E+000        
  0.000000000000000E+000                                                        
   2.25478000000000       0.528884000000000      -0.199124000000000             
  0.000000000000000E+000  0.000000000000000E+000  0.000000000000000E+000        
  0.000000000000000E+000                                                        
   1.18049000000000       0.521324000000000      -0.236319000000000             
  0.000000000000000E+000  0.000000000000000E+000  0.000000000000000E+000        
  0.000000000000000E+000                                                        
  0.594224000000000       0.154236000000000      -1.142000000000000E-003        
   1.00000000000000       0.000000000000000E+000  0.000000000000000E+000        
  0.000000000000000E+000                                                        
  0.257970000000000       9.866000000000000E-003  0.414375000000000             
  0.000000000000000E+000   1.00000000000000       0.000000000000000E+000        
  0.000000000000000E+000                                                        
  0.112868000000000       2.760000000000000E-004  0.534844000000000             
  0.000000000000000E+000  0.000000000000000E+000   1.00000000000000             
  0.000000000000000E+000                                                        
  4.788500000000000E-002 -1.800000000000000E-005  0.194336000000000             
  0.000000000000000E+000  0.000000000000000E+000  0.000000000000000E+000        
   1.00000000000000                                                             
   11    4                                                                      
   176.937000000000       5.600000000000000E-005  0.000000000000000E+000        
  0.000000000000000E+000  0.000000000000000E+000                                
   52.4668000000000       4.280000000000000E-004  0.000000000000000E+000        
  0.000000000000000E+000  0.000000000000000E+000                                
   13.7831000000000       1.009600000000000E-002  0.000000000000000E+000        
  0.000000000000000E+000  0.000000000000000E+000                                
   6.85121000000000      -7.843600000000001E-002  0.000000000000000E+000        
  0.000000000000000E+000  0.000000000000000E+000                                
   4.17787000000000       1.281500000000000E-002  0.000000000000000E+000        
  0.000000000000000E+000  0.000000000000000E+000                                
   2.60919000000000       0.208814000000000       0.000000000000000E+000        
  0.000000000000000E+000  0.000000000000000E+000                                
   1.55166000000000       0.341631000000000       0.000000000000000E+000        
  0.000000000000000E+000  0.000000000000000E+000                                
  0.889902000000000       0.340101000000000       0.000000000000000E+000        
  0.000000000000000E+000  0.000000000000000E+000                                
  0.485299000000000       0.208427000000000        1.00000000000000             
  0.000000000000000E+000  0.000000000000000E+000                                
  0.246894000000000       6.615000000000000E-002  0.000000000000000E+000        
   1.00000000000000       0.000000000000000E+000                                
  0.104400000000000       5.723000000000000E-003  0.000000000000000E+000        
  0.000000000000000E+000   1.00000000000000                                     
    2    2                                                                      
  0.480300000000000        1.00000000000000       0.000000000000000E+000        
  0.200600000000000       0.000000000000000E+000   1.00000000000000             
    1    1                                                                      
  0.420300000000000        1.00000000000000                                     
         83.00000000    1    5    1    1    1    1    1                         
BI#2   4.241766538861917  -0.000000000000000   0.929087503375141                
   14    6                                                                      
   8131.09000000000       2.900000000000000E-005  1.400000000000000E-005        
  0.000000000000000E+000  0.000000000000000E+000  0.000000000000000E+000        
  0.000000000000000E+000                                                        
   1225.77000000000       2.000000000000000E-004  9.500000000000001E-005        
  0.000000000000000E+000  0.000000000000000E+000  0.000000000000000E+000        
  0.000000000000000E+000                                                        
   274.672000000000       6.840000000000000E-004  3.450000000000000E-004        
  0.000000000000000E+000  0.000000000000000E+000  0.000000000000000E+000        
  0.000000000000000E+000                                                        
   37.6164000000000       2.021800000000000E-002  8.252000000000001E-003        
  0.000000000000000E+000  0.000000000000000E+000  0.000000000000000E+000        
  0.000000000000000E+000                                                        
   23.4804000000000      -0.159326000000000      -6.791899999999999E-002        
  0.000000000000000E+000  0.000000000000000E+000  0.000000000000000E+000        
  0.000000000000000E+000                                                        
   14.1065000000000       0.611726000000000       0.281065000000000             
  0.000000000000000E+000  0.000000000000000E+000  0.000000000000000E+000        
  0.000000000000000E+000                                                        
   8.81305000000000      -0.544653000000000      -0.293282000000000             
  0.000000000000000E+000  0.000000000000000E+000  0.000000000000000E+000        
  0.000000000000000E+000                                                        
   5.50778000000000      -0.636884000000000      -0.263451000000000             
  0.000000000000000E+000  0.000000000000000E+000  0.000000000000000E+000        
  0.000000000000000E+000                                                        
   2.03977000000000       0.771698000000000       0.477772000000000             
  0.000000000000000E+000  0.000000000000000E+000  0.000000000000000E+000        
  0.000000000000000E+000                                                        
   1.09440000000000       0.638367000000000       0.528566000000000             
  0.000000000000000E+000  0.000000000000000E+000  0.000000000000000E+000        
  0.000000000000000E+000                                                        
  0.491526000000000       8.888200000000000E-002  1.916400000000000E-002        
   1.00000000000000       0.000000000000000E+000  0.000000000000000E+000        
  0.000000000000000E+000                                                        
  0.289903000000000      -1.191400000000000E-002 -0.572793000000000             
  0.000000000000000E+000   1.00000000000000       0.000000000000000E+000        
  0.000000000000000E+000                                                        
  0.138193000000000       2.869000000000000E-003 -0.583179000000000             
  0.000000000000000E+000  0.000000000000000E+000   1.00000000000000             
  0.000000000000000E+000                                                        
  6.358500000000000E-002 -4.740000000000000E-004 -0.142004000000000             
  0.000000000000000E+000  0.000000000000000E+000  0.000000000000000E+000        
   1.00000000000000                                                             
   11    6                                                                      
   99.5914000000000       3.460000000000000E-004 -1.090000000000000E-004        
  0.000000000000000E+000  0.000000000000000E+000  0.000000000000000E+000        
  0.000000000000000E+000                                                        
   19.8964000000000      -1.997600000000000E-002  6.023000000000000E-003        
  0.000000000000000E+000  0.000000000000000E+000  0.000000000000000E+000        
  0.000000000000000E+000                                                        
   12.4376000000000       0.175446000000000      -5.752500000000000E-002        
  0.000000000000000E+000  0.000000000000000E+000  0.000000000000000E+000        
  0.000000000000000E+000                                                        
   7.77400000000000      -0.379556000000000       0.135432000000000             
  0.000000000000000E+000  0.000000000000000E+000  0.000000000000000E+000        
  0.000000000000000E+000                                                        
   4.83995000000000      -5.526200000000000E-002  2.210000000000000E-003        
  0.000000000000000E+000  0.000000000000000E+000  0.000000000000000E+000        
  0.000000000000000E+000                                                        
   2.25478000000000       0.528884000000000      -0.199124000000000             
  0.000000000000000E+000  0.000000000000000E+000  0.000000000000000E+000        
  0.000000000000000E+000                                                        
   1.18049000000000       0.521324000000000      -0.236319000000000             
  0.000000000000000E+000  0.000000000000000E+000  0.000000000000000E+000        
  0.000000000000000E+000                                                        
  0.594224000000000       0.154236000000000      -1.142000000000000E-003        
   1.00000000000000       0.000000000000000E+000  0.000000000000000E+000        
  0.000000000000000E+000                                                        
  0.257970000000000       9.866000000000000E-003  0.414375000000000             
  0.000000000000000E+000   1.00000000000000       0.000000000000000E+000        
  0.000000000000000E+000                                                        
  0.112868000000000       2.760000000000000E-004  0.534844000000000             
  0.000000000000000E+000  0.000000000000000E+000   1.00000000000000             
  0.000000000000000E+000                                                        
  4.788500000000000E-002 -1.800000000000000E-005  0.194336000000000             
  0.000000000000000E+000  0.000000000000000E+000  0.000000000000000E+000        
   1.00000000000000                                                             
   11    4                                                                      
   176.937000000000       5.600000000000000E-005  0.000000000000000E+000        
  0.000000000000000E+000  0.000000000000000E+000                                
   52.4668000000000       4.280000000000000E-004  0.000000000000000E+000        
  0.000000000000000E+000  0.000000000000000E+000                                
   13.7831000000000       1.009600000000000E-002  0.000000000000000E+000        
  0.000000000000000E+000  0.000000000000000E+000                                
   6.85121000000000      -7.843600000000001E-002  0.000000000000000E+000        
  0.000000000000000E+000  0.000000000000000E+000                                
   4.17787000000000       1.281500000000000E-002  0.000000000000000E+000        
  0.000000000000000E+000  0.000000000000000E+000                                
   2.60919000000000       0.208814000000000       0.000000000000000E+000        
  0.000000000000000E+000  0.000000000000000E+000                                
   1.55166000000000       0.341631000000000       0.000000000000000E+000        
  0.000000000000000E+000  0.000000000000000E+000                                
  0.889902000000000       0.340101000000000       0.000000000000000E+000        
  0.000000000000000E+000  0.000000000000000E+000                                
  0.485299000000000       0.208427000000000        1.00000000000000             
  0.000000000000000E+000  0.000000000000000E+000                                
  0.246894000000000       6.615000000000000E-002  0.000000000000000E+000        
   1.00000000000000       0.000000000000000E+000                                
  0.104400000000000       5.723000000000000E-003  0.000000000000000E+000        
  0.000000000000000E+000   1.00000000000000                                     
    2    2                                                                      
  0.480300000000000        1.00000000000000       0.000000000000000E+000        
  0.200600000000000       0.000000000000000E+000   1.00000000000000             
    1    1                                                                      
  0.420300000000000        1.00000000000000                                     
FINISH                                                                          
 
********************************************************************************
 One- and two-electron integrals over symmetry-adapted AOs are calculated.

  Spherical harmonics are used.
  Effective core potentials are used.
  
  Integrals less than  0.10E-13 are neglected.

 ECP CALLED
 reading data block $ecp from file <ECPDATA>

          ------------------
          -ecp- potential(s)
          ------------------
 ECP PARAMETERS FOR ATOM                     1
BI:ECP60MDF         
*
  NCORE =    60           LMAX =     5
#        COEFFICIENT   R^N          EXPONENT
h
           0.0000000    2           1.0000000
s-h
         283.2642270    2          13.0430900
          62.4719590    2           8.2216820
p-h
          72.0014990    2          10.4677770
         144.0022770    2           9.1189010
           5.0079450    2           6.7547910
           9.9915500    2           6.2525920
d-h
          36.3962590    2           8.0814740
          54.5976640    2           7.8905950
           9.9842940    2           4.9555560
          14.9814850    2           4.7045590
f-h
          13.7133830    2           4.2145460
          18.1943080    2           4.1334000
g-h
         -10.2474430    2           6.2057090
         -12.9557100    2           6.2277820
*
 ECP PARAMETERS FOR ATOM                     2
BI:ECP60MDF         
*
  NCORE =    60           LMAX =     5
#        COEFFICIENT   R^N          EXPONENT
h
           0.0000000    2           1.0000000
s-h
         283.2642270    2          13.0430900
          62.4719590    2           8.2216820
p-h
          72.0014990    2          10.4677770
         144.0022770    2           9.1189010
           5.0079450    2           6.7547910
           9.9915500    2           6.2525920
d-h
          36.3962590    2           8.0814740
          54.5976640    2           7.8905950
           9.9842940    2           4.9555560
          14.9814850    2           4.7045590
f-h
          13.7133830    2           4.2145460
          18.1943080    2           4.1334000
g-h
         -10.2474430    2           6.2057090
         -12.9557100    2           6.2277820
*

     code set-up for matrix elements of effective core potential

          basis functions are max type  i
          projection operator max type  h
          1.basic angular ints.........     0.03 sec
          2.local operator ints........     0.01 sec
          3.projection operator ints...     0.00 sec
          4.special angular ints.......     0.00 sec

  Nuclear repulsion energy :  539.6759150788 a.u.
  required memory for a1 array               23078418  words 
  required memory for a2 array                2708282  words 
 @GETMEM-I,  Allocated     211 MB of main memory.
 ia, idexatom                     1                     0
 ia, idexatom                     2                     0
 ia, idexatom                     3                     1
 ia, idexatom                     4                     1
 ia, idexatom                     5                     2
 ia, idexatom                     6                     2
 call cvw_ecp_int
 ECP: maximum angular momentum =                     4
 ECP: maximum angular projector=                     4
 total number of basis functions                   332
! CPU time for ECP integrals:     1.4 seconds.
  @MOLECU-I, ECP-integrals (CPU/WALL):       1.42/       1.43 seconds.
  @MOLECU-I, One electron integrals (CPU/WALL):        0.11/       0.14 seconds.
  @TWOEL-I,    2966477 integrals of symmetry type  I I I I
  @TWOEL-I,   14467039 integrals of symmetry type  I J I J
  @TWOEL-I,    7420925 integrals of symmetry type  I I J J
  @TWOEL-I,   13008448 integrals of symmetry type  I J K L
  @TWOEL-I, Total number of 2-e integrals   37862889.
  @MOLECU-I, Two electron integrals (CPU/WALL):       19.88/      19.88 seconds.
  @CHECKOUT-I, Total execution time (CPU/WALL):       21.71/      21.74 seconds.
--executable xvmol finished with status     0 in       32.32 seconds (walltime).
 --invoking executable--
/opt/vulcan/opt/vulcan/linux-x86_64/intel-16.0.1/cfour-2.0-hjkzrfqmrmfvexnyvlji4zmpovcjpspy/bin/xvmol2ja
 @GETMEM-I,  Allocated   28610 MB of main memory.
  @CHECKOUT-I, Total execution time (CPU/WALL):        0.12/       0.17 seconds.
--executable xvmol2ja finished with status     0 in        0.30 seconds (walltime).
 --invoking executable--
/opt/vulcan/opt/vulcan/linux-x86_64/intel-16.0.1/cfour-2.0-hjkzrfqmrmfvexnyvlji4zmpovcjpspy/bin/xvscf
  There are  268 functions in the AO basis.

  There are 4 irreducible representations.

       Irrep        # of functions
         1                 86
         2                 67
         3                 67
         4                 48


  Parameters for SCF calculation: 
        SCF reference function:  RHF  
  Maximum number of iterations:  500
     Full symmetry point group: C2v 
     Computational point group: C2v 
        Initial density matrix: MOREAD                 
     SCF convergence tolerance: 10**(-10)
  DIIS convergence acceleration:  ON
          Latest start for DIIS:   8
                     DIIS order:   6

  Memory information:    3572948 words required.
  Fock matrices are constructed from AO integral file.
 @GETMEM-I,  Allocated      27 MB of main memory.
  Initialization and symmetry analysis required      0.008 seconds.

 Read in ECP integrals from hard disk!
 unsymmetric error:  1.276756478318930E-015
  @INITGES-I, Occupancies from core Hamiltonian:

          Alpha population by irrep:  16   11   12    7
           Beta population by irrep:  16   11   12    7


 read in density matrix from initden.dat
 unsymmetric error:  2.159549157834745E-017
 total no. of electrons in initial guess :   92.0000065323185     
  --------------------------------------------------------------------
  Iteration         Total Energy            Largest Density Difference
  --------------------------------------------------------------------
       0          -854.331608795380475              0.0000000000D+00
   current occupation vector 
    16 11 12  7
    16 11 12  7
       1          -854.331601860538171              0.8652527563D-05
   current occupation vector 
    16 12 11  7
    16 12 11  7
       2          -854.331601860555907              0.1139197040D-05
   current occupation vector 
    16 12 11  7
    16 12 11  7
       3          -854.331601860573642              0.8282586266D-06
   current occupation vector 
    16 12 11  7
    16 12 11  7
       4          -854.331601860568185              0.5909855550D-06
   current occupation vector 
    16 12 11  7
    16 12 11  7
       5          -854.331601860562273              0.4326617332D-06
   current occupation vector 
    16 12 11  7
    16 12 11  7
       6          -854.331601860557953              0.2867372389D-06
   current occupation vector 
    16 12 11  7
    16 12 11  7
       7          -854.331601860565229              0.1519563765D-06
   current occupation vector 
    16 12 11  7
    16 12 11  7
       8          -854.331601860567048              0.7261373347D-07
   current occupation vector 
    16 12 11  7
    16 12 11  7
       9          -854.331601860570231              0.2600352728D-07
   current occupation vector 
    16 12 11  7
    16 12 11  7
      10          -854.331601860568185              0.1058802190D-07
   current occupation vector 
    16 12 11  7
    16 12 11  7
      11          -854.331601860560227              0.3928391834D-08
   current occupation vector 
    16 12 11  7
    16 12 11  7
      12          -854.331601860580463              0.2888596251D-08
   current occupation vector 
    16 12 11  7
    16 12 11  7
      13          -854.331601860568867              0.6556499788D-09
   current occupation vector 
    16 12 11  7
    16 12 11  7
      14          -854.331601860566821              0.3160327555D-09
   current occupation vector 
    16 12 11  7
    16 12 11  7
      15          -854.331601860569322              0.1599751442D-09
   current occupation vector 
    16 12 11  7
    16 12 11  7
      16          -854.331601860570913              0.1226347635D-09
   current occupation vector 
    16 12 11  7
    16 12 11  7

  SCF has converged.

 Density matrix saved to file den.dat
 total electron number:   92.0000000000003     
     E(SCF)=      -854.331601860569776              0.7779793476D-10


  Final occupancies:

     Alpha population by irrep:  16   12   11    7
      Beta population by irrep:  16   12   11    7


  Eigenvector printing suppressed.

 @PUTMOS-I, Writing converged MOs to NEWMOS. 
 @PUTMOS-I, Symmetry   1 Full Blocks 21 Partial Blocksize   2
 @PUTMOS-I, Symmetry   2 Full Blocks 16 Partial Blocksize   3
 @PUTMOS-I, Symmetry   3 Full Blocks 16 Partial Blocksize   3
 @PUTMOS-I, Symmetry   4 Full Blocks 12 Partial Blocksize   0


 
  ORBITAL EIGENVALUES (ALPHA)  (1H = 27.2113838 eV)

       MO #        E(hartree)               E(eV)           FULLSYM    COMPSYM
       ----   --------------------   --------------------   -------   ---------
    1     1          -6.7009552386        -182.3422649547      E         A1 (1)
    2   154          -6.7009515682        -182.3421650774      E         B2 (3)
    3    87          -6.6765441796        -181.6780062590      E         B1 (2)
    4     2          -6.6765440123        -181.6780017075      E         A1 (1)
    5     3          -4.2808572997        -116.4880510588      A1        A1 (1)
    6   155          -4.2807390171        -116.4848324245      B2        B2 (3)
    7    88          -4.2760169978        -116.3563397455      B1        B1 (2)
    8   221          -4.2759861466        -116.3555002433      A2        A2 (4)
    9     4          -4.2757643822        -116.3494657249      A1        A1 (1)
   10   156          -4.2756742893        -116.3470141740      B2        B2 (3)
   11     5          -4.2559283434        -115.8096996616      E         A1 (1)
   12    89          -4.2559273990        -115.8096739615      E         B1 (2)
   13   157          -4.2538142222        -115.7521714983      E         B2 (3)
   14   222          -4.2538131104        -115.7521412427      E         A2 (4)
   15    90          -4.2491317540        -115.6247550576      E         B1 (2)
   16     6          -4.2491286757        -115.6246712937      E         A1 (1)
   17     7          -1.3393775483         -36.4463165468      A1        A1 (1)
   18    91          -1.3379555339         -36.4076215660      B1        B1 (2)
   19     8          -1.3365059763         -36.3681770989      A1        A1 (1)
   20   158          -1.3350227352         -36.3278160554      B2        B2 (3)
   21   223          -1.3332989584         -36.2809097025      A2        A2 (4)
   22    92          -1.3309077398         -36.2158413367      B1        B1 (2)
   23   224          -1.3307431081         -36.2113614787      A2        A2 (4)
   24     9          -1.3285102618         -36.1506026421      A1        A1 (1)
   25   159          -1.3283164316         -36.1453282554      B2        B2 (3)
   26   160          -1.3259052647         -36.0797170655      B2        B2 (3)
   27    10          -1.3096613239         -35.6376969573      A1        A1 (1)
   28    93          -1.3087129243         -35.6118896935      B1        B1 (2)
   29   161          -1.3081443751         -35.5964186832      B2        B2 (3)
   30   225          -1.3074470898         -35.5774445836      A2        A2 (4)
   31    11          -1.3046608290         -35.5016265713      A1        A1 (1)
   32    94          -1.3024859516         -35.4424451480      B1        B1 (2)
   33   162          -1.3020336700         -35.4301379397      B2        B2 (3)
   34    95          -1.3006475011         -35.3924183667      B1        B1 (2)
   35   226          -1.3003688273         -35.3848352665      A2        A2 (4)
   36    12          -1.2997348627         -35.3675842116      A1        A1 (1)
   37    13          -0.8381118130         -22.8061822278      A1        A1 (1)
   38    96          -0.7132170072         -19.4076217288      B1        B1 (2)
   39   163          -0.6894207504         -18.7600926512      B2        B2 (3)
   40    14          -0.6149115898         -16.7325952862      A1        A1 (1)
   41    15          -0.3487268687          -9.4893406713      A1        A1 (1)
   42   227          -0.3263966912          -8.8817056420      A2        A2 (4)
   43    97          -0.3188550930          -8.6764883188      B1        B1 (2)
   44    16          -0.3150669748          -8.5734083798      A1        A1 (1)
   45   164          -0.2585176570          -7.0346231875      B2        B2 (3)
   46    98          -0.2179145775          -5.9297572075      B1        B1 (2)
  +++++++++++++++++++++++++++++++++++++++++++++++++++++++++++++++++++++++++++++
   47    17          -0.0362145928          -0.9854491845      A1        A1 (1)
   48   165          -0.0021924344          -0.0596591748      B2        B2 (3)
   49   166           0.0195327548           0.5315132877      B2        B2 (3)
   50    18           0.0455002958           1.2381260127      A1        A1 (1)
   51    99           0.0471191714           1.2821778578      B1        B1 (2)
   52   228           0.0684495471           1.8626068973      A2        A2 (4)
   53    19           0.1138404954           3.0977574138      A1        A1 (1)
   54   100           0.1441688424           3.9230337053      B1        B1 (2)
   55    20           0.1448146354           3.9406066257      A1        A1 (1)
   56    21           0.1461863704           3.9779334345      A1        A1 (1)
   57   229           0.1482596253           4.0343495688      A2        A2 (4)
   58   167           0.1505709574           4.0972441130      B2        B2 (3)
   59   101           0.1651049652           4.4927345774      B1        B1 (2)
   60   168           0.1700085923           4.6261690584      B2        B2 (3)
   61    22           0.1705775084           4.6416500511      A1        A1 (1)
   62   102           0.1941271750           5.2824690688      B1        B1 (2)
   63    23           0.1950885955           5.3086306510      A1        A1 (1)
   64   169           0.1973537120           5.3702676049      B2        B2 (3)
   65   103           0.2141939226           5.8285130393      B1        B1 (2)
   66   230           0.2171205876           5.9081516442      A2        A2 (4)
   67    24           0.2297787689           6.2525982730      A1        A1 (1)
   68   170           0.2378954928           6.4734655626      B2        B2 (3)
   69   231           0.2589044569           7.0451485495      A2        A2 (4)
   70    25           0.2671363057           7.2691485478      A1        A1 (1)
   71   104           0.2731260091           7.4321366641      B1        B1 (2)
   72   171           0.2947432481           8.0203716519      B2        B2 (3)
   73    26           0.2987924938           8.1305572322      A1        A1 (1)
   74   105           0.3549308293           9.6581590250      B1        B1 (2)
   75   232           0.3593854381           9.7793750961      A2        A2 (4)
   76   172           0.3760044645          10.2316018005      B2        B2 (3)
   77    27           0.3789613546          10.3120628724      A1        A1 (1)
   78    28           0.3949887431          10.7481902929      A1        A1 (1)
   79   106           0.3953415085          10.7577895275      B1        B1 (2)
   80   233           0.4029301233          10.9642862371      A2        A2 (4)
   81   173           0.4076256998          11.0920593725      B2        B2 (3)
   82   107           0.4220199648          11.4837472404      B1        B1 (2)
   83    29           0.4261456220          11.5960120826      A1        A1 (1)
   84   174           0.4314663953          11.7407976883      B2        B2 (3)
   85    30           0.4368803253          11.8881182162      A1        A1 (1)
   86   108           0.4480075081          12.1909042569      B1        B1 (2)
   87   175           0.4744451798          12.9103098896      B2        B2 (3)
   88   234           0.4744923314          12.9115929502      A2        A2 (4)
   89   109           0.5618804954          15.2895458224      B1        B1 (2)
   90    31           0.5632821880          15.3276878157      A1        A1 (1)
   91    32           0.5764476287          15.6859376765      A1        A1 (1)
   92   110           0.6034790025          16.4214987654      B1        B1 (2)
   93   176           0.6207403387          16.8912036088      B2        B2 (3)
   94   235           0.6297202882          17.1355604603      A2        A2 (4)
   95    33           0.6396620944          17.4060907667      A1        A1 (1)
   96   236           0.6483019466          17.6411930987      A2        A2 (4)
   97   111           0.6499833469          17.6869463290      B1        B1 (2)
   98   177           0.6641163826          18.0715257868      B2        B2 (3)
   99    34           0.7105933163          19.3362274690      A1        A1 (1)
  100   237           0.7171568737          19.5148309492      A2        A2 (4)
  101    35           0.7268762556          19.7793087817      A1        A1 (1)
  102   178           0.7425313620          20.2053058895      B2        B2 (3)
  103   112           0.7435511211          20.2330549445      B1        B1 (2)
  104    36           0.7660045822          20.8440446934      A1        A1 (1)
  105    37           0.7775198891          21.1573921302      A1        A1 (1)
  106   113           0.7856297786          21.3780734459      B1        B1 (2)
  107    38           0.7961479359          21.6642870604      A1        A1 (1)
  108   179           0.7992186337          21.7478449971      B2        B2 (3)
  109   238           0.8105032546          22.0549151486      A2        A2 (4)
  110   114           0.8135516035          22.1378649403      B1        B1 (2)
  111    39           0.8307430849          22.6056689391      A1        A1 (1)
  112   180           0.8484702044          23.0880483901      B2        B2 (3)
  113   181           0.8539922644          23.2383112868      B2        B2 (3)
  114   182           0.8680136977          23.6198538900      B2        B2 (3)
  115   239           0.8824635062          24.0130531753      A2        A2 (4)
  116   115           0.8841371511          24.0585953668      B1        B1 (2)
  117    40           0.8860428389          24.1104517709      A1        A1 (1)
  118   116           0.9091300426          24.7386865320      B1        B1 (2)
  119   240           0.9105420720          24.7771098053      A2        A2 (4)
  120   117           0.9133692678          24.8540417161      B1        B1 (2)
  121    41           0.9168701099          24.9493044723      A1        A1 (1)
  122   183           0.9273054890          25.2332655805      B2        B2 (3)
  123    42           0.9335938679          25.4043810709      A1        A1 (1)
  124   241           0.9388257579          25.5467480378      A2        A2 (4)
  125    43           0.9399197769          25.5765178101      A1        A1 (1)
  126    44           0.9506179183          25.8676290395      A1        A1 (1)
  127   184           0.9520941887          25.9078004014      B2        B2 (3)
  128   185           0.9535933008          25.9485933168      B2        B2 (3)
  129   118           0.9619124984          26.1749701957      B1        B1 (2)
  130   242           0.9639926328          26.2315735299      A2        A2 (4)
  131   186           0.9697850660          26.3891936523      B2        B2 (3)
  132   119           0.9811992041          26.6997881456      B1        B1 (2)
  133   243           0.9899311226          26.9373957328      A2        A2 (4)
  134   187           0.9903323761          26.9483143954      B2        B2 (3)
  135    45           0.9940366320          27.0491123247      A1        A1 (1)
  136   120           1.0057408092          27.3675991833      B1        B1 (2)
  137    46           1.0190968860          27.7310365144      A1        A1 (1)
  138   188           1.0404497281          28.3120768950      B2        B2 (3)
  139   189           1.0516868325          28.6178540559      B2        B2 (3)
  140   121           1.0621746386          28.9032417735      B1        B1 (2)
  141    47           1.0683025801          29.0699915427      A1        A1 (1)
  142   244           1.0683940451          29.0724804326      A2        A2 (4)
  143   122           1.0913767194          29.6978708032      B1        B1 (2)
  144   245           1.0969231129          29.8487958446      A2        A2 (4)
  145    48           1.1144097704          30.3246319944      A1        A1 (1)
  146   123           1.1526571154          31.3653951785      B1        B1 (2)
  147    49           1.1733378500          31.9281465862      A1        A1 (1)
  148   190           1.4010778661          38.1252675760      B2        B2 (3)
  149   246           1.4645548843          39.8525650815      A2        A2 (4)
  150   124           1.4865132337          40.4500821552      B1        B1 (2)
  151    50           1.4936031785          40.6430093633      A1        A1 (1)
  152   191           1.5006687712          40.8352739205      B2        B2 (3)
  153   125           1.5042407060          40.9324712078      B1        B1 (2)
  154   247           1.5388706598          41.8748001722      A2        A2 (4)
  155   192           1.5437992131          42.0089129279      B2        B2 (3)
  156    51           1.5445551107          42.0294819478      A1        A1 (1)
  157   126           1.5535927906          42.2754097232      B1        B1 (2)
  158    52           1.5538907196          42.2835167838      A1        A1 (1)
  159   193           1.5689611082          42.6936029143      B2        B2 (3)
  160   248           1.5739156416          42.8284226220      A2        A2 (4)
  161    53           1.5812486091          43.0279628158      A1        A1 (1)
  162   249           1.5832964260          43.0836867478      A2        A2 (4)
  163   194           1.5982582260          43.4908180307      B2        B2 (3)
  164    54           1.5998333068          43.5336781581      A1        A1 (1)
  165   127           1.6071035683          43.7315120346      B1        B1 (2)
  166    55           1.6084022388          43.7668506569      A1        A1 (1)
  167   128           1.6165122714          43.9875358667      B1        B1 (2)
  168   195           1.6310658730          44.3835595055      B2        B2 (3)
  169   196           1.6330091678          44.4364392458      B2        B2 (3)
  170    56           1.6448383858          44.7583286375      A1        A1 (1)
  171   197           1.6492749429          44.8790534962      B2        B2 (3)
  172   129           1.6513385512          44.9352071318      B1        B1 (2)
  173   250           1.6526363896          44.9705231127      A2        A2 (4)
  174   130           1.6535534176          44.9954767120      B1        B1 (2)
  175   251           1.6593657646          45.1536387167      A2        A2 (4)
  176    57           1.6625525077          45.2403544071      A1        A1 (1)
  177   131           1.6688534869          45.4118127693      B1        B1 (2)
  178    58           1.6831297680          45.8002901358      A1        A1 (1)
  179   252           1.7294717982          47.0613209054      A2        A2 (4)
  180   198           1.7297063770          47.0677041206      B2        B2 (3)
  181   132           1.7582982197          47.8457277245      B1        B1 (2)
  182    59           1.7704954548          48.1776313707      A1        A1 (1)
  183   253           1.7834112557          48.5290881866      A2        A2 (4)
  184   199           1.7887991164          48.6756993324      B2        B2 (3)
  185    60           1.8217767942          49.5730675803      A1        A1 (1)
  186   254           1.8350807789          49.9350874158      A2        A2 (4)
  187   200           1.8358850800          49.9569735605      B2        B2 (3)
  188    61           1.8614732981          50.6532643838      A1        A1 (1)
  189   133           1.8729421798          50.9653485253      B1        B1 (2)
  190   134           1.8838014622          51.2608446273      B1        B1 (2)
  191   255           1.8927901097          51.5054381646      A2        A2 (4)
  192    62           1.8955090113          51.5794232395      A1        A1 (1)
  193   201           1.9440119012          52.8992539942      B2        B2 (3)
  194   135           1.9474292072          52.9922436197      B1        B1 (2)
  195   136           1.9701273535          53.6098915908      B1        B1 (2)
  196    63           1.9817560326          53.9263240398      A1        A1 (1)
  197   137           2.0716911453          56.3735829101      B1        B1 (2)
  198   202           2.0788974076          56.5696752790      B2        B2 (3)
  199   256           2.1000130653          57.1442615451      A2        A2 (4)
  200    64           2.1054979460          57.2935127407      A1        A1 (1)
  201   257           2.1074963944          57.3478932857      A2        A2 (4)
  202    65           2.1132497411          57.5044498119      A1        A1 (1)
  203   203           2.1234277710          57.7814080903      B2        B2 (3)
  204   204           2.1993903253          59.8484543104      B2        B2 (3)
  205    66           2.2183633310          60.3647360500      A1        A1 (1)
  206   138           2.2272189455          60.6057095756      B1        B1 (2)
  207   205           2.2281804177          60.6318725640      B2        B2 (3)
  208   258           2.2732228693          61.8575400033      A2        A2 (4)
  209    67           2.2750951412          61.9084871146      A1        A1 (1)
  210   139           2.2993027316          62.5672091465      B1        B1 (2)
  211   259           2.3051257844          62.7256624716      A2        A2 (4)
  212   206           2.3390943912          63.6499952690      B2        B2 (3)
  213    68           2.3399826881          63.6741670578      A1        A1 (1)
  214   260           2.4166936892          65.7615795512      A2        A2 (4)
  215   140           2.4376423770          66.3316223365      B1        B1 (2)
  216   207           2.4535255392          66.7638251573      B2        B2 (3)
  217   141           2.6758733697          72.8142173142      B1        B1 (2)
  218    69           2.6908508928          73.2217764458      A1        A1 (1)
  219   208           2.7061852122          73.6390444950      B2        B2 (3)
  220    70           2.7111936206          73.7753302189      A1        A1 (1)
  221   261           2.7221894035          74.0745406881      A2        A2 (4)
  222    71           2.7247365589          74.1438523109      A1        A1 (1)
  223   142           2.7633227132          75.1938349652      B1        B1 (2)
  224   209           2.7726081426          75.4465043497      B2        B2 (3)
  225    72           2.7732497265          75.4639627362      A1        A1 (1)
  226   262           2.7955310854          76.0702693456      A2        A2 (4)
  227    73           2.7985453042          76.1522904100      A1        A1 (1)
  228   143           2.7998851270          76.1887488403      B1        B1 (2)
  229   210           2.8185719878          76.6972441832      B2        B2 (3)
  230    74           2.8283166834          76.9624108345      A1        A1 (1)
  231   211           2.8618841866          77.8758290477      B2        B2 (3)
  232   263           2.8841834560          78.4826230274      A2        A2 (4)
  233   144           2.8933618252          78.7323791536      B1        B1 (2)
  234    75           2.8938837321          78.7465809630      A1        A1 (1)
  235   212           2.9224755223          79.5246031405      B2        B2 (3)
  236   145           2.9375056242          79.9335930119      B1        B1 (2)
  237   146           2.9455555529          80.1526427105      B1        B1 (2)
  238   264           2.9460636235          80.1664680165      A2        A2 (4)
  239    76           2.9677145488          80.7556196549      A1        A1 (1)
  240   213           2.9740858959          80.9289928266      B2        B2 (3)
  241   147           3.0194744423          82.1640779819      B1        B1 (2)
  242    77           3.0580914065          83.2148990171      A1        A1 (1)
  243   265           3.1609679600          86.0143124015      A2        A2 (4)
  244    78           3.2425912698          88.2353956126      A1        A1 (1)
  245   214           3.2665423954          88.8871388834      B2        B2 (3)
  246   148           3.2924158383          89.5911910691      B1        B1 (2)
  247    79           3.3996160283          92.5082565853      A1        A1 (1)
  248   215           3.5699698706          97.1438203742      B2        B2 (3)
  249   216           3.6418532543          99.0998667182      B2        B2 (3)
  250    80           3.6899703706         100.4092000366      A1        A1 (1)
  251   149           3.7589617623         102.2865512761      B1        B1 (2)
  252   266           3.7806071202         102.8755514184      A2        A2 (4)
  253    81          35.9271545538         977.6275921087      A1        A1 (1)
  254   217          35.9379564414         977.9215264174      B2        B2 (3)
  255   150          35.9531439910         978.3348006591      B1        B1 (2)
  256    82          35.9567226801         978.4321817434      A1        A1 (1)
  257   267          35.9574487176         978.4519382281      A2        A2 (4)
  258    83          35.9897549659         979.3310359485      A1        A1 (1)
  259   151          35.9982375971         979.5618600842      B1        B1 (2)
  260   218          36.0001735102         979.6145389587      B2        B2 (3)
  261   219          36.0811580159         981.8182394267      B2        B2 (3)
  262   268          36.0873684396         981.9872336477      A2        A2 (4)
  263    84          36.1387458724         983.3852846922      A1        A1 (1)
  264   152          36.1459612055         983.5816238901      B1        B1 (2)
  265    85          60.0982460482        1635.3564401020      A1        A1 (1)
  266   153          60.2374504301        1639.1443839667      B1        B1 (2)
  267   220          60.3332575110        1641.7514272184      B2        B2 (3)
  268    86          60.3797064039        1643.0153658706      A1        A1 (1)


  VSCF finished.

  @CHECKOUT-I, Total execution time (CPU/WALL):        8.58/       8.60 seconds.
--executable xvscf finished with status     0 in        8.67 seconds (walltime).
 --invoking executable--
/opt/vulcan/opt/vulcan/linux-x86_64/intel-16.0.1/cfour-2.0-hjkzrfqmrmfvexnyvlji4zmpovcjpspy/bin/xvtran
 @GETMEM-I,  Allocated   28610 MB of main memory.
  Partial RHF integral transformation
 ! shown number of AO integrals not right ! (in parallel version)
  Transformation of IIII integrals :
  1 pass through the AO integral file was required.
     2966477 AO integrals were read.
     6962127 MO integrals were written to HF2.
  Transformation of IIJJ integrals :
  1 pass through the AO integral file was required.
     7420925 AO integrals were read.
    16900071 MO integrals were written to HF2.
  Transformation of IJIJ integrals :
  1 pass through the AO integral file was required.
    14467039 AO integrals were read.
    33008783 MO integrals were written to HF2.
  Transformation of IJKL integrals :
  1 pass through the AO integral file was required.
    13008448 AO integrals were read.
    29072976 MO integrals were written to HF2.
  Summary of active molecular orbitals: 
------------------------------------------------------------------------
 
  Index      Eigenvalue    Symmetry    Index      Eigenvalue    Symmetry
------------------------------------------------------------------------
     1        -6.7009552        1       135         0.9133693        2
     2        -6.6765440        1       136         0.9619125        2
     3        -4.2808573        1       137         0.9811992        2
     4        -4.2757644        1       138         1.0057408        2
     5        -4.2559283        1       139         1.0621746        2
     6        -4.2491287        1       140         1.0913767        2
     7        -1.3393775        1       141         1.1526571        2
     8        -1.3365060        1       142         1.4865132        2
     9        -1.3285103        1       143         1.5042407        2
    10        -1.3096613        1       144         1.5535928        2
    11        -1.3046608        1       145         1.6071036        2
    12        -1.2997349        1       146         1.6165123        2
    13        -0.8381118        1       147         1.6513386        2
    14        -0.6149116        1       148         1.6535534        2
    15        -0.3487269        1       149         1.6688535        2
    16        -0.3150670        1       150         1.7582982        2
    17        -6.6765442        2       151         1.8729422        2
    18        -4.2760170        2       152         1.8838015        2
    19        -4.2559274        2       153         1.9474292        2
    20        -4.2491318        2       154         1.9701274        2
    21        -1.3379555        2       155         2.0716911        2
    22        -1.3309077        2       156         2.2272189        2
    23        -1.3087129        2       157         2.2993027        2
    24        -1.3024860        2       158         2.4376424        2
    25        -1.3006475        2       159         2.6758734        2
    26        -0.7132170        2       160         2.7633227        2
    27        -0.3188551        2       161         2.7998851        2
    28        -0.2179146        2       162         2.8933618        2
    29        -6.7009516        3       163         2.9375056        2
    30        -4.2807390        3       164         2.9455556        2
    31        -4.2756743        3       165         3.0194744        2
    32        -4.2538142        3       166         3.2924158        2
    33        -1.3350227        3       167         3.7589618        2
    34        -1.3283164        3       168        35.9531440        2
    35        -1.3259053        3       169        35.9982376        2
    36        -1.3081444        3       170        36.1459612        2
    37        -1.3020337        3       171        60.2374504        2
    38        -0.6894208        3       172        -0.0021924        3
    39        -0.2585177        3       173         0.0195328        3
    40        -4.2759861        4       174         0.1505710        3
    41        -4.2538131        4       175         0.1700086        3
[...]
 BI    -0.000-0.0595 -0.4449    0.0000 -0.4664 -0.1438   -0.5827 -0.0000  0.0000
 BI    -0.317 0.0000  0.4449    0.4910 -0.0000  0.1438   -0.0000 -0.4006 -0.0000
 BI     0.317 0.0000  0.4449   -0.4910  0.0000  0.1438   -0.0000  0.4006 -0.0000

                B2                        B1                        A1
               113.65                    147.14                    157.43 
             VIBRATION                 VIBRATION                 VIBRATION 
 BI     0.000 0.4559  0.2904    0.4776 -0.0000 -0.0000    0.0000  0.5281  0.1771
 BI    -0.000 0.4559 -0.2904    0.4776  0.0000 -0.0000    0.0000 -0.5281  0.1771
 BI    -0.000-0.4559  0.0000   -0.4776  0.0000 -0.2093   -0.3979 -0.0000 -0.1771
 BI    -0.000-0.4559  0.0000   -0.4776  0.0000  0.2093    0.3979 -0.0000 -0.1771
 
                      Normal modes in internal coordinates 
---------------------------------------------------------------------------
              0.465         0.000         0.000         0.000         0.366
---------------------------------------------------------------------------
r1         0.000000      0.000000      0.000000      0.000000      0.000000
r2        -0.014206     -0.031652     -0.013822      0.001846     -0.000000
a1        -0.015290     -0.004745      0.010868      0.000016     -0.000000
r2         0.014206      0.031652      0.013822     -0.001846      0.000000
a1         0.015290     -0.004745      0.010868      0.000016     -0.000000
d1         0.000000     -0.001173     -0.000477     -0.023683     -0.007019
r3        -0.000000     -0.003986      0.013356      0.031654      0.009372
a2        -0.000000     -0.002886      0.006209     -0.002983      0.010128
d2        -0.003349      0.006875      0.003020     -0.012277     -0.003510
r3        -0.000000     -0.007120      0.012082     -0.031617     -0.009372
a2         0.000000     -0.002589      0.006330      0.003002     -0.010128
d3         0.003349     -0.008049     -0.003497     -0.011406     -0.003510
---------------------------------------------------------------------------
              0.512        53.697        90.183       106.183       113.654
---------------------------------------------------------------------------
r1         0.000000      0.000000      0.000000      0.000000      0.000000
r2        -0.000000     -0.183343     -0.477168      0.000000     -0.673195
a1        -0.000000     -0.469955     -0.050442     -0.000000      0.147042
r2         0.000000     -0.183343     -0.477168     -0.000000      0.673195
a1        -0.000000     -0.469955     -0.050442      0.000000     -0.147042
d1         0.000000      0.000000     -0.000000      0.000000      0.000000
r3        -0.000000     -0.344896      0.519190     -0.000000     -0.000000
a2        -0.000000      0.355773     -0.014428      0.000000      0.000000
d2         0.000000      0.000000     -0.000000     -0.707107     -0.158706
r3         0.000000     -0.344896      0.519190     -0.000000      0.000000
a2         0.000000      0.355773     -0.014428     -0.000000      0.000000
d3         0.000000      0.000000     -0.000000     -0.707107      0.158706
---------------------------------------------------------------------------
            147.139       157.432
---------------------------------------------------------------------------
r1         0.000000      0.000000
r2         0.000000     -0.543402
a1        -0.000000      0.062483
r2         0.000000     -0.543402
a1        -0.000000      0.062483
d1        -0.390131     -0.000000
r3        -0.621167     -0.448119
a2        -0.000012     -0.000574
d2        -0.195066     -0.000000
r3         0.621167     -0.448119
a2         0.000012     -0.000574
d3        -0.195066     -0.000000
---------------------------------------------------------------------------
 
  ----------------------------------------------------------------
                    Dipole Moment Function
                   (Normal Coordinate Basis)
  ----------------------------------------------------------------
    Mode     Symmetry    d(Mu(x))/dQ   d(Mu(y))/dQ   d(Mu(z))/dQ
  ----------------------------------------------------------------
     Q7          A1        0.000000      0.000000      0.003248
     Q8          A1       -0.000000      0.000000     -0.004470
     Q9          A2       -0.000000     -0.000000      0.000000
     Q10         B2        0.000000      0.004703      0.000000
     Q11         B1        0.044775     -0.000000     -0.000000
     Q12         A1        0.000000      0.000000      0.006274
  ----------------------------------------------------------------
---------------------------------------------------------------------------
------------------------------------------------------------
        Parameter                (MHz)                 (CM-1)
------------------------------------------------------------
 
           R6                -.113375E-06           -.378178E-11
           R5                -.999718E-06           -.333470E-10
           SI                            0.824489E+01
 
  A-reduced centrifugal distortion parameters (Ir representation) 
 
           DJ                0.292598E-05           0.976003E-10
           DK                0.285593E-04           0.952635E-09
           DJK               -.300074E-05           -.100094E-09
           DELJ              0.315273E-05           0.105164E-09
           DELK              0.296930E-04           0.990453E-09
           DELJK             -.436124E-05           -.145475E-09
           delJ              0.642916E-06           0.214454E-10
           delK              0.573849E-05           0.191415E-09
 
  S-reduced centrifugal distortion parameters (Ir representation) 
 
           DJ                0.280473E-05           0.935558E-10
           DK                0.279530E-04           0.932412E-09
           DJK               -.227322E-05           -.758265E-10
           D1                -.642916E-06           -.214454E-10
           D2                -.174001E-06           -.580406E-11
------------------------------------------------------------
  ierr and ierr2                      1                     1
   Vibrational frequencies after rotational projection  of 
   Cartesian force constants: 
            1               0.0000i
            2               0.0000i
            3               0.0000i
            4               0.0000i
            5               0.0000 
            6               0.0000 
            7              53.6970 
            8              90.1830 
            9             106.1826 
           10             113.6541 
           11             147.1393 
           12             157.4324 
  Zero-point energy:    0.9554 kcal/mol =    3.9973 kJ/mol =     334.144 cm-1 
 
  @CHECKOUT-I, Total execution time (CPU/WALL):        0.16/       0.26 seconds.
--executable xjoda finished with status     0 in        0.40 seconds (walltime).
 --invoking executable--
/opt/vulcan/opt/vulcan/linux-x86_64/intel-16.0.1/cfour-2.0-hjkzrfqmrmfvexnyvlji4zmpovcjpspy/bin/xcubic
 @GETMEM-I,  Allocated   28610 MB of main memory.
 @GETREC: requested length of vector SVAVA0X  is longer than actual
 Actual --                      2  Requested --                      4
 @GETREC: requested length of vector SVBVB0X  is longer than actual
 Actual --                      2  Requested --                      4
 @GETREC: requested length of vector SOAOA0X  is longer than actual
 Actual --                      2  Requested --                      4
 @GETREC: requested length of vector SOBOB0X  is longer than actual
 Actual --                      2  Requested --                      4
 @GETREC: requested length of vector SVAVA1X  is longer than actual
 Actual --                      2  Requested --                      4
 @GETREC: requested length of vector SVBVB1X  is longer than actual
 Actual --                      2  Requested --                      4
 @GETREC: requested length of vector SOAOA1X  is longer than actual
 Actual --                      2  Requested --                      4
 @GETREC: requested length of vector SOBOB1X  is longer than actual
 Actual --                      2  Requested --                      4
 @GETREC: requested length of vector SVAOA2X  is longer than actual
 Actual --                      2  Requested --                      4
 @GETREC: requested length of vector SVBOB2X  is longer than actual
 Actual --                      2  Requested --                      4
 @GETREC: requested length of vector SOBVA2X  is longer than actual
 Actual --                      2  Requested --                      4
 @GETREC: requested length of vector SVBOA2X  is longer than actual
 Actual --                      2  Requested --                      4
 @GETREC: requested length of vector SVAVB2X  is longer than actual
 Actual --                      2  Requested --                      4
 @GETREC: requested length of vector SOAOB2X  is longer than actual
 Actual --                      2  Requested --                      4
 @GETREC: requested length of vector SVAVB2X  is longer than actual
 Actual --                      2  Requested --                      4
 @GETREC: requested length of vector SOAVA2X  is longer than actual
 Actual --                      2  Requested --                      4
 @GETREC: requested length of vector SOBVB2X  is longer than actual
 Actual --                      2  Requested --                      4
 @GETREC: requested length of vector SOAVB2X  is longer than actual
 Actual --                      2  Requested --                      4
 @GETREC: requested length of vector SVAVA2X  is longer than actual
 Actual --                      2  Requested --                      4
 @GETREC: requested length of vector SVBVB2X  is longer than actual
 Actual --                      2  Requested --                      4
 @GETREC: requested length of vector SOAOA2X  is longer than actual
 Actual --                      2  Requested --                      4
 @GETREC: requested length of vector SOBOB2X  is longer than actual
 Actual --                      2  Requested --                      4
 @GETREC: requested length of vector XVAVA0X  is longer than actual
 Actual --                      2  Requested --                      4
 @GETREC: requested length of vector XVBVB0X  is longer than actual
 Actual --                      2  Requested --                      4
 @GETREC: requested length of vector XOAOA0X  is longer than actual
 Actual --                      2  Requested --                      4
 @GETREC: requested length of vector XOBOB0X  is longer than actual
 Actual --                      2  Requested --                      4
 @GETREC: requested length of vector XVAVA1X  is longer than actual
 Actual --                      2  Requested --                      4
 @GETREC: requested length of vector XVBVB1X  is longer than actual
 Actual --                      2  Requested --                      4
 @GETREC: requested length of vector XOAOA1X  is longer than actual
 Actual --                      2  Requested --                      4
 @GETREC: requested length of vector XOBOB1X  is longer than actual
 Actual --                      2  Requested --                      4
 @GETREC: requested length of vector XVAOA2X  is longer than actual
 Actual --                      2  Requested --                      4
 @GETREC: requested length of vector XVBOB2X  is longer than actual
 Actual --                      2  Requested --                      4
 @GETREC: requested length of vector XOBVA2X  is longer than actual
 Actual --                      2  Requested --                      4
 @GETREC: requested length of vector XVBOA2X  is longer than actual
 Actual --                      2  Requested --                      4
 @GETREC: requested length of vector XVAVB2X  is longer than actual
 Actual --                      2  Requested --                      4
 @GETREC: requested length of vector XOAOB2X  is longer than actual
 Actual --                      2  Requested --                      4
 @GETREC: requested length of vector XVAVB2X  is longer than actual
 Actual --                      2  Requested --                      4
 @GETREC: requested length of vector XOAVA2X  is longer than actual
 Actual --                      2  Requested --                      4
 @GETREC: requested length of vector XOBVB2X  is longer than actual
 Actual --                      2  Requested --                      4
 @GETREC: requested length of vector XOAVB2X  is longer than actual
 Actual --                      2  Requested --                      4
 @GETREC: requested length of vector XVAVA2X  is longer than actual
 Actual --                      2  Requested --                      4
 @GETREC: requested length of vector XVBVB2X  is longer than actual
 Actual --                      2  Requested --                      4
 @GETREC: requested length of vector XOAOA2X  is longer than actual
 Actual --                      2  Requested --                      4
 @GETREC: requested length of vector XOBOB2X  is longer than actual
 Actual --                      2  Requested --                      4
 @GETREC: requested length of vector SYMPOPOA is longer than actual
 Actual --                      2  Requested --                      4
 @GETREC: requested length of vector SYMPOPOB is longer than actual
 Actual --                      2  Requested --                      4
 @GETREC: requested length of vector SYMPOPVA is longer than actual
 Actual --                      2  Requested --                      4
 @GETREC: requested length of vector SYMPOPVB is longer than actual
 Actual --                      2  Requested --                      4
  linear flag is set to                      0
  charges                     0                     0                    83
                    83                    83                    83
  Analysis of normal coordinate   1:
  Mode is not totally symmetric.
  Analysis of normal coordinate   2:
  Mode is not totally symmetric, but + and - distinct.
  Analysis of normal coordinate   3:
  Mode is not totally symmetric, but + and - distinct.
  Analysis of normal coordinate   4:
  Mode is not totally symmetric, but + and - distinct.
  Analysis of normal coordinate   5:
  Mode is not totally symmetric.
  Analysis of normal coordinate   6:
  Mode is not totally symmetric.
  Analysis of normal coordinate   7:
  Mode is totally symmetric.
  Analysis of normal coordinate   8:
  Mode is totally symmetric.
  Analysis of normal coordinate   9:
  Mode is not totally symmetric.
  Analysis of normal coordinate  10:
  Mode is not totally symmetric.
  Analysis of normal coordinate  11:
  Mode is not totally symmetric.
  Analysis of normal coordinate  12:
  Mode is totally symmetric.
  Choosing displaced geometries for anharmonic force constant calculation.

 *Analyzing normal coordinate   7.
  This totally symmetric coordinate will be used. [  7]
 *Analyzing normal coordinate   8.
  This totally symmetric coordinate will be used. [  8]
 *Analyzing normal coordinate   9.
  The one-dimensional nonsymmetric coordinate will be used. [  9]
 *Analyzing normal coordinate  10.
  The one-dimensional nonsymmetric coordinate will be used. [ 10]
 *Analyzing normal coordinate  11.
  The one-dimensional nonsymmetric coordinate will be used. [ 11]
 *Analyzing normal coordinate  12.
  This totally symmetric coordinate will be used. [ 12]
  Summary of displaced coordinates used in calculation
  charges                     0                     0                    83
                    83                    83                    83
 IPOS                     0
 IPOS                     0
 IPOS                     0
 IPOS                     0
 IPOS                     0
 IPOS                     0
 IPOS                     0
 IPOS                     0
 IPOS                     0
 IPOS                     0
 IPOS                     0
 IPOS                     0
 IPOS                     0
 are you here with nuse =                      6
  Normal coordinate   7, positive displacement:
BI        0.000000000000000       -2.916384319788628       -0.931391748847898
BI       -0.000000000000000        2.916384319788628       -0.931391748847898
BI        4.240124145440650        0.000000000000001        0.931391748847898
BI       -4.240124145440650       -0.000000000000001        0.931391748847898
  Normal coordinate   7, negative displacement:
BI        0.000000000000000       -2.917000737666674       -0.926783257902384
BI       -0.000000000000000        2.917000737666674       -0.926783257902384
BI        4.243408932283184        0.000000000000001        0.926783257902384
BI       -4.243408932283184       -0.000000000000001        0.926783257902384
  Normal coordinate   8, positive displacement:
BI        0.000000000000000       -2.914828623850350       -0.929662200676270
BI       -0.000000000000000        2.914828623850350       -0.929662200676270
BI        4.243728894173135        0.000000000000001        0.929662200676269
BI       -4.243728894173135       -0.000000000000001        0.929662200676269
  Normal coordinate   8, negative displacement:
BI        0.000000000000000       -2.918556433604953       -0.928512806074013
BI       -0.000000000000000        2.918556433604953       -0.928512806074013
BI        4.239804183550699        0.000000000000001        0.928512806074012
BI       -4.239804183550699       -0.000000000000001        0.928512806074012
  Normal coordinate   9, positive displacement:
BI        0.002145932299414       -2.916692528727651       -0.929087503375141
BI       -0.002145932299414        2.916692528727651       -0.929087503375141
BI        4.241766538861917       -0.001475551028702        0.929087503375141
BI       -4.241766538861917        0.001475551028702        0.929087503375141
  Normal coordinate  10, positive displacement:
BI        0.000000000000000       -2.915069650208753       -0.928053603957130
BI       -0.000000000000000        2.918315407246549       -0.930121402793153
BI        4.241766538861917       -0.001622878518897        0.929087503375141
BI       -4.241766538861917       -0.001622878518899        0.929087503375141
  Normal coordinate  11, positive displacement:
BI        0.001494274781610       -2.916692528727651       -0.929087503375141
BI        0.001494274781609        2.916692528727651       -0.929087503375141
BI        4.240272264080308        0.000000000000001        0.928432758340338
BI       -4.243260813643526       -0.000000000000001        0.929742248409944
  Normal coordinate  12, positive displacement:
BI        0.000000000000000       -2.915095064938194       -0.928551752353244
BI       -0.000000000000000        2.915095064938194       -0.928551752353244
BI        4.240563020211519        0.000000000000001        0.928551752353244
BI       -4.240563020211519       -0.000000000000001        0.928551752353244
  Normal coordinate  12, negative displacement:
BI        0.000000000000000       -2.918289992517108       -0.929623254397038
BI       -0.000000000000000        2.918289992517108       -0.929623254397038
BI        4.242970057512315        0.000000000000001        0.929623254397038
BI       -4.242970057512315       -0.000000000000001        0.929623254397038
  @CHECKOUT-I, Total execution time (CPU/WALL):        0.00/       0.01 seconds.
  charges                     0                     0                    83
                    83                    83                    83
  charges                     0                     0                    83
                    83                    83                    83
--executable xcubic finished with status     0 in        0.13 seconds (walltime).
  The final electronic energy is      -855.862736335048794 a.u. 
  This computation required                       187869.07 seconds (walltime).
