
 Primary working directories    : /tmp/333988.61.gen4.q
 Secondary working directories  : /tmp/333988.61.gen4.q
 Wavefunction directory         : /home/vulcan/mel64643/wfu/
 Main file repository           : /tmp/333988.61.gen4.q/

 ARCHNAME  : Linux/x86_64
 FC        : /opt/intel/compilers_and_libraries_2016.1.150/linux/bin/intel64/ifort
 FCVERSION : 16.0.1
 BLASLIB   : -mkl
 id        : ccgc

 Nodes     nprocs
 n051         3
 Number of processes for MPI-2 version of Molpro:   nprocs(total)=    4   nprocs(compute)=    3   nprocs(helper)=    1
 ga_uses_ma=false, calling ma_init with nominal heap.
 GA-space will be limited to   8.0 MW (determined by -G option)

 Using customized tuning parameters: mindgm=10; mindgv=16; mindgc=4; mindgr=1; noblas=0; mincuda=1000; minvec=7
 default implementation of scratch files=sf  

 ***,Optimization of min3
 memory,1000,m
 gthresh,energy=1.0d-10,orbital=1.0d-10,oneint=1.0d-16,twoint=1.0d-16,optgrad=1.0d-6,compress=1.0d-13
 geomtyp=xyz
 
  bohr
  geometry = {
  12
  arbitrary comment
  C         -3.1013835686          1.5864111529          0.0200204804
  C         -0.8639669339         -0.0710129877         -0.6563437845
  C         -1.1151346044         -2.7806969772          0.2452521295
  O          1.3114946252          1.1049344788          0.5889946294
  O          3.4492873437          0.1200701725         -0.2518217618
  H         -4.8055047414          0.8469895567         -0.8770357216
  H         -2.8066407106          3.5211544582         -0.6180467574
  H         -3.3929878335          1.5973127485          2.0639800448
  H         -0.4604811247         -0.0044863958         -2.6753578161
  H         -2.7060085655         -3.6978422580         -0.7233735992
  H         -1.4731243191         -2.8241193101          2.2904891306
  H          0.5801484342         -3.8150253864         -0.1554158999
 }
 
 basis=cc-pvtz
 {rhf;maxit,200}
 {uccsd(t);maxit,200}

 Variables initialized (661), CPU time= 0.00 sec
 Commands  initialized (458), CPU time= 0.00 sec, 486 directives.
 Default parameters read. Elapsed time= 0.05 sec

 Checking input...
 Passed
1


                                         ***  PROGRAM SYSTEM MOLPRO  ***
                         Copyright, University College Cardiff Consultants Limited, 2008

                                    Version 2010.1 linked May 16 2016 07:17:05


 **********************************************************************************************************************************
 LABEL *   Optimization of min3                                                          
 Linux-4.4.3/n051(x86_64) 64 bit mpp version                                             DATE: 15-Jul-20          TIME: 23:00:08  
 **********************************************************************************************************************************

 SHA1:             9e8077add272b0f3cad6f7df79ec5211205f459d
 **********************************************************************************************************************************

 THRESHOLDS:

 ZERO    =  1.00D-12  ONEINT  =  1.00D-16  TWOINT  =  1.00D-16  PREFAC  =  1.00D-14  LOCALI  =  1.00D-09  EORDER  =  1.00D-04
 ENERGY  =  1.00D-10  ETEST   =  0.00D+00  EDENS   =  0.00D+00  THRDEDEF=  1.00D-06  GRADIENT=  1.00D-02  STEP    =  1.00D-03
 ORBITAL =  1.00D-10  CIVEC   =  1.00D-05  COEFF   =  1.00D-04  PRINTCI =  5.00D-02  PUNCHCI =  9.90D+01  OPTGRAD =  1.00D-06
 OPTENERG=  1.00D-06  OPTSTEP =  3.00D-04  THRGRAD =  1.00D-10  COMPRESS=  1.00D-13  VARMIN  =  1.00D-07  VARMAX  =  1.00D-03
 THRDOUB =  0.00D+00  THRDIV  =  1.00D-05  THRRED  =  1.00D-07  THRPSP  =  1.00D+00  THRDC   =  1.00D-10  THRCS   =  1.00D-10
 THRNRM  =  1.00D-08  THREQ   =  0.00D+00  THRDE   =  1.00D+00  THRREF  =  1.00D-05  SPARFAC =  1.00D+00  THRDLP  =  1.00D-07
 THRDIA  =  1.00D-10  THRDLS  =  1.00D-07  THRGPS  =  0.00D+00  THRKEX  =  0.00D+00  THRDIS  =  2.00D-01  THRVAR  =  1.00D-10
 THRLOC  =  1.00D-06  THRGAP  =  1.00D-06  THRLOCT = -1.00D+00  THRGAPT = -1.00D+00  THRORB  =  1.00D-06  THRMLTP =  0.00D+00
 THRCPQCI=  1.00D-10  KEXTA   =  0.00D+00  THRCOARS=  0.00D+00  SYMTOL  =  1.00D-06  GRADTOL =  1.00D-06  THROVL  =  1.00D-08
 THRORTH =  1.00D-08  GRID    =  1.00D-06  GRIDMAX =  1.00D-03  DTMAX   =  0.00D+00

 SETTING GEOMTYP        =    XYZ
 ZUNIT=BOHR
 

 Variable memory set to 1000000000 words,  buffer space   230000 words

 SETTING BASIS          =    CC-PVTZ


 Recomputing integrals since basis changed


 Using spherical harmonics

 Library entry C      S cc-pVTZ              selected for orbital group  1
 Library entry C      P cc-pVTZ              selected for orbital group  1
 Library entry C      D cc-pVTZ              selected for orbital group  1
 Library entry C      F cc-pVTZ              selected for orbital group  1
 Library entry O      S cc-pVTZ              selected for orbital group  2
 Library entry O      P cc-pVTZ              selected for orbital group  2
 Library entry O      D cc-pVTZ              selected for orbital group  2
 Library entry O      F cc-pVTZ              selected for orbital group  2
 Library entry H      S cc-pVTZ              selected for orbital group  3
 Library entry H      P cc-pVTZ              selected for orbital group  3
 Library entry H      D cc-pVTZ              selected for orbital group  3

1PROGRAM * SEWARD (Integral evaluation for generally contracted gaussian basis sets)     Author: Roland Lindh, 1990

 Geometry written to block  1 of record 700


 Point group  C1  



 ATOMIC COORDINATES

 NR  ATOM    CHARGE       X              Y              Z

   1  C       6.00   -3.101383569    1.586411153    0.020020480
   2  C       6.00   -0.863966934   -0.071012988   -0.656343784
   3  C       6.00   -1.115134604   -2.780696977    0.245252129
   4  O       8.00    1.311494625    1.104934479    0.588994629
   5  O       8.00    3.449287344    0.120070173   -0.251821762
   6  H       1.00   -4.805504741    0.846989557   -0.877035722
   7  H       1.00   -2.806640711    3.521154458   -0.618046757
   8  H       1.00   -3.392987833    1.597312749    2.063980045
   9  H       1.00   -0.460481125   -0.004486396   -2.675357816
  10  H       1.00   -2.706008565   -3.697842258   -0.723373599
  11  H       1.00   -1.473124319   -2.824119310    2.290489131
  12  H       1.00    0.580148434   -3.815025386   -0.155415900

 Bond lengths in Bohr (Angstrom)

 1-2  2.865406882  1-6  2.062882231  1-7  2.058454471  1-8  2.064684623  2-3  2.866766072
     ( 1.516308016)     ( 1.091630261)     ( 1.089287192)     ( 1.092584046)     ( 1.517027269)

  2- 4  2.768818016   2- 9  2.060010739   3-10  2.076119271   3-11  2.076785142   3-12  2.025920706
       ( 1.465195390)       ( 1.090110733)       ( 1.098635002)       ( 1.098987365)       ( 1.072071065)

 4-5  2.499417455
     ( 1.322634753)

 Bond angles

  1-2-3  113.83368800   1-2-4  105.16942316   1-2-9  111.44492636   2-1-6  109.57637649

  2- 1- 7  111.01973641   2- 1- 8  110.30457091   2- 3-10  109.75251357   2- 3-11  110.15659391

  2- 3-12  110.30752271   2- 4- 5  110.69325244   3- 2- 4  109.19742410   3- 2- 9  110.85018584

  4-2-9  105.85560305   6-1-7  108.68649142   6-1-8  108.40376707   7-1-8  108.79133897

 10- 3-11  108.55073768  10- 3-12  108.86891688  11- 3-12  109.16781529

 NUCLEAR CHARGE:                   41
 NUMBER OF PRIMITIVE AOS:         354
 NUMBER OF SYMMETRY AOS:          322
 NUMBER OF CONTRACTIONS:          248   ( 248A   )
 NUMBER OF CORE ORBITALS:           5   (   5A   )
 NUMBER OF VALENCE ORBITALS:       27   (  27A   )


 NUCLEAR REPULSION ENERGY  186.64558466


 Eigenvalues of metric

         1 0.808E-03 0.957E-03 0.109E-02 0.125E-02 0.133E-02 0.151E-02 0.160E-02 0.163E-02


 Contracted 2-electron integrals neglected if value below      1.0D-16
 AO integral compression algorithm  1   Integral accuracy      1.0D-16

     3372.483 MB (compressed) written to integral file ( 82.1%)

     Node minimum: 1106.248 MB, node maximum: 1133.249 MB


 NUMBER OF SORTED TWO-ELECTRON INTEGRALS:  158903334.     BUFFER LENGTH:  32768
 NUMBER OF SEGMENTS:  10  SEGMENT LENGTH:   15997437      RECORD LENGTH: 524288

 Memory used in sort:      16.55 MW

 SORT1 READ   513530522. AND WROTE   152633287. INTEGRALS IN    442 RECORDS. CPU TIME:    16.67 SEC, REAL TIME:    23.42 SEC
 SORT2 READ   459410319. AND WROTE   476679126. INTEGRALS IN  12969 RECORDS. CPU TIME:     1.54 SEC, REAL TIME:    13.65 SEC

 Node minimum:   158882750.  Node maximum:   158903334. integrals

 OPERATOR DM      FOR CENTER  0  COORDINATES:    0.000000    0.000000    0.000000


 **********************************************************************************************************************************
 DATASETS  * FILE   NREC   LENGTH (MB)   RECORD NAMES
              1      18        5.04       500      610      700      900      950      970     1000      129      960     1100   
                                          VAR    BASINP    GEOM    SYMINP    ZMAT    AOBASIS   BASIS     P2S    ABASIS      S 
                                         1400     1410     1200     1210     1080     1600     1650     1700   
                                           T        V       H0       H01     AOSYM     SMH    MOLCAS    OPER   

 PROGRAMS   *        TOTAL       INT
 CPU TIMES  *        24.92     24.88
 REAL TIME  *        44.68 SEC
 DISK USED  *         8.83 GB      
 GA USED    *         0.01 MB       (max)       0.00 MB       (current)
 **********************************************************************************************************************************

1PROGRAM * RHF-SCF (OPEN SHELL)       Authors: W. Meyer, H.-J. Werner


 NUMBER OF ELECTRONS:      21+   20-    SPACE SYMMETRY=1    SPIN SYMMETRY: Doublet 
 CONVERGENCE THRESHOLDS:    1.00E-10 (Density)    1.00E-11 (Energy)
 MAX. NUMBER OF ITERATIONS:      200
 INTERPOLATION TYPE:            DIIS
 INTERPOLATION STEPS:              2 (START)      1 (STEP)
 LEVEL SHIFTS:                 -0.30 (CLOSED)  0.00 (OPEN) 



 Orbital guess generated from atomic densities. Full valence occupancy:   32

 Molecular orbital dump at record        2100.2

 ITERATION    DDIFF          GRAD             ENERGY        2-EL.EN.            DIPOLE MOMENTS         DIIS
    1      0.000D+00      0.000D+00      -267.26075801    559.836426   -1.78480   -0.06654   -0.09369    0
    2      0.000D+00      0.326D-02      -267.33441584    562.679295   -1.01570   -0.43141   -0.35956    1
    3      0.472D-02      0.230D-02      -267.36098126    561.631572   -1.18773   -0.24307   -0.21760    2
    4      0.212D-02      0.547D-03      -267.36921683    561.817983   -0.97448   -0.31640   -0.29920    3
    5      0.927D-03      0.484D-03      -267.37343360    561.860425   -0.91778   -0.31879   -0.30380    4
    6      0.583D-03      0.271D-03      -267.37535412    561.827770   -0.87596   -0.31235   -0.30190    5
    7      0.485D-03      0.133D-03      -267.37569180    561.813745   -0.88555   -0.30086   -0.29386    6
    8      0.258D-03      0.356D-04      -267.37571367    561.811039   -0.88519   -0.29763   -0.29235    7
    9      0.846D-04      0.189D-04      -267.37572456    561.811226   -0.88770   -0.29814   -0.29241    8
   10      0.447D-04      0.816D-05      -267.37572635    561.811156   -0.88886   -0.29753   -0.29213    9
   11      0.198D-04      0.320D-05      -267.37572660    561.811095   -0.88949   -0.29737   -0.29196    9
   12      0.785D-05      0.149D-05      -267.37572666    561.811318   -0.88963   -0.29746   -0.29200    9
   13      0.372D-05      0.533D-06      -267.37572667    561.811374   -0.88965   -0.29752   -0.29203    9
   14      0.151D-05      0.306D-06      -267.37572667    561.811374   -0.88963   -0.29754   -0.29204    9
   15      0.876D-06      0.156D-06      -267.37572668    561.811381   -0.88963   -0.29754   -0.29204    9
   16      0.492D-06      0.863D-07      -267.37572668    561.811385   -0.88962   -0.29755   -0.29204    9
   17      0.259D-06      0.526D-07      -267.37572668    561.811381   -0.88962   -0.29754   -0.29204    9
   18      0.247D-06      0.410D-07      -267.37572668    561.811379   -0.88962   -0.29754   -0.29204    9
   19      0.199D-06      0.329D-07      -267.37572668    561.811385   -0.88962   -0.29754   -0.29204    9
   20      0.357D-06      0.261D-07      -267.37572668    561.811384   -0.88962   -0.29754   -0.29204    9
   21      0.459D-06      0.157D-07      -267.37572668    561.811386   -0.88962   -0.29754   -0.29203    9
   22      0.341D-06      0.943D-08      -267.37572668    561.811389   -0.88962   -0.29754   -0.29203    9
   23      0.152D-06      0.419D-08      -267.37572668    561.811389   -0.88962   -0.29754   -0.29203    9
   24      0.472D-07      0.234D-08      -267.37572668    561.811389   -0.88962   -0.29754   -0.29203    9
   25      0.136D-07      0.950D-09      -267.37572668    561.811389   -0.88962   -0.29754   -0.29203    9
   26      0.769D-08      0.406D-09      -267.37572668    561.811389   -0.88962   -0.29754   -0.29203    9
   27      0.139D-08      0.189D-09      -267.37572668    561.811389   -0.88962   -0.29754   -0.29203    9
   28      0.475D-09      0.945D-10      -267.37572668    561.811389   -0.88962   -0.29754   -0.29203    9
   29      0.519D-09      0.522D-10      -267.37572668    561.811389   -0.88962   -0.29754   -0.29203    9
   30      0.338D-09      0.252D-10      -267.37572668    561.811389   -0.88962   -0.29754   -0.29203    9
   31      0.662D-10      0.269D-10      -267.37572668    561.811389   -0.88962   -0.29754   -0.29203    0

 Final alpha occupancy:  21
 Final beta  occupancy:  20

 !RHF STATE 1.1 Energy               -267.375726677600
 Nuclear energy                       186.64558466
 One-electron energy                 -734.92700581
 Two-electron energy                  280.90569447
 Virial quotient                       -1.00113721
 !RHF STATE 1.1 Dipole moment          -0.88961692    -0.29754376    -0.29203481
 Dipole moment /Debye                  -2.26103258    -0.75623126    -0.74222984

 Orbital energies:

         1.1          2.1          3.1          4.1          5.1          6.1          7.1          8.1          9.1         10.1
    -20.648789   -20.640452   -11.297344   -11.229010   -11.225055    -1.523653    -1.170938    -1.034543    -0.953315    -0.819482

        11.1         12.1         13.1         14.1         15.1         16.1         17.1         18.1         19.1         20.1
     -0.695187    -0.668500    -0.652855    -0.596365    -0.561939    -0.557519    -0.543934    -0.502642    -0.489573    -0.465235

        21.1         22.1         23.1
     -0.562957     0.137820     0.174641


 **********************************************************************************************************************************
 DATASETS  * FILE   NREC   LENGTH (MB)   RECORD NAMES
              1      18        5.04       500      610      700      900      950      970     1000      129      960     1100   
                                          VAR    BASINP    GEOM    SYMINP    ZMAT    AOBASIS   BASIS     P2S    ABASIS      S 
                                         1400     1410     1200     1210     1080     1600     1650     1700   
                                           T        V       H0       H01     AOSYM     SMH    MOLCAS    OPER   

              2       3        2.21       700     1000     2100   
                                         GEOM     BASIS     RHF  

 PROGRAMS   *        TOTAL       RHF       INT
 CPU TIMES  *        69.57     44.65     24.88
 REAL TIME  *        93.04 SEC
 DISK USED  *         8.87 GB      
 SF USED    *         0.25 MB      
 GA USED    *         0.01 MB       (max)       0.00 MB       (current)
 **********************************************************************************************************************************


1PROGRAM * CCSD (Unrestricted open-shell coupled cluster)     Authors: C. Hampel, H.-J. Werner, 1991, M. Deegan, P.J. Knowles, 1992


 Convergence thresholds:  THRVAR = 1.00D-08  THRDEN = 1.00D-10

 CCSD(T)     terms to be evaluated (factor= 1.000)


 Number of core orbitals:           5 (   5 )
 Number of closed-shell orbitals:  15 (  15 )
 Number of active  orbitals:        1 (   1 )
 Number of external orbitals:     227 ( 227 )

 Memory could be reduced to 332.02 Mwords without degradation in triples

 Number of N-1 electron functions:              31
 Number of N-2 electron functions:             465
 Number of singly external CSFs:              7068
 Number of doubly external CSFs:          18353430
 Total number of CSFs:                    18360498

 Molecular orbitals read from record     2100.2  Type=RHF/CANONICAL (state 1.1)

 Integral transformation finished. Total CPU:  27.72 sec, npass=  1  Memory used: 145.25 MW

 Starting RMP2 calculation

 ITER.      SQ.NORM     CORR.ENERGY   TOTAL ENERGY   ENERGY CHANGE        DEN1      VAR(S)    VAR(P)  DIIS     TIME
   1      1.26529807    -0.96757698  -268.34330366    -0.96757698    -0.00323551  0.26D-04  0.11D-02  1  1    31.68
   2      1.26808179    -0.97106559  -268.34679227    -0.00348861    -0.00000666  0.10D-05  0.23D-05  2  2    34.71
   3      1.26816175    -0.97111850  -268.34684518    -0.00005291    -0.00000008  0.54D-07  0.11D-07  3  3    37.95
   4      1.26816346    -0.97111831  -268.34684499     0.00000019    -0.00000000  0.16D-08  0.12D-09  4  4    42.08
   5      1.26816372    -0.97111840  -268.34684507    -0.00000009    -0.00000000  0.19D-10  0.46D-11  5  5    46.21
   6      1.26816378    -0.97111843  -268.34684511    -0.00000003    -0.00000000  0.51D-13  0.56D-13  6  6    49.96
   7      1.26816378    -0.97111843  -268.34684511     0.00000000    -0.00000000  0.15D-14  0.86D-15  6  1    53.84
   8      1.26816378    -0.97111843  -268.34684511     0.00000000    -0.00000000  0.16D-16  0.80D-17  6  2    57.76
   9      1.26816378    -0.97111843  -268.34684511    -0.00000000    -0.00000000  0.31D-18  0.10D-18  6  3    61.48

 Norm of t1 vector:      0.04590623      S-energy:    -0.00446889      T1 diagnostic:  0.00074446
 Norm of t2 vector:      0.51580655      P-energy:    -0.96664954
                                         Alpha-Beta:  -0.73705682
                                         Alpha-Alpha: -0.11898431
                                         Beta-Beta:   -0.11060840

 Spin contamination <S**2-Sz**2-Sz>     0.00145565
  Reference energy                   -267.375726677602
  RHF-RMP2 correlation energy          -0.971118429705
 !RHF-RMP2 energy                    -268.346845107307

 Starting UCCSD calculation

 ITER.      SQ.NORM     CORR.ENERGY   TOTAL ENERGY   ENERGY CHANGE        DEN1      VAR(S)    VAR(P)  DIIS     TIME
   1      1.27976151    -0.97924097  -268.35496765    -0.97924097    -0.02932531  0.65D-02  0.54D-02  1  1   159.41
   2      1.30615466    -1.00585881  -268.38158549    -0.02661784    -0.00363376  0.62D-03  0.97D-03  2  2   261.49
   3      1.32279744    -1.01267899  -268.38840567    -0.00682018    -0.00091201  0.75D-03  0.76D-04  3  3   360.30
   4      1.33403768    -1.01533781  -268.39106449    -0.00265882    -0.00038520  0.31D-03  0.33D-04  4  4   459.43
   5      1.34911729    -1.01733516  -268.39306184    -0.00199735    -0.00011791  0.10D-03  0.90D-05  5  5   561.75
   6      1.36065222    -1.01835827  -268.39408495    -0.00102311    -0.00001811  0.92D-05  0.32D-05  6  6   679.01
   7      1.36433941    -1.01859851  -268.39432519    -0.00024024    -0.00000316  0.16D-05  0.61D-06  6  1   796.99
   8      1.36494404    -1.01864066  -268.39436734    -0.00004215    -0.00000067  0.27D-06  0.15D-06  6  2   914.86
   9      1.36526446    -1.01865910  -268.39438577    -0.00001844    -0.00000015  0.67D-07  0.32D-07  6  4  1032.66
  10      1.36525107    -1.01865782  -268.39438450     0.00000127    -0.00000002  0.11D-07  0.43D-08  6  3  1149.67
  11      1.36531388    -1.01866295  -268.39438963    -0.00000513    -0.00000001  0.31D-08  0.96D-09  6  5  1256.77
  12      1.36530648    -1.01866047  -268.39438714     0.00000248    -0.00000000  0.16D-08  0.24D-09  6  6  1374.58
  13      1.36530208    -1.01865929  -268.39438596     0.00000118    -0.00000000  0.11D-08  0.75D-10  6  1  1487.44
  14      1.36528845    -1.01865768  -268.39438436     0.00000161    -0.00000000  0.81D-09  0.39D-10  6  2  1605.87
  15      1.36528092    -1.01865678  -268.39438345     0.00000090    -0.00000000  0.65D-09  0.32D-10  6  3  1724.22
  16      1.36527666    -1.01865656  -268.39438324     0.00000021    -0.00000000  0.51D-09  0.27D-10  6  5  1842.51
  17      1.36527172    -1.01865612  -268.39438280     0.00000044    -0.00000000  0.22D-09  0.21D-10  6  6  1957.92
  18      1.36527956    -1.01865676  -268.39438343    -0.00000063    -0.00000000  0.26D-10  0.83D-11  6  4  2076.34
  19      1.36528361    -1.01865714  -268.39438381    -0.00000038    -0.00000000  0.47D-11  0.30D-11  6  1  2195.03
  20      1.36528515    -1.01865723  -268.39438391    -0.00000009    -0.00000000  0.12D-11  0.40D-12  6  2  2311.22
  21      1.36528613    -1.01865733  -268.39438400    -0.00000010    -0.00000000  0.23D-12  0.13D-12  6  4  2429.46
  22      1.36528619    -1.01865733  -268.39438401    -0.00000001    -0.00000000  0.53D-13  0.13D-13  6  6  2538.90
  23      1.36528628    -1.01865735  -268.39438402    -0.00000001    -0.00000000  0.18D-13  0.39D-14  6  3  2657.21
  24      1.36528629    -1.01865735  -268.39438402    -0.00000000    -0.00000000  0.62D-14  0.15D-14  6  5  2759.38
  25      1.36528627    -1.01865735  -268.39438402     0.00000000    -0.00000000  0.27D-14  0.45D-15  6  3  2865.69
  26      1.36528625    -1.01865734  -268.39438402     0.00000000    -0.00000000  0.40D-15  0.11D-15  6  1  2983.97
  27      1.36528624    -1.01865734  -268.39438402     0.00000000    -0.00000000  0.80D-16  0.29D-16  6  2  3098.97
  28      1.36528623    -1.01865734  -268.39438402     0.00000000    -0.00000000  0.17D-16  0.51D-17  6  4  3217.29
  29      1.36528623    -1.01865734  -268.39438402    -0.00000000    -0.00000000  0.69D-17  0.16D-17  6  6  3335.63

 Norm of t1 vector:      0.23123122      S-energy:    -0.00501604      T1 diagnostic:  0.02849346
                                                                       D1 diagnostic:  0.14603383
 Norm of t2 vector:      0.55840698      P-energy:    -1.01364130
                                         Alpha-Beta:  -0.80133922
                                         Alpha-Alpha: -0.10868096
                                         Beta-Beta:   -0.10362112

 Singles amplitudes (print threshold =  0.500E-01):

         I         SYM. A    A   T(IA) [Beta-Beta]

         8         1         1     -0.09543689
         9         1         1      0.09996685
        11         1         1     -0.05780346
        12         1         1     -0.07199682
        14         1         1     -0.11107117

 Spin contamination <S**2-Sz**2-Sz>     0.00176064

 Memory could be reduced to 360.52 Mwords without degradation in triples
 

 RESULTS
 =======

  Reference energy                   -267.375726677602
  UCCSD singles energy                 -0.005016041468
  UCCSD pair energy                    -1.013641301123
  UCCSD correlation energy             -1.018657342591
  Triples (T) contribution             -0.040823769258
  Total correlation energy             -1.059481111848
 
  RHF-UCCSD energy                   -268.394384020193
  RHF-UCCSD[T] energy                -268.438529404382
  RHF-UCCSD-T energy                 -268.434710445511
 !RHF-UCCSD(T) energy                -268.435207789450

 Program statistics:

 Available memory in ccsd:               999997692
 Min. memory needed in ccsd:              51505734
 Max. memory used in ccsd:                74803578
 Max. memory used in cckext:              59475747 (29 integral passes)
 Max. memory used in cckint:             145249478 ( 1 integral passes)



 **********************************************************************************************************************************
 DATASETS  * FILE   NREC   LENGTH (MB)   RECORD NAMES
              1      18        5.04       500      610      700      900      950      970     1000      129      960     1100   
                                          VAR    BASINP    GEOM    SYMINP    ZMAT    AOBASIS   BASIS     P2S    ABASIS      S 
                                         1400     1410     1200     1210     1080     1600     1650     1700   
                                           T        V       H0       H01     AOSYM     SMH    MOLCAS    OPER   

              2       3        2.21       700     1000     2100   
                                         GEOM     BASIS     RHF  

 PROGRAMS   *        TOTAL  UCCSD(T)       RHF       INT
 CPU TIMES  *      5353.90   5284.32     44.65     24.88
 REAL TIME  *      5497.34 SEC
 DISK USED  *        15.84 GB      
 SF USED    *         6.57 GB      
 GA USED    *         0.01 MB       (max)       0.00 MB       (current)
 **********************************************************************************************************************************

        UCCSD(T)        RHF-SCF 
   -268.43520779   -267.37572668
 **********************************************************************************************************************************
 Variable memory released
