
    -----------------------------------------------------------------------
          Psi4: An Open-Source Ab Initio Electronic Structure Package
                               Psi4 1.4a2.dev629 

                         Git: Rev {master} 2938fc2 dirty


    D. G. A. Smith, L. A. Burns, A. C. Simmonett, R. M. Parrish,
    M. C. Schieber, R. Galvelis, P. Kraus, H. Kruse, R. Di Remigio,
    A. Alenaizan, A. M. James, S. Lehtola, J. P. Misiewicz, M. Scheurer,
    R. A. Shaw, J. B. Schriber, Y. Xie, Z. L. Glick, D. A. Sirianni,
    J. S. O'Brien, J. M. Waldrop, A. Kumar, E. G. Hohenstein,
    B. P. Pritchard, B. R. Brooks, H. F. Schaefer III, A. Yu. Sokolov,
    K. Patkowski, A. E. DePrince III, U. Bozkaya, R. A. King,
    F. A. Evangelista, J. M. Turney, T. D. Crawford, C. D. Sherrill,
    J. Chem. Phys. 152(18) 184108 (2020). https://doi.org/10.1063/5.0006002

                            Additional Code Authors
    E. T. Seidl, C. L. Janssen, E. F. Valeev, M. L. Leininger,
    J. F. Gonthier, R. M. Richard, H. R. McAlexander, M. Saitow, X. Wang,
    P. Verma, and M. H. Lechner

             Previous Authors, Complete List of Code Contributors,
                       and Citations for Specific Modules
    https://github.com/psi4/psi4/blob/master/codemeta.json
    https://github.com/psi4/psi4/graphs/contributors
    http://psicode.org/psi4manual/master/introduction.html#citing-psifour

    -----------------------------------------------------------------------


    Psi4 started on: Saturday, 19 September 2020 05:36PM

    Process ID: 20734
    Host:       n008
    PSIDATADIR: /opt/psi/4/master/share/psi4
    Memory:     500.0 MiB
    Threads:    1
    
  ==> Input File <==

--------------------------------------------------------------------------
# o-Benzyne preliminary computations

memory 14 gb

molecule {
  0 1
  H    0.0000000000   -1.4183786662    0.9912834386
  O    0.0000000000    0.0000000000   -0.1223644071
  H    0.0000000000    1.4183786662    0.9912834386
  units bohr
}

set {
  basis=cc-pVTZ
  reference rhf
  e_convergence 10 
  d_convergence 10
  r_convergence 8
  maxiter 300
}

energy('ccsd(t)')
--------------------------------------------------------------------------

  Memory set to  13.039 GiB by Python driver.

Scratch directory: /tmp/

*** tstart() called on n008
*** at Sat Sep 19 17:36:30 2020

   => Loading Basis Set <=

    Name: CC-PVTZ
    Role: ORBITAL
    Keyword: BASIS
    atoms 1, 3 entry H          line    23 file /opt/psi/4/master/share/psi4/basis/cc-pvtz.gbs 
    atoms 2    entry O          line   262 file /opt/psi/4/master/share/psi4/basis/cc-pvtz.gbs 


         ---------------------------------------------------------
                                   SCF
               by Justin Turney, Rob Parrish, Andy Simmonett
                          and Daniel G. A. Smith
                              RHF Reference
                        1 Threads,  13351 MiB Core
         ---------------------------------------------------------

  ==> Geometry <==

    Molecular point group: c2v
    Full point group: C2v

    Geometry (in Bohr), charge = 0, multiplicity = 1:

       Center              X                  Y                   Z               Mass       
    ------------   -----------------  -----------------  -----------------  -----------------
         H            0.000000000000    -1.418378666200     0.989014088161     1.007825032230
         O            0.000000000000     0.000000000000    -0.124633757539    15.994914619570
         H           -0.000000000000     1.418378666200     0.989014088161     1.007825032230

  Running in c2v symmetry.

  Rotational constants: A =     27.11619  B =     14.84550  C =      9.59335 [cm^-1]
  Rotational constants: A = 812923.04966  B = 445056.77457  C = 287601.52070 [MHz]
  Nuclear repulsion =    9.224975691897324

  Charge       = 0
  Multiplicity = 1
  Electrons    = 10
  Nalpha       = 5
  Nbeta        = 5

  ==> Algorithm <==

  SCF Algorithm Type is PK.
  DIIS enabled.
  MOM disabled.
  Fractional occupation disabled.
  Guess Type is SAD.
  Energy threshold   = 1.00e-10
  Density threshold  = 1.00e-10
  Integral threshold = 0.00e+00

  ==> Primary Basis <==

  Basis Set: CC-PVTZ
    Blend: CC-PVTZ
    Number of shells: 22
    Number of basis function: 58
    Number of Cartesian functions: 65
    Spherical Harmonics?: true
    Max angular momentum: 3

  ==> Integral Setup <==

  Using in-core PK algorithm.
   Calculation information:
      Number of atoms:                   3
      Number of AO shells:              22
      Number of primitives:             42
      Number of atomic orbitals:        65
      Number of basis functions:        58

      Integral cutoff                 1.00e-12
      Number of threads:                 1

  Performing in-core PK
  Using 2929232 doubles for integral storage.
  We computed 32131 shell quartets total.
  Whereas there are 32131 unique shell quartets.

  ==> DiskJK: Disk-Based J/K Matrices <==

    J tasked:                  Yes
    K tasked:                  Yes
    wK tasked:                  No
    Memory [MiB]:            10013
    Schwarz Cutoff:          1E-12

    OpenMP threads:              1

  Minimum eigenvalue in the overlap matrix is 2.2084364522E-03.
  Reciprocal condition number of the overlap matrix is 5.0559038434E-04.
    Using symmetric orthogonalization.

  ==> Pre-Iterations <==

  SCF Guess: Superposition of Atomic Densities via on-the-fly atomic UHF (no occupation information).

   -------------------------
    Irrep   Nso     Nmo    
   -------------------------
     A1        23      23 
     A2         7       7 
     B1        11      11 
     B2        17      17 
   -------------------------
    Total      58      58
   -------------------------

  ==> Iterations <==

                        Total Energy        Delta E     RMS |[F,P]|

   @RHF iter SAD:   -75.50594286361843   -7.55059e+01   0.00000e+00 
   @RHF iter   1:   -75.97897587458647   -4.73033e-01   1.43788e-02 DIIS
   @RHF iter   2:   -76.03162658549768   -5.26507e-02   9.24519e-03 DIIS
   @RHF iter   3:   -76.05688053114764   -2.52539e-02   6.89155e-04 DIIS
   @RHF iter   4:   -76.05726303773849   -3.82507e-04   1.66864e-04 DIIS
   @RHF iter   5:   -76.05728671828240   -2.36805e-05   3.45300e-05 DIIS
   @RHF iter   6:   -76.05728821215121   -1.49387e-06   6.68035e-06 DIIS
   @RHF iter   7:   -76.05728826943879   -5.72876e-08   1.06567e-06 DIIS
   @RHF iter   8:   -76.05728827062939   -1.19060e-09   1.60435e-07 DIIS
   @RHF iter   9:   -76.05728827065677   -2.73843e-11   4.45487e-08 DIIS
   @RHF iter  10:   -76.05728827065899   -2.21689e-12   5.85973e-09 DIIS
   @RHF iter  11:   -76.05728827065909   -9.94760e-14   8.19562e-10 DIIS
   @RHF iter  12:   -76.05728827065913   -4.26326e-14   1.32346e-10 DIIS
   @RHF iter  13:   -76.05728827065907    5.68434e-14   1.61987e-11 DIIS
  Energy and wave function converged.


  ==> Post-Iterations <==

    Orbital Energies [Eh]
    ---------------------

    Doubly Occupied:                                                      

       1A1   -20.554596     2A1    -1.347806     1B2    -0.709886  
       3A1    -0.579850     1B1    -0.504978  

    Virtual:                                                              

       4A1     0.142420     2B2     0.204484     3B2     0.544113  
       5A1     0.606897     6A1     0.667153     2B1     0.787243  
       7A1     0.797432     4B2     0.805778     1A2     0.863423  
       3B1     0.952300     8A1     1.130546     5B2     1.201148  
       6B2     1.527747     9A1     1.572697     4B1     2.041804  
       7B2     2.047616     2A2     2.065456    10A1     2.173662  
      11A1     2.232209    12A1     2.587919     8B2     2.968819  
       5B1     3.348197    13A1     3.488793     3A2     3.590634  
       9B2     3.665525     6B1     3.801999    10B2     3.882130  
      14A1     3.888016     4A2     3.966609     7B1     4.018008  
      11B2     4.075281    15A1     4.197423     5A2     4.314661  
      16A1     4.383936    12B2     4.605477     8B1     4.686757  
      13B2     4.872699    17A1     5.175413    18A1     5.253556  
      14B2     5.527704     9B1     6.061291    19A1     6.592502  
      10B1     6.931963     6A2     6.946229    11B1     7.005455  
      20A1     7.030986    15B2     7.057356    21A1     7.178044  
       7A2     7.246491    22A1     7.454153    16B2     7.806074  
      17B2     8.308613    23A1    12.922893  

    Final Occupation by Irrep:
             A1    A2    B1    B2 
    DOCC [     3,    0,    1,    1 ]

  @RHF Final Energy:   -76.05728827065907

   => Energetics <=

    Nuclear Repulsion Energy =              9.2249756918973240
    One-Electron Energy =                -123.1702978398917168
    Two-Electron Energy =                  37.8880338773353316
    Total Energy =                        -76.0572882706590576

Computation Completed


Properties will be evaluated at   0.000000,   0.000000,   0.000000 [a0]

Properties computed using the SCF density matrix

  Nuclear Dipole Moment: [e a0]
     X:     0.0000      Y:     0.0000      Z:     0.9810

  Electronic Dipole Moment: [e a0]
     X:     0.0000      Y:     0.0000      Z:    -0.1803

  Dipole Moment: [e a0]
     X:     0.0000      Y:     0.0000      Z:     0.8007     Total:     0.8007

  Dipole Moment: [D]
     X:     0.0000      Y:     0.0000      Z:     2.0351     Total:     2.0351


*** tstop() called on n008 at Sat Sep 19 17:36:31 2020
Module time:
	user time   =       1.40 seconds =       0.02 minutes
	system time =       0.01 seconds =       0.00 minutes
	total time  =          1 seconds =       0.02 minutes
Total time:
	user time   =       1.40 seconds =       0.02 minutes
	system time =       0.01 seconds =       0.00 minutes
	total time  =          1 seconds =       0.02 minutes
 MINTS: Wrapper to libmints.
   by Justin Turney

   Calculation information:
      Number of threads:                 1
      Number of atoms:                   3
      Number of AO shells:              22
      Number of SO shells:              16
      Number of primitives:             42
      Number of atomic orbitals:        65
      Number of basis functions:        58

      Number of irreps:                  4
      Integral cutoff                 0.00e+00
      Number of functions per irrep: [  23    7   11   17 ]

 OEINTS: Overlap, kinetic, potential, dipole, and quadrupole integrals
         stored in file 35.

      Computing two-electron integrals...done
      Computed 359960 non-zero two-electron integrals.
        Stored in file 33.


*** tstart() called on n008
*** at Sat Sep 19 17:36:32 2020


	Wfn Parameters:
	--------------------
	Wavefunction         = CCSD_T
	Number of irreps     = 4
	Number of MOs        = 58
	Number of active MOs = 58
	AO-Basis             = NONE
	Semicanonical        = false
	Reference            = RHF
	Print Level          = 1

	IRREP	# MOs	# FZDC	# DOCC	# SOCC	# VIRT	# FZVR
	-----	-----	------	------	------	------	------
	 A1	   23	    0	    3	    0	    20	    0
	 A2	   7	    0	    0	    0	    7	    0
	 B1	   11	    0	    1	    0	    10	    0
	 B2	   17	    0	    1	    0	    16	    0
	Transforming integrals...
	IWL integrals will be deleted.
	(OO|OO)...
	Presorting SO-basis two-electron integrals.
	Sorting File: SO Ints (nn|nn) nbuckets = 1
	Transforming the one-electron integrals and constructing Fock matrices
	Starting first half-transformation.
	Sorting half-transformed integrals.
	First half integral transformation complete.
	Starting second half-transformation.
	Two-electron integral transformation complete.
	(OO|OV)...
	Starting second half-transformation.
	Two-electron integral transformation complete.
	(OO|VV)...
	Starting second half-transformation.
	Two-electron integral transformation complete.
	(OV|OO)...
	Starting first half-transformation.
	Sorting half-transformed integrals.
	First half integral transformation complete.
	Starting second half-transformation.
	Two-electron integral transformation complete.
	(OV|OV)...
	Starting second half-transformation.
	Two-electron integral transformation complete.
	(OV|VV)...
	Starting second half-transformation.
	Two-electron integral transformation complete.
	(VV|OO)...
	Starting first half-transformation.
	Sorting half-transformed integrals.
	First half integral transformation complete.
	Starting second half-transformation.
	Two-electron integral transformation complete.
	(VV|OV)...
	Starting second half-transformation.
	Two-electron integral transformation complete.
	(VV|VV)...
	Starting second half-transformation.
	Two-electron integral transformation complete.
	Frozen core energy     =      0.00000000000000

	Size of irrep 0 of <ab|cd> integrals:      0.648 (MW) /      5.184 (MB)
	Size of irrep 1 of <ab|cd> integrals:      0.360 (MW) /      2.880 (MB)
	Size of irrep 2 of <ab|cd> integrals:      0.389 (MW) /      3.115 (MB)
	Size of irrep 3 of <ab|cd> integrals:      0.608 (MW) /      4.867 (MB)
	Total:                                     2.006 (MW) /     16.046 (MB)

	Size of irrep 0 of <ia|bc> integrals:      0.069 (MW) /      0.554 (MB)
	Size of irrep 1 of <ia|bc> integrals:      0.028 (MW) /      0.226 (MB)
	Size of irrep 2 of <ia|bc> integrals:      0.036 (MW) /      0.285 (MB)
	Size of irrep 3 of <ia|bc> integrals:      0.059 (MW) /      0.468 (MB)
	Total:                                     0.191 (MW) /      1.532 (MB)

	Size of irrep 0 of tijab amplitudes:       0.009 (MW) /      0.071 (MB)
	Size of irrep 1 of tijab amplitudes:       0.001 (MW) /      0.010 (MB)
	Size of irrep 2 of tijab amplitudes:       0.004 (MW) /      0.030 (MB)
	Size of irrep 3 of tijab amplitudes:       0.005 (MW) /      0.037 (MB)
	Total:                                     0.018 (MW) /      0.148 (MB)

	Nuclear Rep. energy          =      9.22497569189732
	SCF energy                   =    -76.05728827065907
	One-electron energy          =   -123.17029784044146
	Two-electron energy          =     37.88803387788504
	Reference energy             =    -76.05728827065910

*** tstop() called on n008 at Sat Sep 19 17:36:32 2020
Module time:
	user time   =       0.45 seconds =       0.01 minutes
	system time =       0.18 seconds =       0.00 minutes
	total time  =          0 seconds =       0.00 minutes
Total time:
	user time   =       2.02 seconds =       0.03 minutes
	system time =       0.19 seconds =       0.00 minutes
	total time  =          2 seconds =       0.03 minutes
            **************************
            *                        *
            *        CCENERGY        *
            *                        *
            **************************

    Nuclear Rep. energy (wfn)     =    9.224975691897324
    SCF energy          (wfn)     =  -76.057288270659072
    Reference energy    (file100) =  -76.057288270659100

    Input parameters:
    -----------------
    Wave function   =     CCSD_T
    Reference wfn   =     RHF
    Brueckner       =     No
    Memory (Mbytes) =     14000.0
    Maxiter         =    300
    R_Convergence   =     1.0e-08
    E_Convergence   =     1.0e-10
    Restart         =     Yes
    DIIS            =     Yes
    AO Basis        =     NONE
    ABCD            =     NEW
    Cache Level     =     2
    Cache Type      =     LOW
    Print Level     =     1
    Num. of threads =     1
    # Amps to Print =     10
    Print MP2 Amps? =     No
    Analyze T2 Amps =     No
    Print Pair Ener =     No
    Local CC        =     No
    SCS-MP2         =     False
    SCSN-MP2        =     False
    SCS-CCSD        =     False

MP2 correlation energy -0.2749527030727976
                Solving CC Amplitude Equations
                ------------------------------
  Iter             Energy              RMS        T1Diag      D1Diag    New D1Diag    D2Diag
  ----     ---------------------    ---------   ----------  ----------  ----------   --------
     0        -0.274952703072798    0.000e+00    0.000000    0.000000    0.000000    0.115752
     1        -0.275148136451934    2.876e-02    0.005042    0.009146    0.009146    0.119252
     2        -0.280004697393022    9.886e-03    0.005199    0.009255    0.009255    0.123836
     3        -0.280704171185732    3.152e-03    0.005701    0.010298    0.010298    0.125449
     4        -0.280694244864826    6.293e-04    0.005731    0.010365    0.010365    0.125649
     5        -0.280715052852746    1.917e-04    0.005745    0.010436    0.010436    0.125694
     6        -0.280716311434824    5.525e-05    0.005749    0.010463    0.010463    0.125691
     7        -0.280716348446790    1.824e-05    0.005751    0.010476    0.010476    0.125690
     8        -0.280716071860558    5.052e-06    0.005752    0.010480    0.010480    0.125690
     9        -0.280715995366556    1.031e-06    0.005752    0.010481    0.010481    0.125690
    10        -0.280716007949379    2.286e-07    0.005752    0.010481    0.010481    0.125690
    11        -0.280716007156132    4.402e-08    0.005752    0.010481    0.010481    0.125690
    12        -0.280716008657595    1.000e-08    0.005752    0.010481    0.010481    0.125690
    13        -0.280716008732932    2.424e-09    0.005752    0.010481    0.010481    0.125690
    14        -0.280716008743396    6.093e-10    0.005752    0.010481    0.010481    0.125690

    Iterations converged.


    Largest TIA Amplitudes:
              3  27        -0.0069853266
              4  41        -0.0058896904
              2   0         0.0052362375
              3  28        -0.0049337497
              2   3        -0.0044654646
              2   5        -0.0043161397
              1   2        -0.0039653684
              4  46        -0.0038827573
              2  11        -0.0038518215
              2   2         0.0035876086

    Largest TIjAb Amplitudes:
      3   3  27  27        -0.0475357520
      2   2   2   2        -0.0295868420
      4   4  38  38        -0.0266471046
      2   3   2  27         0.0258659261
      3   2  27   2         0.0258659261
      4   4   1   1        -0.0250460095
      4   4  39  39        -0.0227370011
      3   4  27  39         0.0222336010
      4   3  39  27         0.0222336010
      2   2  38  38        -0.0219262296

    SCF energy       (wfn)                    =  -76.057288270659072
    Reference energy (file100)                =  -76.057288270659100

    Opposite-spin MP2 correlation energy      =   -0.208419209842615
    Same-spin MP2 correlation energy          =   -0.066533493230183
    Singles MP2 correlation energy            =   -0.000000000000000
    MP2 correlation energy                    =   -0.274952703072798
      * MP2 total energy                      =  -76.332240973731899

    Opposite-spin CCSD correlation energy     =   -0.221108336901905
    Same-spin CCSD correlation energy         =   -0.059607671841491
    Singles CCSD correlation energy           =    0.000000000000000
    CCSD correlation energy                   =   -0.280716008743396
      * CCSD total energy                     =  -76.338004279402497

            **************************
            *                        *
            *        CCTRIPLES       *
            *                        *
            **************************


    Wave function   =    CCSD_T
    Reference wfn   =      RHF

    Nuclear Rep. energy (wfn)                =    9.224975691897324
    SCF energy          (wfn)                =  -76.057288270659072
    Reference energy    (file100)            =  -76.057288270659100
    CCSD energy         (file100)            =   -0.280716008743396
    Total CCSD energy   (file100)            =  -76.338004279402497

    Number of ijk index combinations:               35
    Memory available in words        :      1750000000
    ~Words needed per explicit thread:           32000
    Number of threads for explicit ijk threading:    1

    MKL num_threads set to 1 for explicit threading.

    (T) energy                                =   -0.007753521625997
      * CCSD(T) total energy                  =  -76.345757801028498


    Psi4 stopped on: Saturday, 19 September 2020 05:36PM
    Psi4 wall time for execution: 0:00:06.99

*** Psi4 exiting successfully. Buy a developer a beer!
