
    -----------------------------------------------------------------------
          Psi4: An Open-Source Ab Initio Electronic Structure Package
                               Psi4 1.4a2.dev629 

                         Git: Rev {master} 2938fc2 dirty


    D. G. A. Smith, L. A. Burns, A. C. Simmonett, R. M. Parrish,
    M. C. Schieber, R. Galvelis, P. Kraus, H. Kruse, R. Di Remigio,
    A. Alenaizan, A. M. James, S. Lehtola, J. P. Misiewicz, M. Scheurer,
    R. A. Shaw, J. B. Schriber, Y. Xie, Z. L. Glick, D. A. Sirianni,
    J. S. O'Brien, J. M. Waldrop, A. Kumar, E. G. Hohenstein,
    B. P. Pritchard, B. R. Brooks, H. F. Schaefer III, A. Yu. Sokolov,
    K. Patkowski, A. E. DePrince III, U. Bozkaya, R. A. King,
    F. A. Evangelista, J. M. Turney, T. D. Crawford, C. D. Sherrill,
    J. Chem. Phys. 152(18) 184108 (2020). https://doi.org/10.1063/5.0006002

                            Additional Code Authors
    E. T. Seidl, C. L. Janssen, E. F. Valeev, M. L. Leininger,
    J. F. Gonthier, R. M. Richard, H. R. McAlexander, M. Saitow, X. Wang,
    P. Verma, and M. H. Lechner

             Previous Authors, Complete List of Code Contributors,
                       and Citations for Specific Modules
    https://github.com/psi4/psi4/blob/master/codemeta.json
    https://github.com/psi4/psi4/graphs/contributors
    http://psicode.org/psi4manual/master/introduction.html#citing-psifour

    -----------------------------------------------------------------------


    Psi4 started on: Wednesday, 21 September 2022 04:31PM

    Process ID: 12537
    Host:       n054
    PSIDATADIR: /opt/psi/4/master/share/psi4
    Memory:     500.0 MiB
    Threads:    1
    
  ==> Input File <==

--------------------------------------------------------------------------
# o-Benzyne preliminary computations

memory 14 gb

molecule {
  0 1
  units bohr
 C   -1.3742627580   -0.0228188613    0.0000038478
 O    1.3066354037    0.1219629060    0.0000020448
 H   -2.0752399242    1.9115476536   -0.0000902582
 H   -2.1109097662   -0.9820706288    1.6786038590
 H   -2.1109144720   -0.9821861903   -1.6785293495
 H    1.9409673568   -1.5765669991    0.0000014461
}

set {
  basis cc-pvtz
  reference rhf
  e_convergence 10 
  d_convergence 10
  r_convergence 8
  maxiter 300
  freeze_core True
}

e, wfn = energy('ccsd(t)', return_wfn = True)
psi4.print_out('Giraffe The Energy is %.12f \n'%(e))
--------------------------------------------------------------------------

  Memory set to  13.039 GiB by Python driver.

Scratch directory: /tmp/

*** tstart() called on n054
*** at Wed Sep 21 16:31:22 2022

   => Loading Basis Set <=

    Name: CC-PVTZ
    Role: ORBITAL
    Keyword: BASIS
    atoms 1   entry C          line   186 file /opt/psi/4/master/share/psi4/basis/cc-pvtz.gbs 
    atoms 2   entry O          line   262 file /opt/psi/4/master/share/psi4/basis/cc-pvtz.gbs 
    atoms 3-6 entry H          line    23 file /opt/psi/4/master/share/psi4/basis/cc-pvtz.gbs 


         ---------------------------------------------------------
                                   SCF
               by Justin Turney, Rob Parrish, Andy Simmonett
                          and Daniel G. A. Smith
                              RHF Reference
                        1 Threads,  13351 MiB Core
         ---------------------------------------------------------

  ==> Geometry <==

    Molecular point group: c1
    Full point group: C1

    Geometry (in Bohr), charge = 0, multiplicity = 1:

       Center              X                  Y                   Z               Mass       
    ------------   -----------------  -----------------  -----------------  -----------------
         C           -1.374830581008    -0.023909674866     0.000001834903    12.000000000000
         O            1.306067580692     0.120872092434     0.000000031903    15.994914619570
         H           -2.075807747208     1.910456840034    -0.000092271097     1.007825032230
         H           -2.111477589208    -0.983161442366     1.678601846103     1.007825032230
         H           -2.111482295008    -0.983277003866    -1.678531362397     1.007825032230
         H            1.940399533792    -1.577657812666    -0.000000566797     1.007825032230

  Running in c1 symmetry.

  Rotational constants: A =      4.28307  B =      0.82727  C =      0.79771 [cm^-1]
  Rotational constants: A = 128403.25010  B =  24800.86398  C =  23914.62191 [MHz]
  Nuclear repulsion =   40.308131787905225

  Charge       = 0
  Multiplicity = 1
  Electrons    = 18
  Nalpha       = 9
  Nbeta        = 9

  ==> Algorithm <==

  SCF Algorithm Type is PK.
  DIIS enabled.
  MOM disabled.
  Fractional occupation disabled.
  Guess Type is SAD.
  Energy threshold   = 1.00e-10
  Density threshold  = 1.00e-10
  Integral threshold = 0.00e+00

  ==> Primary Basis <==

  Basis Set: CC-PVTZ
    Blend: CC-PVTZ
    Number of shells: 44
    Number of basis function: 116
    Number of Cartesian functions: 130
    Spherical Harmonics?: true
    Max angular momentum: 3

  ==> Integral Setup <==

  Using in-core PK algorithm.
   Calculation information:
      Number of atoms:                   6
      Number of AO shells:              44
      Number of primitives:             84
      Number of atomic orbitals:       130
      Number of basis functions:       116

      Integral cutoff                 1.00e-12
      Number of threads:                 1

  Performing in-core PK
  Using 46056582 doubles for integral storage.
  We computed 490473 shell quartets total.
  Whereas there are 490545 unique shell quartets.

  ==> DiskJK: Disk-Based J/K Matrices <==

    J tasked:                  Yes
    K tasked:                  Yes
    wK tasked:                  No
    Memory [MiB]:            10013
    Schwarz Cutoff:          1E-12

    OpenMP threads:              1

  Minimum eigenvalue in the overlap matrix is 1.8493247257E-03.
  Reciprocal condition number of the overlap matrix is 2.7963098410E-04.
    Using symmetric orthogonalization.

  ==> Pre-Iterations <==

  SCF Guess: Superposition of Atomic Densities via on-the-fly atomic UHF (no occupation information).

   -------------------------
    Irrep   Nso     Nmo    
   -------------------------
     A        116     116 
   -------------------------
    Total     116     116
   -------------------------

  ==> Iterations <==

                        Total Energy        Delta E     RMS |[F,P]|

   @RHF iter SAD:  -114.41455505268210   -1.14415e+02   0.00000e+00 
   @RHF iter   1:  -115.01447473379227   -5.99920e-01   3.41223e-03 DIIS
   @RHF iter   2:  -115.07129927427491   -5.68245e-02   1.95496e-03 DIIS
   @RHF iter   3:  -115.08813925362429   -1.68400e-02   3.00980e-04 DIIS
   @RHF iter   4:  -115.08902386518024   -8.84612e-04   8.77790e-05 DIIS
   @RHF iter   5:  -115.08909740919256   -7.35440e-05   2.14477e-05 DIIS
   @RHF iter   6:  -115.08910227547172   -4.86628e-06   4.73876e-06 DIIS
   @RHF iter   7:  -115.08910264320266   -3.67731e-07   1.09746e-06 DIIS
   @RHF iter   8:  -115.08910266469907   -2.14964e-08   2.26484e-07 DIIS
   @RHF iter   9:  -115.08910266560567   -9.06596e-10   4.21057e-08 DIIS
   @RHF iter  10:  -115.08910266563565   -2.99849e-11   1.08589e-08 DIIS
   @RHF iter  11:  -115.08910266563740   -1.74794e-12   2.22756e-09 DIIS
   @RHF iter  12:  -115.08910266563748   -8.52651e-14   3.97979e-10 DIIS
   @RHF iter  13:  -115.08910266563741    7.10543e-14   7.32633e-11 DIIS
  Energy and wave function converged.


  ==> Post-Iterations <==

    Orbital Energies [Eh]
    ---------------------

    Doubly Occupied:                                                      

       1A    -20.552729     2A    -11.269774     3A     -1.354204  
       4A     -0.923082     5A     -0.688208     6A     -0.617222  
       7A     -0.590044     8A     -0.502484     9A     -0.448985  

    Virtual:                                                              

      10A      0.138358    11A      0.178614    12A      0.220313  
      13A      0.223604    14A      0.290733    15A      0.387038  
      16A      0.404143    17A      0.544406    18A      0.583426  
      19A      0.622689    20A      0.625161    21A      0.638104  
      22A      0.690084    23A      0.702198    24A      0.721262  
      25A      0.833299    26A      0.864763    27A      0.872240  
      28A      0.927836    29A      1.067916    30A      1.100397  
      31A      1.177404    32A      1.189857    33A      1.261136  
      34A      1.271987    35A      1.281200    36A      1.367321  
      37A      1.446643    38A      1.491598    39A      1.521861  
      40A      1.544242    41A      1.581150    42A      1.619689  
      43A      1.772632    44A      2.092281    45A      2.180138  
      46A      2.196624    47A      2.300273    48A      2.323334  
      49A      2.490194    50A      2.510965    51A      2.578147  
      52A      2.804876    53A      2.949265    54A      3.055164  
      55A      3.108359    56A      3.115464    57A      3.144586  
      58A      3.222295    59A      3.242089    60A      3.312943  
      61A      3.314045    62A      3.342086    63A      3.384743  
      64A      3.498817    65A      3.612640    66A      3.633709  
      67A      3.699562    68A      3.705693    69A      3.742760  
      70A      3.760729    71A      3.812936    72A      3.835685  
      73A      3.904045    74A      4.008218    75A      4.028573  
      76A      4.116575    77A      4.159456    78A      4.168753  
      79A      4.245804    80A      4.254663    81A      4.286003  
      82A      4.396664    83A      4.435487    84A      4.464003  
      85A      4.555609    86A      4.578562    87A      4.709412  
      88A      4.781050    89A      4.991385    90A      5.030624  
      91A      5.047715    92A      5.200672    93A      5.265434  
      94A      5.309113    95A      5.366809    96A      5.433217  
      97A      5.536318    98A      5.543454    99A      5.558044  
     100A      5.783579   101A      5.944042   102A      6.186318  
     103A      6.206646   104A      6.245020   105A      6.423610  
     106A      6.635130   107A      6.994153   108A      7.125795  
     109A      7.176046   110A      7.235972   111A      7.351712  
     112A      7.428227   113A      7.594587   114A      7.907689  
     115A     12.127989   116A     13.686868  

    Final Occupation by Irrep:
              A 
    DOCC [     9 ]

  @RHF Final Energy:  -115.08910266563741

   => Energetics <=

    Nuclear Repulsion Energy =             40.3081317879052250
    One-Electron Energy =                -236.9010038663432169
    Two-Electron Energy =                  81.5037694128005938
    Total Energy =                       -115.0891026656374123

Computation Completed


Properties will be evaluated at   0.000000,   0.000000,   0.000000 [a0]

Properties computed using the SCF density matrix

  Nuclear Dipole Moment: [e a0]
     X:    -2.1588      Y:    -0.8101      Z:    -0.0000

  Electronic Dipole Moment: [e a0]
     X:     1.7718      Y:     0.2214      Z:     0.0000

  Dipole Moment: [e a0]
     X:    -0.3870      Y:    -0.5887      Z:    -0.0000     Total:     0.7045

  Dipole Moment: [D]
     X:    -0.9837      Y:    -1.4963      Z:    -0.0000     Total:     1.7907


*** tstop() called on n054 at Wed Sep 21 16:31:25 2022
Module time:
	user time   =       3.29 seconds =       0.05 minutes
	system time =       0.02 seconds =       0.00 minutes
	total time  =          3 seconds =       0.05 minutes
Total time:
	user time   =       3.29 seconds =       0.05 minutes
	system time =       0.02 seconds =       0.00 minutes
	total time  =          3 seconds =       0.05 minutes
 MINTS: Wrapper to libmints.
   by Justin Turney

   Calculation information:
      Number of threads:                 1
      Number of atoms:                   6
      Number of AO shells:              44
      Number of SO shells:              44
      Number of primitives:             84
      Number of atomic orbitals:       130
      Number of basis functions:       116

      Number of irreps:                  1
      Integral cutoff                 0.00e+00
      Number of functions per irrep: [ 116 ]

 OEINTS: Overlap, kinetic, potential, dipole, and quadrupole integrals
         stored in file 35.

      Computing two-electron integrals...done
      Computed 22875979 non-zero two-electron integrals.
        Stored in file 33.


*** tstart() called on n054
*** at Wed Sep 21 16:31:27 2022


	Wfn Parameters:
	--------------------
	Wavefunction         = CCSD_T
	Number of irreps     = 1
	Number of MOs        = 116
	Number of active MOs = 114
	AO-Basis             = NONE
	Semicanonical        = false
	Reference            = RHF
	Print Level          = 1

	IRREP	# MOs	# FZDC	# DOCC	# SOCC	# VIRT	# FZVR
	-----	-----	------	------	------	------	------
	 A	   116	    2	    7	    0	    107	    0
	Transforming integrals...
	IWL integrals will be deleted.
	(OO|OO)...
	Presorting SO-basis two-electron integrals.
	Sorting File: SO Ints (nn|nn) nbuckets = 1
	Transforming the one-electron integrals and constructing Fock matrices
	Starting first half-transformation.
	Sorting half-transformed integrals.
	First half integral transformation complete.
	Starting second half-transformation.
	Two-electron integral transformation complete.
	(OO|OV)...
	Starting second half-transformation.
	Two-electron integral transformation complete.
	(OO|VV)...
	Starting second half-transformation.
	Two-electron integral transformation complete.
	(OV|OO)...
	Starting first half-transformation.
	Sorting half-transformed integrals.
	First half integral transformation complete.
	Starting second half-transformation.
	Two-electron integral transformation complete.
	(OV|OV)...
	Starting second half-transformation.
	Two-electron integral transformation complete.
	(OV|VV)...
	Starting second half-transformation.
	Two-electron integral transformation complete.
	(VV|OO)...
	Starting first half-transformation.
	Sorting half-transformed integrals.
	First half integral transformation complete.
	Starting second half-transformation.
	Two-electron integral transformation complete.
	(VV|OV)...
	Starting second half-transformation.
	Two-electron integral transformation complete.
	(VV|VV)...
	Starting second half-transformation.
	Two-electron integral transformation complete.
	Frozen core energy     =   -106.49021339843465

	Size of irrep 0 of <ab|cd> integrals:    131.080 (MW) /   1048.637 (MB)
	Total:                                   131.080 (MW) /   1048.637 (MB)

	Size of irrep 0 of <ia|bc> integrals:      8.575 (MW) /     68.602 (MB)
	Total:                                     8.575 (MW) /     68.602 (MB)

	Size of irrep 0 of tijab amplitudes:       0.561 (MW) /      4.488 (MB)
	Total:                                     0.561 (MW) /      4.488 (MB)

	Nuclear Rep. energy          =     40.30813178790522
	SCF energy                   =   -115.08910266563741
	One-electron energy          =    -87.56558354152625
	Two-electron energy          =     38.65856248641872
	Reference energy             =   -115.08910266563696

*** tstop() called on n054 at Wed Sep 21 16:31:37 2022
Module time:
	user time   =       7.63 seconds =       0.13 minutes
	system time =       2.60 seconds =       0.04 minutes
	total time  =         10 seconds =       0.17 minutes
Total time:
	user time   =      12.47 seconds =       0.21 minutes
	system time =       2.80 seconds =       0.05 minutes
	total time  =         15 seconds =       0.25 minutes
            **************************
            *                        *
            *        CCENERGY        *
            *                        *
            **************************

    Nuclear Rep. energy (wfn)     =   40.308131787905225
    SCF energy          (wfn)     = -115.089102665637412
    Reference energy    (file100) = -115.089102665636958

    Input parameters:
    -----------------
    Wave function   =     CCSD_T
    Reference wfn   =     RHF
    Brueckner       =     No
    Memory (Mbytes) =     14000.0
    Maxiter         =    300
    R_Convergence   =     1.0e-08
    E_Convergence   =     1.0e-10
    Restart         =     Yes
    DIIS            =     Yes
    AO Basis        =     NONE
    ABCD            =     NEW
    Cache Level     =     2
    Cache Type      =     LOW
    Print Level     =     1
    Num. of threads =     1
    # Amps to Print =     10
    Print MP2 Amps? =     No
    Analyze T2 Amps =     No
    Print Pair Ener =     No
    Local CC        =     No
    SCS-MP2         =     False
    SCSN-MP2        =     False
    SCS-CCSD        =     False

MP2 correlation energy -0.4283438850212250
                Solving CC Amplitude Equations
                ------------------------------
  Iter             Energy              RMS        T1Diag      D1Diag    New D1Diag    D2Diag
  ----     ---------------------    ---------   ----------  ----------  ----------   --------
     0        -0.428343885021225    0.000e+00    0.000000    0.000000    0.000000    0.128384
     1        -0.435626020300974    4.785e-02    0.007310    0.014793    0.014793    0.129725
     2        -0.445460922406977    1.576e-02    0.007425    0.014734    0.014734    0.135512
     3        -0.446933245078446    5.535e-03    0.008332    0.016904    0.016904    0.136962
     4        -0.446841287934364    1.221e-03    0.008392    0.016991    0.016991    0.137197
     5        -0.446884158779673    4.461e-04    0.008431    0.017137    0.017137    0.137299
     6        -0.446891674227305    1.282e-04    0.008443    0.017194    0.017194    0.137307
     7        -0.446889183874674    4.753e-05    0.008445    0.017211    0.017211    0.137305
     8        -0.446889211094981    1.750e-05    0.008447    0.017221    0.017221    0.137304
     9        -0.446889295373286    4.963e-06    0.008447    0.017223    0.017223    0.137304
    10        -0.446889044749979    1.574e-06    0.008447    0.017223    0.017223    0.137304
    11        -0.446889110170868    4.898e-07    0.008447    0.017223    0.017223    0.137304
    12        -0.446889095323978    1.201e-07    0.008447    0.017223    0.017223    0.137304
    13        -0.446889098801205    4.352e-08    0.008447    0.017223    0.017223    0.137304
    14        -0.446889100017984    1.232e-08    0.008447    0.017223    0.017223    0.137304
    15        -0.446889100059528    5.143e-09    0.008447    0.017223    0.017223    0.137304
    16        -0.446889100082532    1.580e-09    0.008447    0.017223    0.017223    0.137304

    Iterations converged.


    Largest TIA Amplitudes:
              3   6        -0.0081555604
              3  14         0.0075994419
              3   9         0.0067522649
              6  14        -0.0067072065
              4   7         0.0058779968
              5   8         0.0057925484
              4   3        -0.0057757371
              3   2         0.0055354880
              6   6         0.0054910719
              4   5        -0.0051516397

    Largest TIjAb Amplitudes:
      3   3   9   9        -0.0231015354
      4   4   7   7        -0.0216029773
      6   6  14  14        -0.0210715818
      5   5  12  12        -0.0204005864
      2   2   7   7        -0.0190281707
      4   4   8   8        -0.0161092532
      3   3  14  14        -0.0151711075
      3   3   2   9        -0.0151207391
      3   3   9   2        -0.0151207391
      3   6   9   9        -0.0150701823

    SCF energy       (wfn)                    = -115.089102665637412
    Reference energy (file100)                = -115.089102665636958

    Opposite-spin MP2 correlation energy      =   -0.330137667283915
    Same-spin MP2 correlation energy          =   -0.098206217737310
    Singles MP2 correlation energy            =   -0.000000000000000
    MP2 correlation energy                    =   -0.428343885021225
      * MP2 total energy                      = -115.517446550658178

    Opposite-spin CCSD correlation energy     =   -0.357723800190320
    Same-spin CCSD correlation energy         =   -0.089165299892213
    Singles CCSD correlation energy           =    0.000000000000000
    CCSD correlation energy                   =   -0.446889100082532
      * CCSD total energy                     = -115.535991765719487

            **************************
            *                        *
            *        CCTRIPLES       *
            *                        *
            **************************


    Wave function   =    CCSD_T
    Reference wfn   =      RHF

    Nuclear Rep. energy (wfn)                =   40.308131787905225
    SCF energy          (wfn)                = -115.089102665637412
    Reference energy    (file100)            = -115.089102665636958
    CCSD energy         (file100)            =   -0.446889100082532
    Total CCSD energy   (file100)            = -115.535991765719487

    Number of ijk index combinations:               84
    Memory available in words        :      1750000000
    ~Words needed per explicit thread:         4900172
    Number of threads for explicit ijk threading:    1

    MKL num_threads set to 1 for explicit threading.

    (T) energy                                =   -0.014791558941981
      * CCSD(T) total energy                  = -115.550783324661467

Giraffe The Energy is -115.550783324661 

    Psi4 stopped on: Wednesday, 21 September 2022 04:32PM
    Psi4 wall time for execution: 0:00:43.74

*** Psi4 exiting successfully. Buy a developer a beer!
