
 Primary working directories    : /tmp/795519.10.gen4.q
 Secondary working directories  : /tmp/795519.10.gen4.q
 Wavefunction directory         : /home/vulcan/mel64643/wfu/
 Main file repository           : /tmp/795519.10.gen4.q/

 ARCHNAME  : Linux/x86_64
 FC        : /opt/intel/compilers_and_libraries_2016.1.150/linux/bin/intel64/ifort
 FCVERSION : 16.0.1
 BLASLIB   : -mkl
 id        : ccgc

 Nodes     nprocs
 n027         1
 ga_uses_ma=false, calling ma_init with nominal heap.
 GA-space will be limited to   8.0 MW (determined by -G option)

 Using customized tuning parameters: mindgm=10; mindgv=16; mindgc=4; mindgr=1; noblas=0; mincuda=1000; minvec=7
 default implementation of scratch files=df  

 ***,Optimization of min3
 memory,1000,m
 gthresh,energy=1.0d-12,orbital=1.0d-10,oneint=1.0d-16,twoint=1.0d-16,optgrad=1.0d-6,compress=1.0d-13
 geomtyp=xyz
 
  bohr
  geometry = {
  6
  arbitrary comment
  C   -1.3742370284   -0.0257059455    0.0000005215
  O    1.3042203104    0.1260872284    0.0000002428
  H   -2.0766212319    1.9095300286   -0.0000799514
  H   -2.1096060475   -0.9793005478    1.6820626156
  H   -2.1095990267   -0.9794317823   -1.6819905138
  H    1.9421188640   -1.5813111013   -0.0000013246
 }
 
 basis=cc-pvdz
 {rhf;maxit,200}
 {ccsd(t);maxit,200}

 Variables initialized (661), CPU time= 0.00 sec
 Commands  initialized (458), CPU time= 0.01 sec, 486 directives.
 Default parameters read. Elapsed time= 0.06 sec

 Checking input...
 Passed
1


                                         ***  PROGRAM SYSTEM MOLPRO  ***
                         Copyright, University College Cardiff Consultants Limited, 2008

                                    Version 2010.1 linked May 16 2016 07:17:05


 **********************************************************************************************************************************
 LABEL *   Optimization of min3                                                          
 Linux-4.4.3/n027(x86_64) 64 bit mpp version                                             DATE: 24-Oct-22          TIME: 15:40:36  
 **********************************************************************************************************************************

 SHA1:             9e8077add272b0f3cad6f7df79ec5211205f459d
 **********************************************************************************************************************************

 THRESHOLDS:

 ZERO    =  1.00D-12  ONEINT  =  1.00D-16  TWOINT  =  1.00D-16  PREFAC  =  1.00D-14  LOCALI  =  1.00D-09  EORDER  =  1.00D-04
 ENERGY  =  1.00D-12  ETEST   =  0.00D+00  EDENS   =  0.00D+00  THRDEDEF=  1.00D-06  GRADIENT=  1.00D-02  STEP    =  1.00D-03
 ORBITAL =  1.00D-10  CIVEC   =  1.00D-05  COEFF   =  1.00D-04  PRINTCI =  5.00D-02  PUNCHCI =  9.90D+01  OPTGRAD =  1.00D-06
 OPTENERG=  1.00D-06  OPTSTEP =  3.00D-04  THRGRAD =  1.00D-10  COMPRESS=  1.00D-13  VARMIN  =  1.00D-07  VARMAX  =  1.00D-03
 THRDOUB =  0.00D+00  THRDIV  =  1.00D-05  THRRED  =  1.00D-07  THRPSP  =  1.00D+00  THRDC   =  1.00D-10  THRCS   =  1.00D-10
 THRNRM  =  1.00D-08  THREQ   =  0.00D+00  THRDE   =  1.00D+00  THRREF  =  1.00D-05  SPARFAC =  1.00D+00  THRDLP  =  1.00D-07
 THRDIA  =  1.00D-10  THRDLS  =  1.00D-07  THRGPS  =  0.00D+00  THRKEX  =  0.00D+00  THRDIS  =  2.00D-01  THRVAR  =  1.00D-10
 THRLOC  =  1.00D-06  THRGAP  =  1.00D-06  THRLOCT = -1.00D+00  THRGAPT = -1.00D+00  THRORB  =  1.00D-06  THRMLTP =  0.00D+00
 THRCPQCI=  1.00D-10  KEXTA   =  0.00D+00  THRCOARS=  0.00D+00  SYMTOL  =  1.00D-06  GRADTOL =  1.00D-06  THROVL  =  1.00D-08
 THRORTH =  1.00D-08  GRID    =  1.00D-06  GRIDMAX =  1.00D-03  DTMAX   =  0.00D+00

 SETTING GEOMTYP        =    XYZ
 ZUNIT=BOHR
 

 Variable memory set to 1000000000 words,  buffer space   230000 words

 SETTING BASIS          =    CC-PVDZ


 Recomputing integrals since basis changed


 Using spherical harmonics

 Library entry C      S cc-pVDZ              selected for orbital group  1
 Library entry C      P cc-pVDZ              selected for orbital group  1
 Library entry C      D cc-pVDZ              selected for orbital group  1
 Library entry O      S cc-pVDZ              selected for orbital group  2
 Library entry O      P cc-pVDZ              selected for orbital group  2
 Library entry O      D cc-pVDZ              selected for orbital group  2
 Library entry H      S cc-pVDZ              selected for orbital group  3
 Library entry H      P cc-pVDZ              selected for orbital group  3

1PROGRAM * SEWARD (Integral evaluation for generally contracted gaussian basis sets)     Author: Roland Lindh, 1990

 Geometry written to block  1 of record 700


 Point group  C1  



 ATOMIC COORDINATES

 NR  ATOM    CHARGE       X              Y              Z

   1  C       6.00   -1.374237028   -0.025705946    0.000000522
   2  O       8.00    1.304220310    0.126087228    0.000000243
   3  H       1.00   -2.076621232    1.909530029   -0.000079951
   4  H       1.00   -2.109606047   -0.979300548    1.682062616
   5  H       1.00   -2.109599027   -0.979431782   -1.681990514
   6  H       1.00    1.942118864   -1.581311101   -0.000001325

 Bond lengths in Bohr (Angstrom)

 1-2  2.682755092  1-3  2.058757356  1-4  2.068681500  1-5  2.068681726  2-6  1.822669367
     ( 1.419652852)     ( 1.089447472)     ( 1.094699102)     ( 1.094699222)     ( 0.964515088)

 Bond angles

  1-2-6  107.24252708   2-1-3  106.70452312   2-1-4  112.39500655   2-1-5  112.39500596

  3-1-4  108.18367287   3-1-5  108.18350352   4-1-5  108.79809422

 NUCLEAR CHARGE:                   18
 NUMBER OF PRIMITIVE AOS:          82
 NUMBER OF SYMMETRY AOS:           80
 NUMBER OF CONTRACTIONS:           48   (  48A   )
 NUMBER OF CORE ORBITALS:           2   (   2A   )
 NUMBER OF VALENCE ORBITALS:       12   (  12A   )


 NUCLEAR REPULSION ENERGY   40.29966211


 Eigenvalues of metric

         1 0.966E-02 0.177E-01 0.369E-01 0.374E-01 0.385E-01 0.474E-01 0.478E-01 0.520E-01


 Contracted 2-electron integrals neglected if value below      1.0D-16
 AO integral compression algorithm  1   Integral accuracy      1.0D-16

     6.554 MB (compressed) written to integral file ( 94.6%)

     Node minimum: 6.554 MB, node maximum: 6.554 MB


 NUMBER OF SORTED TWO-ELECTRON INTEGRALS:     692076.     BUFFER LENGTH:  32768
 NUMBER OF SEGMENTS:   1  SEGMENT LENGTH:     692076      RECORD LENGTH: 524288

 Memory used in sort:       1.25 MW

 SORT1 READ      832256. AND WROTE      682148. INTEGRALS IN      2 RECORDS. CPU TIME:     0.01 SEC, REAL TIME:     0.01 SEC
 SORT2 READ      682148. AND WROTE      692076. INTEGRALS IN     25 RECORDS. CPU TIME:     0.02 SEC, REAL TIME:     0.03 SEC

 FILE SIZES:   FILE 1:     8.0 MBYTE,  FILE 4:     8.4 MBYTE,   TOTAL:     16.4 MBYTE

 OPERATOR DM      FOR CENTER  0  COORDINATES:    0.000000    0.000000    0.000000


 **********************************************************************************************************************************
 DATASETS  * FILE   NREC   LENGTH (MB)   RECORD NAMES
              1      19        8.03       500      610      700      900      950      970     1000      129      960     1100   
                                          VAR    BASINP    GEOM    SYMINP    ZMAT    AOBASIS   BASIS     P2S    ABASIS      S 
                                         1400     1410     1200     1210     1080     1600     1650     1300     1700   
                                           T        V       H0       H01     AOSYM     SMH    MOLCAS    ERIS     OPER   

 PROGRAMS   *        TOTAL       INT
 CPU TIMES  *         0.35      0.29
 REAL TIME  *         0.52 SEC
 DISK USED  *        23.61 MB      
 GA USED    *         0.00 MB       (max)       0.00 MB       (current)
 **********************************************************************************************************************************

1PROGRAM * RHF-SCF (CLOSED SHELL)       Authors: W. Meyer, H.-J. Werner


 NUMBER OF ELECTRONS:       9+    9-    SPACE SYMMETRY=1    SPIN SYMMETRY: Singlet 
 CONVERGENCE THRESHOLDS:    1.00E-10 (Density)    1.00E-13 (Energy)
 MAX. NUMBER OF ITERATIONS:      200
 INTERPOLATION TYPE:            DIIS
 INTERPOLATION STEPS:              2 (START)      1 (STEP)
 LEVEL SHIFTS:                  0.00 (CLOSED)  0.00 (OPEN) 



 Orbital guess generated from atomic densities. Full valence occupancy:   14

 Molecular orbital dump at record        2100.2

 ITERATION    DDIFF          GRAD             ENERGY        2-EL.EN.            DIPOLE MOMENTS         DIIS
    1      0.000D+00      0.000D+00      -115.01398448    164.383910   -0.48840   -0.90804   -0.00000    0
    2      0.000D+00      0.110D-01      -115.04239785    162.156099   -0.31258   -0.53786   -0.00000    1
    3      0.205D-01      0.531D-02      -115.04845364    163.185671   -0.39638   -0.61428   -0.00000    2
    4      0.640D-02      0.113D-02      -115.04892131    163.028340   -0.38664   -0.60277   -0.00000    3
    5      0.204D-02      0.204D-03      -115.04894283    163.034889   -0.38966   -0.59840   -0.00000    4
    6      0.437D-03      0.361D-04      -115.04894367    163.035041   -0.39003   -0.59818   -0.00000    5
    7      0.943D-04      0.755D-05      -115.04894370    163.033841   -0.39018   -0.59801   -0.00000    6
    8      0.155D-04      0.244D-05      -115.04894370    163.034235   -0.39023   -0.59798   -0.00000    7
    9      0.519D-05      0.506D-06      -115.04894370    163.034193   -0.39024   -0.59798   -0.00000    6
   10      0.146D-05      0.930D-07      -115.04894370    163.034192   -0.39024   -0.59798   -0.00000    6
   11      0.246D-06      0.347D-07      -115.04894370    163.034197   -0.39024   -0.59798   -0.00000    6
   12      0.631D-07      0.148D-07      -115.04894370    163.034195   -0.39024   -0.59798   -0.00000    7
   13      0.278D-07      0.322D-08      -115.04894370    163.034196   -0.39024   -0.59798   -0.00000    7
   14      0.804D-08      0.672D-09      -115.04894370    163.034196   -0.39024   -0.59798   -0.00000    7
   15      0.170D-08      0.158D-09      -115.04894370    163.034196   -0.39024   -0.59798   -0.00000    7
   16      0.352D-09      0.476D-10      -115.04894370    163.034196   -0.39024   -0.59798   -0.00000    7
   17      0.916D-10      0.158D-10      -115.04894370    163.034196   -0.39024   -0.59798   -0.00000    0

 Final occupancy:   9

 !RHF STATE 1.1 Energy               -115.048943701721
 Nuclear energy                        40.29966211
 One-electron energy                 -236.86570363
 Two-electron energy                   81.51709782
 Virial quotient                       -1.00098898
 !RHF STATE 1.1 Dipole moment          -0.39024449    -0.59798207    -0.00000269
 Dipole moment /Debye                  -0.99183759    -1.51981928    -0.00000683

 Orbital energies:

         1.1          2.1          3.1          4.1          5.1          6.1          7.1          8.1          9.1         10.1
    -20.550608   -11.274567    -1.349376    -0.920673    -0.682219    -0.613851    -0.584620    -0.496798    -0.443043     0.184217

        11.1
      0.224008


 **********************************************************************************************************************************
 DATASETS  * FILE   NREC   LENGTH (MB)   RECORD NAMES
              1      19        8.03       500      610      700      900      950      970     1000      129      960     1100   
                                          VAR    BASINP    GEOM    SYMINP    ZMAT    AOBASIS   BASIS     P2S    ABASIS      S 
                                         1400     1410     1200     1210     1080     1600     1650     1300     1700   
                                           T        V       H0       H01     AOSYM     SMH    MOLCAS    ERIS     OPER   

              2       3        0.39       700     1000     2100   
                                         GEOM     BASIS     RHF  

 PROGRAMS   *        TOTAL       RHF       INT
 CPU TIMES  *         0.45      0.10      0.29
 REAL TIME  *         0.66 SEC
 DISK USED  *        23.61 MB      
 GA USED    *         0.00 MB       (max)       0.00 MB       (current)
 **********************************************************************************************************************************


1PROGRAM * CCSD (Closed-shell coupled cluster)     Authors: C. Hampel, H.-J. Werner, 1991, M. Deegan, P.J. Knowles, 1992


 Convergence thresholds:  THRVAR = 1.00D-08  THRDEN = 1.00D-12

 CCSD(T)     terms to be evaluated (factor= 1.000)


 Number of core orbitals:           2 (   2 )
 Number of closed-shell orbitals:   7 (   7 )
 Number of external orbitals:      39 (  39 )

 Molecular orbitals read from record     2100.2  Type=RHF/CANONICAL (state 1.1)

 Number of N-1 electron functions:               7
 Number of N-2 electron functions:              28
 Number of singly external CSFs:               273
 Number of doubly external CSFs:             37401
 Total number of CSFs:                       37675

 Length of J-op  integral file:               0.00 MB
 Length of K-op  integral file:               0.19 MB
 Length of 3-ext integral record:             0.00 MB

 Memory could be reduced to 0.96 Mwords without degradation in triples

 Integral transformation finished. Total CPU:   0.02 sec, npass=  1  Memory used:   0.66 MW

 Reference energy:                   -115.04894370

 MP2 singlet pair energy:              -0.21879388
 MP2 triplet pair energy:              -0.11991714
 MP2 correlation energy:               -0.33871102
 MP2 total energy:                   -115.38765472

 SCS-MP2 correlation energy:           -0.33716776   (PS=  1.200000  PT=  0.333333)
 SCS-MP2 total energy:               -115.38611146

 ITER.      SQ.NORM     CORR.ENERGY   TOTAL ENERGY   ENERGY CHANGE        DEN1      VAR(S)    VAR(P)  DIIS     TIME
   1      1.10748060    -0.36149075  -115.41043445    -0.02277973    -0.01407793  0.92D-03  0.17D-02  1  1     0.08
   2      1.11603347    -0.36344201  -115.41238571    -0.00195127    -0.00926909  0.20D-04  0.16D-03  2  2     0.13
   3      1.11792951    -0.36357003  -115.41251373    -0.00012801    -0.00121216  0.96D-05  0.87D-05  3  3     0.17
   4      1.11844892    -0.36356881  -115.41251251     0.00000122    -0.00025659  0.34D-06  0.68D-06  4  4     0.22
   5      1.11854803    -0.36356924  -115.41251295    -0.00000043    -0.00003632  0.10D-06  0.50D-07  5  5     0.27
   6      1.11856737    -0.36356787  -115.41251157     0.00000137    -0.00000441  0.16D-07  0.42D-08  6  6     0.32
   7      1.11857223    -0.36356745  -115.41251115     0.00000042    -0.00000036  0.21D-08  0.74D-09  6  1     0.38
   8      1.11857352    -0.36356755  -115.41251125    -0.00000010     0.00000076  0.26D-09  0.74D-10  6  3     0.42
   9      1.11857460    -0.36356743  -115.41251113     0.00000013    -0.00000039  0.13D-10  0.11D-10  6  2     0.47
  10      1.11857453    -0.36356743  -115.41251113    -0.00000000     0.00000007  0.11D-11  0.90D-12  6  5     0.52
  11      1.11857456    -0.36356743  -115.41251113     0.00000000    -0.00000000  0.20D-12  0.52D-13  6  4     0.57
  12      1.11857454    -0.36356743  -115.41251113    -0.00000000     0.00000001  0.19D-13  0.10D-13  6  1     0.62
  13      1.11857455    -0.36356743  -115.41251113    -0.00000000    -0.00000000  0.24D-14  0.97D-15  6  6     0.67
  14      1.11857455    -0.36356743  -115.41251113     0.00000000    -0.00000000  0.22D-15  0.13D-15  6  3     0.72
  15      1.11857455    -0.36356743  -115.41251113    -0.00000000    -0.00000000  0.25D-16  0.17D-16  6  2     0.77
  16      1.11857455    -0.36356743  -115.41251113    -0.00000000    -0.00000000  0.57D-17  0.17D-17  6  5     0.82
  17      1.11857455    -0.36356743  -115.41251113    -0.00000000    -0.00000000  0.55D-18  0.26D-18  6  4     0.87
  18      1.11857455    -0.36356743  -115.41251113     0.00000000    -0.00000000  0.84D-19  0.44D-19  6  1     0.92
  19      1.11857455    -0.36356743  -115.41251113    -0.00000000    -0.00000000  0.97D-20  0.44D-20  6  6     0.97
  20      1.11857455    -0.36356743  -115.41251113     0.00000000     0.00000000  0.14D-20  0.57D-21  6  3     1.02

 Norm of t1 vector:      0.04178987      S-energy:    -0.00000000      T1 diagnostic:  0.00789754
                                                                       D1 diagnostic:  0.01750994


 Total CPU time for triples:      0.25 sec


 RESULTS
 =======

  Reference energy                   -115.048943701721
  CCSD singlet pair energy             -0.254783868576
  CCSD triplet pair energy             -0.108783560476
  CCSD correlation energy              -0.363567429053

  Triples (T) contribution             -0.007755315248
  Total correlation energy             -0.371322744301

  CCSD total energy                  -115.412511130774
  CCSD[T] energy                     -115.420557523355
  CCSD-T energy                      -115.420116006316
 !CCSD(T) total energy               -115.420266446022

 Timing summary (sec):

 STEP                 CPU(USER)    SYS     CPU(TOT)    WALL
 Transformation          0.02      0.01      0.03      0.03
 CCSD iterations         1.00      0.04      1.04      1.08
 Triples                 0.25      0.01      0.26      0.25

 Program statistics:

 Available memory in ccsd:               999999704
 Min. memory needed in ccsd:                136801
 Max. memory used in ccsd:                  163198
 Max. memory used in cckext:                182024 (20 integral passes)



 **********************************************************************************************************************************
 DATASETS  * FILE   NREC   LENGTH (MB)   RECORD NAMES
              1      20       10.57       500      610      700      900      950      970     1000      129      960     1100   
                                          VAR    BASINP    GEOM    SYMINP    ZMAT    AOBASIS   BASIS     P2S    ABASIS      S 
                                         1400     1410     1200     1210     1080     1600     1650     1300     1700     1380   
                                           T        V       H0       H01     AOSYM     SMH    MOLCAS    ERIS     OPER     JKOP   

              2       3        0.39       700     1000     2100   
                                         GEOM     BASIS     RHF  

 PROGRAMS   *        TOTAL   CCSD(T)       RHF       INT
 CPU TIMES  *         1.73      1.28      0.10      0.29
 REAL TIME  *         2.04 SEC
 DISK USED  *        25.03 MB      
 GA USED    *         0.00 MB       (max)       0.00 MB       (current)
 **********************************************************************************************************************************

        CCSD(T)         RHF-SCF 
   -115.42026645   -115.04894370
 **********************************************************************************************************************************
 Variable memory released
