
 Primary working directories    : /tmp/601555.114.gen4.q
 Secondary working directories  : /tmp/601555.114.gen4.q
 Wavefunction directory         : /home/vulcan/mel64643/wfu/
 Main file repository           : /tmp/601555.114.gen4.q/

 ARCHNAME  : Linux/x86_64
 FC        : /opt/intel/compilers_and_libraries_2016.1.150/linux/bin/intel64/ifort
 FCVERSION : 16.0.1
 BLASLIB   : -mkl
 id        : ccgc

 Nodes     nprocs
 n049         1
 ga_uses_ma=false, calling ma_init with nominal heap.
 GA-space will be limited to   8.0 MW (determined by -G option)

 Using customized tuning parameters: mindgm=10; mindgv=16; mindgc=4; mindgr=1; noblas=0; mincuda=1000; minvec=7
 default implementation of scratch files=df  

 ***,Optimization of min3
 memory,1000,m
 gthresh,energy=1.0d-12,orbital=1.0d-10,oneint=1.0d-16,twoint=1.0d-16,optgrad=1.0d-6,compress=1.0d-13
 geomtyp=xyz
 
  bohr
  geometry = {
  6
  arbitrary comment
  C   -1.3791414144   -0.0243646377    0.0000003400
  O    1.3144518381    0.1201186876    0.0000002996
  H   -2.0782680116    1.9105431788   -0.0000799813
  H   -2.1169929499   -0.9792891485    1.6805089743
  H   -2.1169862775   -0.9794201871   -1.6804367427
  H    1.9532126554   -1.5777200131   -0.0000012998
 }
 
 basis=cc-pvdz
 {rhf;maxit,200}
 {ccsd(t);maxit,200}

 Variables initialized (661), CPU time= 0.01 sec
 Commands  initialized (458), CPU time= 0.00 sec, 486 directives.
 Default parameters read. Elapsed time= 0.05 sec

 Checking input...
 Passed
1


                                         ***  PROGRAM SYSTEM MOLPRO  ***
                         Copyright, University College Cardiff Consultants Limited, 2008

                                    Version 2010.1 linked May 16 2016 07:17:05


 **********************************************************************************************************************************
 LABEL *   Optimization of min3                                                          
 Linux-4.4.3/n049(x86_64) 64 bit mpp version                                             DATE: 06-Nov-21          TIME: 15:40:01  
 **********************************************************************************************************************************

 SHA1:             9e8077add272b0f3cad6f7df79ec5211205f459d
 **********************************************************************************************************************************

 THRESHOLDS:

 ZERO    =  1.00D-12  ONEINT  =  1.00D-16  TWOINT  =  1.00D-16  PREFAC  =  1.00D-14  LOCALI  =  1.00D-09  EORDER  =  1.00D-04
 ENERGY  =  1.00D-12  ETEST   =  0.00D+00  EDENS   =  0.00D+00  THRDEDEF=  1.00D-06  GRADIENT=  1.00D-02  STEP    =  1.00D-03
 ORBITAL =  1.00D-10  CIVEC   =  1.00D-05  COEFF   =  1.00D-04  PRINTCI =  5.00D-02  PUNCHCI =  9.90D+01  OPTGRAD =  1.00D-06
 OPTENERG=  1.00D-06  OPTSTEP =  3.00D-04  THRGRAD =  1.00D-10  COMPRESS=  1.00D-13  VARMIN  =  1.00D-07  VARMAX  =  1.00D-03
 THRDOUB =  0.00D+00  THRDIV  =  1.00D-05  THRRED  =  1.00D-07  THRPSP  =  1.00D+00  THRDC   =  1.00D-10  THRCS   =  1.00D-10
 THRNRM  =  1.00D-08  THREQ   =  0.00D+00  THRDE   =  1.00D+00  THRREF  =  1.00D-05  SPARFAC =  1.00D+00  THRDLP  =  1.00D-07
 THRDIA  =  1.00D-10  THRDLS  =  1.00D-07  THRGPS  =  0.00D+00  THRKEX  =  0.00D+00  THRDIS  =  2.00D-01  THRVAR  =  1.00D-10
 THRLOC  =  1.00D-06  THRGAP  =  1.00D-06  THRLOCT = -1.00D+00  THRGAPT = -1.00D+00  THRORB  =  1.00D-06  THRMLTP =  0.00D+00
 THRCPQCI=  1.00D-10  KEXTA   =  0.00D+00  THRCOARS=  0.00D+00  SYMTOL  =  1.00D-06  GRADTOL =  1.00D-06  THROVL  =  1.00D-08
 THRORTH =  1.00D-08  GRID    =  1.00D-06  GRIDMAX =  1.00D-03  DTMAX   =  0.00D+00

 SETTING GEOMTYP        =    XYZ
 ZUNIT=BOHR
 

 Variable memory set to 1000000000 words,  buffer space   230000 words

 SETTING BASIS          =    CC-PVDZ


 Recomputing integrals since basis changed


 Using spherical harmonics

 Library entry C      S cc-pVDZ              selected for orbital group  1
 Library entry C      P cc-pVDZ              selected for orbital group  1
 Library entry C      D cc-pVDZ              selected for orbital group  1
 Library entry O      S cc-pVDZ              selected for orbital group  2
 Library entry O      P cc-pVDZ              selected for orbital group  2
 Library entry O      D cc-pVDZ              selected for orbital group  2
 Library entry H      S cc-pVDZ              selected for orbital group  3
 Library entry H      P cc-pVDZ              selected for orbital group  3

1PROGRAM * SEWARD (Integral evaluation for generally contracted gaussian basis sets)     Author: Roland Lindh, 1990

 Geometry written to block  1 of record 700


 Point group  C1  



 ATOMIC COORDINATES

 NR  ATOM    CHARGE       X              Y              Z

   1  C       6.00   -1.379141414   -0.024364638    0.000000340
   2  O       8.00    1.314451838    0.120118688    0.000000300
   3  H       1.00   -2.078268012    1.910543179   -0.000079981
   4  H       1.00   -2.116992950   -0.979289149    1.680508974
   5  H       1.00   -2.116986278   -0.979420187   -1.680436743
   6  H       1.00    1.953212655   -1.577720013   -0.000001300

 Bond lengths in Bohr (Angstrom)

 1-2  2.697465485  1-3  2.057339608  1-4  2.068916378  1-5  2.068916367  2-6  1.814020848
     ( 1.427437257)     ( 1.088697232)     ( 1.094823395)     ( 1.094823389)     ( 0.959938489)

 Bond angles

  1-2-6  107.54692030   2-1-3  106.79556933   2-1-4  112.38615868   2-1-5  112.38616796

  3-1-4  108.23588202   3-1-5  108.23571569   4-1-5  108.63227341

 NUCLEAR CHARGE:                   18
 NUMBER OF PRIMITIVE AOS:          82
 NUMBER OF SYMMETRY AOS:           80
 NUMBER OF CONTRACTIONS:           48   (  48A   )
 NUMBER OF CORE ORBITALS:           2   (   2A   )
 NUMBER OF VALENCE ORBITALS:       12   (  12A   )


 NUCLEAR REPULSION ENERGY   40.19611131


 Eigenvalues of metric

         1 0.970E-02 0.177E-01 0.369E-01 0.374E-01 0.382E-01 0.476E-01 0.478E-01 0.518E-01


 Contracted 2-electron integrals neglected if value below      1.0D-16
 AO integral compression algorithm  1   Integral accuracy      1.0D-16

     6.291 MB (compressed) written to integral file ( 98.2%)

     Node minimum: 6.291 MB, node maximum: 6.291 MB


 NUMBER OF SORTED TWO-ELECTRON INTEGRALS:     692076.     BUFFER LENGTH:  32768
 NUMBER OF SEGMENTS:   1  SEGMENT LENGTH:     692076      RECORD LENGTH: 524288

 Memory used in sort:       1.25 MW

 SORT1 READ      832256. AND WROTE      682148. INTEGRALS IN      2 RECORDS. CPU TIME:     0.00 SEC, REAL TIME:     0.01 SEC
 SORT2 READ      682148. AND WROTE      692076. INTEGRALS IN     24 RECORDS. CPU TIME:     0.02 SEC, REAL TIME:     0.02 SEC

 FILE SIZES:   FILE 1:     8.0 MBYTE,  FILE 4:     8.4 MBYTE,   TOTAL:     16.4 MBYTE

 OPERATOR DM      FOR CENTER  0  COORDINATES:    0.000000    0.000000    0.000000


 **********************************************************************************************************************************
 DATASETS  * FILE   NREC   LENGTH (MB)   RECORD NAMES
              1      19        8.03       500      610      700      900      950      970     1000      129      960     1100   
                                          VAR    BASINP    GEOM    SYMINP    ZMAT    AOBASIS   BASIS     P2S    ABASIS      S 
                                         1400     1410     1200     1210     1080     1600     1650     1300     1700   
                                           T        V       H0       H01     AOSYM     SMH    MOLCAS    ERIS     OPER   

 PROGRAMS   *        TOTAL       INT
 CPU TIMES  *         0.22      0.18
 REAL TIME  *         0.42 SEC
 DISK USED  *        23.34 MB      
 GA USED    *         0.00 MB       (max)       0.00 MB       (current)
 **********************************************************************************************************************************

1PROGRAM * RHF-SCF (CLOSED SHELL)       Authors: W. Meyer, H.-J. Werner


 NUMBER OF ELECTRONS:       9+    9-    SPACE SYMMETRY=1    SPIN SYMMETRY: Singlet 
 CONVERGENCE THRESHOLDS:    1.00E-10 (Density)    1.00E-13 (Energy)
 MAX. NUMBER OF ITERATIONS:      200
 INTERPOLATION TYPE:            DIIS
 INTERPOLATION STEPS:              2 (START)      1 (STEP)
 LEVEL SHIFTS:                  0.00 (CLOSED)  0.00 (OPEN) 



 Orbital guess generated from atomic densities. Full valence occupancy:   14

 Molecular orbital dump at record        2100.2

 ITERATION    DDIFF          GRAD             ENERGY        2-EL.EN.            DIPOLE MOMENTS         DIIS
    1      0.000D+00      0.000D+00      -115.01398111    164.174713   -0.50585   -0.90148   -0.00000    0
    2      0.000D+00      0.110D-01      -115.04230115    161.964127   -0.32393   -0.53613   -0.00000    1
    3      0.205D-01      0.532D-02      -115.04838648    162.987621   -0.40862   -0.61131   -0.00000    2
    4      0.641D-02      0.112D-02      -115.04885091    162.832233   -0.39818   -0.60022   -0.00000    3
    5      0.204D-02      0.202D-03      -115.04887201    162.838507   -0.40094   -0.59592   -0.00000    4
    6      0.434D-03      0.354D-04      -115.04887280    162.838656   -0.40122   -0.59572   -0.00000    5
    7      0.931D-04      0.735D-05      -115.04887283    162.837462   -0.40135   -0.59555   -0.00000    6
    8      0.150D-04      0.237D-05      -115.04887284    162.837843   -0.40138   -0.59553   -0.00000    7
    9      0.503D-05      0.486D-06      -115.04887284    162.837802   -0.40139   -0.59553   -0.00000    6
   10      0.140D-05      0.847D-07      -115.04887284    162.837801   -0.40140   -0.59553   -0.00000    6
   11      0.229D-06      0.317D-07      -115.04887284    162.837806   -0.40140   -0.59553   -0.00000    6
   12      0.574D-07      0.130D-07      -115.04887284    162.837804   -0.40140   -0.59553   -0.00000    7
   13      0.240D-07      0.295D-08      -115.04887284    162.837805   -0.40140   -0.59553   -0.00000    7
   14      0.735D-08      0.642D-09      -115.04887284    162.837805   -0.40140   -0.59553   -0.00000    7
   15      0.165D-08      0.147D-09      -115.04887284    162.837805   -0.40140   -0.59553   -0.00000    7
   16      0.328D-09      0.441D-10      -115.04887284    162.837805   -0.40140   -0.59553   -0.00000    7
   17      0.858D-10      0.158D-10      -115.04887284    162.837805   -0.40140   -0.59553   -0.00000    7
   18      0.405D-10      0.286D-11      -115.04887284    162.837805   -0.40140   -0.59553   -0.00000    7
   19      0.672D-11      0.574D-12      -115.04887284    162.837805   -0.40140   -0.59553   -0.00000    0

 Final occupancy:   9

 !RHF STATE 1.1 Energy               -115.048872837848
 Nuclear energy                        40.19611131
 One-electron energy                 -236.66388642
 Two-electron energy                   81.41890228
 Virial quotient                       -1.00105911
 !RHF STATE 1.1 Dipole moment          -0.40139629    -0.59552605    -0.00000275
 Dipole moment /Debye                  -1.02018078    -1.51357709    -0.00000699

 Orbital energies:

         1.1          2.1          3.1          4.1          5.1          6.1          7.1          8.1          9.1         10.1
    -20.550074   -11.275358    -1.347345    -0.921676    -0.681413    -0.612401    -0.583410    -0.497702    -0.443662     0.184630

        11.1
      0.224003


 **********************************************************************************************************************************
 DATASETS  * FILE   NREC   LENGTH (MB)   RECORD NAMES
              1      19        8.03       500      610      700      900      950      970     1000      129      960     1100   
                                          VAR    BASINP    GEOM    SYMINP    ZMAT    AOBASIS   BASIS     P2S    ABASIS      S 
                                         1400     1410     1200     1210     1080     1600     1650     1300     1700   
                                           T        V       H0       H01     AOSYM     SMH    MOLCAS    ERIS     OPER   

              2       3        0.39       700     1000     2100   
                                         GEOM     BASIS     RHF  

 PROGRAMS   *        TOTAL       RHF       INT
 CPU TIMES  *         0.32      0.10      0.18
 REAL TIME  *         0.54 SEC
 DISK USED  *        23.34 MB      
 GA USED    *         0.00 MB       (max)       0.00 MB       (current)
 **********************************************************************************************************************************


1PROGRAM * CCSD (Closed-shell coupled cluster)     Authors: C. Hampel, H.-J. Werner, 1991, M. Deegan, P.J. Knowles, 1992


 Convergence thresholds:  THRVAR = 1.00D-08  THRDEN = 1.00D-12

 CCSD(T)     terms to be evaluated (factor= 1.000)


 Number of core orbitals:           2 (   2 )
 Number of closed-shell orbitals:   7 (   7 )
 Number of external orbitals:      39 (  39 )

 Molecular orbitals read from record     2100.2  Type=RHF/CANONICAL (state 1.1)

 Number of N-1 electron functions:               7
 Number of N-2 electron functions:              28
 Number of singly external CSFs:               273
 Number of doubly external CSFs:             37401
 Total number of CSFs:                       37675

 Length of J-op  integral file:               0.00 MB
 Length of K-op  integral file:               0.19 MB
 Length of 3-ext integral record:             0.00 MB

 Memory could be reduced to 0.96 Mwords without degradation in triples

 Integral transformation finished. Total CPU:   0.02 sec, npass=  1  Memory used:   0.66 MW

 Reference energy:                   -115.04887284

 MP2 singlet pair energy:              -0.21881631
 MP2 triplet pair energy:              -0.11986244
 MP2 correlation energy:               -0.33867875
 MP2 total energy:                   -115.38755158

 SCS-MP2 correlation energy:           -0.33716064   (PS=  1.200000  PT=  0.333333)
 SCS-MP2 total energy:               -115.38603348

 ITER.      SQ.NORM     CORR.ENERGY   TOTAL ENERGY   ENERGY CHANGE        DEN1      VAR(S)    VAR(P)  DIIS     TIME
   1      1.10755006    -0.36147191  -115.41034475    -0.02279317    -0.01407752  0.92D-03  0.17D-02  1  1     0.06
   2      1.11611981    -0.36342438  -115.41229722    -0.00195247    -0.00927812  0.20D-04  0.16D-03  2  2     0.10
   3      1.11802630    -0.36355362  -115.41242646    -0.00012924    -0.00121701  0.97D-05  0.87D-05  3  3     0.14
   4      1.11854995    -0.36355219  -115.41242503     0.00000143    -0.00025813  0.35D-06  0.69D-06  4  4     0.17
   5      1.11865065    -0.36355258  -115.41242542    -0.00000038    -0.00003682  0.10D-06  0.50D-07  5  5     0.21
   6      1.11867039    -0.36355118  -115.41242401     0.00000140    -0.00000447  0.17D-07  0.42D-08  6  6     0.25
   7      1.11867533    -0.36355074  -115.41242358     0.00000043    -0.00000036  0.21D-08  0.75D-09  6  1     0.29
   8      1.11867665    -0.36355085  -115.41242369    -0.00000010     0.00000077  0.27D-09  0.76D-10  6  3     0.33
   9      1.11867774    -0.36355072  -115.41242356     0.00000013    -0.00000039  0.13D-10  0.11D-10  6  2     0.37
  10      1.11867767    -0.36355072  -115.41242356    -0.00000000     0.00000007  0.11D-11  0.92D-12  6  5     0.41
  11      1.11867770    -0.36355072  -115.41242356     0.00000000    -0.00000000  0.20D-12  0.53D-13  6  4     0.44
  12      1.11867768    -0.36355072  -115.41242356    -0.00000000     0.00000001  0.20D-13  0.11D-13  6  1     0.48
  13      1.11867769    -0.36355072  -115.41242356    -0.00000000    -0.00000000  0.24D-14  0.98D-15  6  6     0.52
  14      1.11867769    -0.36355072  -115.41242356     0.00000000    -0.00000000  0.23D-15  0.13D-15  6  3     0.56
  15      1.11867769    -0.36355072  -115.41242356    -0.00000000    -0.00000000  0.26D-16  0.17D-16  6  2     0.60
  16      1.11867769    -0.36355072  -115.41242356    -0.00000000    -0.00000000  0.59D-17  0.17D-17  6  5     0.64
  17      1.11867769    -0.36355072  -115.41242356    -0.00000000    -0.00000000  0.56D-18  0.26D-18  6  4     0.68
  18      1.11867769    -0.36355072  -115.41242356     0.00000000    -0.00000000  0.86D-19  0.45D-19  6  1     0.72
  19      1.11867769    -0.36355072  -115.41242356    -0.00000000    -0.00000000  0.10D-19  0.45D-20  6  6     0.75
  20      1.11867769    -0.36355072  -115.41242356     0.00000000     0.00000000  0.14D-20  0.58D-21  6  3     0.79

 Norm of t1 vector:      0.04195245      S-energy:    -0.00000000      T1 diagnostic:  0.00792827
                                                                       D1 diagnostic:  0.01782653


 Total CPU time for triples:      0.20 sec


 RESULTS
 =======

  Reference energy                   -115.048872837847
  CCSD singlet pair energy             -0.254833867592
  CCSD triplet pair energy             -0.108716854801
  CCSD correlation energy              -0.363550722393

  Triples (T) contribution             -0.007767582802
  Total correlation energy             -0.371318305196

  CCSD total energy                  -115.412423560241
  CCSD[T] energy                     -115.420484442506
  CCSD-T energy                      -115.420039524401
 !CCSD(T) total energy               -115.420191143043

 Timing summary (sec):

 STEP                 CPU(USER)    SYS     CPU(TOT)    WALL
 Transformation          0.02      0.00      0.02      0.02
 CCSD iterations         0.78      0.04      0.82      0.85
 Triples                 0.20      0.00      0.20      0.21

 Program statistics:

 Available memory in ccsd:               999999704
 Min. memory needed in ccsd:                136801
 Max. memory used in ccsd:                  163198
 Max. memory used in cckext:                182024 (20 integral passes)



 **********************************************************************************************************************************
 DATASETS  * FILE   NREC   LENGTH (MB)   RECORD NAMES
              1      20       10.56       500      610      700      900      950      970     1000      129      960     1100   
                                          VAR    BASINP    GEOM    SYMINP    ZMAT    AOBASIS   BASIS     P2S    ABASIS      S 
                                         1400     1410     1200     1210     1080     1600     1650     1300     1700     1380   
                                           T        V       H0       H01     AOSYM     SMH    MOLCAS    ERIS     OPER     JKOP   

              2       3        0.39       700     1000     2100   
                                         GEOM     BASIS     RHF  

 PROGRAMS   *        TOTAL   CCSD(T)       RHF       INT
 CPU TIMES  *         1.33      1.01      0.10      0.18
 REAL TIME  *         1.65 SEC
 DISK USED  *        24.76 MB      
 GA USED    *         0.00 MB       (max)       0.00 MB       (current)
 **********************************************************************************************************************************

        CCSD(T)         RHF-SCF 
   -115.42019114   -115.04887284
 **********************************************************************************************************************************
 Variable memory released
