
 Primary working directories    : /tmp/601556.25.gen4.q
 Secondary working directories  : /tmp/601556.25.gen4.q
 Wavefunction directory         : /home/vulcan/mel64643/wfu/
 Main file repository           : /tmp/601556.25.gen4.q/

 ARCHNAME  : Linux/x86_64
 FC        : /opt/intel/compilers_and_libraries_2016.1.150/linux/bin/intel64/ifort
 FCVERSION : 16.0.1
 BLASLIB   : -mkl
 id        : ccgc

 Nodes     nprocs
 n051         1
 ga_uses_ma=false, calling ma_init with nominal heap.
 GA-space will be limited to   8.0 MW (determined by -G option)

 Using customized tuning parameters: mindgm=10; mindgv=16; mindgc=4; mindgr=1; noblas=0; mincuda=1000; minvec=7
 default implementation of scratch files=df  

 ***,Optimization of min3
 memory,1000,m
 gthresh,energy=1.0d-12,orbital=1.0d-10,oneint=1.0d-16,twoint=1.0d-16,optgrad=1.0d-6,compress=1.0d-13
 geomtyp=xyz
 
  bohr
  geometry = {
  6
  arbitrary comment
  C   -1.3757704399   -0.0233091261    0.0000000190
  O    1.3049730330    0.1240732234    0.0000000959
  H   -2.0799278700    1.9099262706   -0.0000790889
  H   -2.1089937579   -0.9788507107    1.6819828685
  H   -2.1089856262   -0.9789831005   -1.6819108018
  H    1.9449805011   -1.5829886767   -0.0000015027
 }
 
 basis=cc-pvtz
 {rhf;maxit,200}
 {ccsd(t);maxit,200}

 Variables initialized (661), CPU time= 0.00 sec
 Commands  initialized (458), CPU time= 0.00 sec, 486 directives.
 Default parameters read. Elapsed time= 0.05 sec

 Checking input...
 Passed
1


                                         ***  PROGRAM SYSTEM MOLPRO  ***
                         Copyright, University College Cardiff Consultants Limited, 2008

                                    Version 2010.1 linked May 16 2016 07:17:05


 **********************************************************************************************************************************
 LABEL *   Optimization of min3                                                          
 Linux-4.4.3/n051(x86_64) 64 bit mpp version                                             DATE: 06-Nov-21          TIME: 15:42:01  
 **********************************************************************************************************************************

 SHA1:             9e8077add272b0f3cad6f7df79ec5211205f459d
 **********************************************************************************************************************************

 THRESHOLDS:

 ZERO    =  1.00D-12  ONEINT  =  1.00D-16  TWOINT  =  1.00D-16  PREFAC  =  1.00D-14  LOCALI  =  1.00D-09  EORDER  =  1.00D-04
 ENERGY  =  1.00D-12  ETEST   =  0.00D+00  EDENS   =  0.00D+00  THRDEDEF=  1.00D-06  GRADIENT=  1.00D-02  STEP    =  1.00D-03
 ORBITAL =  1.00D-10  CIVEC   =  1.00D-05  COEFF   =  1.00D-04  PRINTCI =  5.00D-02  PUNCHCI =  9.90D+01  OPTGRAD =  1.00D-06
 OPTENERG=  1.00D-06  OPTSTEP =  3.00D-04  THRGRAD =  1.00D-10  COMPRESS=  1.00D-13  VARMIN  =  1.00D-07  VARMAX  =  1.00D-03
 THRDOUB =  0.00D+00  THRDIV  =  1.00D-05  THRRED  =  1.00D-07  THRPSP  =  1.00D+00  THRDC   =  1.00D-10  THRCS   =  1.00D-10
 THRNRM  =  1.00D-08  THREQ   =  0.00D+00  THRDE   =  1.00D+00  THRREF  =  1.00D-05  SPARFAC =  1.00D+00  THRDLP  =  1.00D-07
 THRDIA  =  1.00D-10  THRDLS  =  1.00D-07  THRGPS  =  0.00D+00  THRKEX  =  0.00D+00  THRDIS  =  2.00D-01  THRVAR  =  1.00D-10
 THRLOC  =  1.00D-06  THRGAP  =  1.00D-06  THRLOCT = -1.00D+00  THRGAPT = -1.00D+00  THRORB  =  1.00D-06  THRMLTP =  0.00D+00
 THRCPQCI=  1.00D-10  KEXTA   =  0.00D+00  THRCOARS=  0.00D+00  SYMTOL  =  1.00D-06  GRADTOL =  1.00D-06  THROVL  =  1.00D-08
 THRORTH =  1.00D-08  GRID    =  1.00D-06  GRIDMAX =  1.00D-03  DTMAX   =  0.00D+00

 SETTING GEOMTYP        =    XYZ
 ZUNIT=BOHR
 

 Variable memory set to 1000000000 words,  buffer space   230000 words

 SETTING BASIS          =    CC-PVTZ


 Recomputing integrals since basis changed


 Using spherical harmonics

 Library entry C      S cc-pVTZ              selected for orbital group  1
 Library entry C      P cc-pVTZ              selected for orbital group  1
 Library entry C      D cc-pVTZ              selected for orbital group  1
 Library entry C      F cc-pVTZ              selected for orbital group  1
 Library entry O      S cc-pVTZ              selected for orbital group  2
 Library entry O      P cc-pVTZ              selected for orbital group  2
 Library entry O      D cc-pVTZ              selected for orbital group  2
 Library entry O      F cc-pVTZ              selected for orbital group  2
 Library entry H      S cc-pVTZ              selected for orbital group  3
 Library entry H      P cc-pVTZ              selected for orbital group  3
 Library entry H      D cc-pVTZ              selected for orbital group  3

1PROGRAM * SEWARD (Integral evaluation for generally contracted gaussian basis sets)     Author: Roland Lindh, 1990

 Geometry written to block  1 of record 700


 Point group  C1  



 ATOMIC COORDINATES

 NR  ATOM    CHARGE       X              Y              Z

   1  C       6.00   -1.375770440   -0.023309126    0.000000019
   2  O       8.00    1.304973033    0.124073223    0.000000096
   3  H       1.00   -2.079927870    1.909926271   -0.000079089
   4  H       1.00   -2.108993758   -0.978850711    1.681982869
   5  H       1.00   -2.108985626   -0.978983101   -1.681910802
   6  H       1.00    1.944980501   -1.582988677   -0.000001503

 Bond lengths in Bohr (Angstrom)

 1-2  2.684791821  1-3  2.057483121  1-4  2.068753842  1-5  2.068753553  2-6  1.823093495
     ( 1.420730643)     ( 1.088773175)     ( 1.094737384)     ( 1.094737231)     ( 0.964739527)

 Bond angles

  1-2-6  107.40505491   2-1-3  106.86668782   2-1-4  112.28715784   2-1-5  112.28713850

  3-1-4  108.22387398   3-1-5  108.22381364   4-1-5  108.78493181

 NUCLEAR CHARGE:                   18
 NUMBER OF PRIMITIVE AOS:         162
 NUMBER OF SYMMETRY AOS:          148
 NUMBER OF CONTRACTIONS:          116   ( 116A   )
 NUMBER OF CORE ORBITALS:           2   (   2A   )
 NUMBER OF VALENCE ORBITALS:       12   (  12A   )


 NUCLEAR REPULSION ENERGY   40.28174165


 Eigenvalues of metric

         1 0.133E-02 0.180E-02 0.191E-02 0.237E-02 0.330E-02 0.463E-02 0.752E-02 0.101E-01


 Contracted 2-electron integrals neglected if value below      1.0D-16
 AO integral compression algorithm  1   Integral accuracy      1.0D-16

     196.084 MB (compressed) written to integral file ( 92.1%)

     Node minimum: 196.084 MB, node maximum: 196.084 MB


 NUMBER OF SORTED TWO-ELECTRON INTEGRALS:   23028291.     BUFFER LENGTH:  32768
 NUMBER OF SEGMENTS:   2  SEGMENT LENGTH:   15997996      RECORD LENGTH: 524288

 Memory used in sort:      16.56 MW

 SORT1 READ    26631627. AND WROTE    22813167. INTEGRALS IN     67 RECORDS. CPU TIME:     0.26 SEC, REAL TIME:     0.38 SEC
 SORT2 READ    22813167. AND WROTE    23028291. INTEGRALS IN    748 RECORDS. CPU TIME:     0.22 SEC, REAL TIME:     0.32 SEC

 FILE SIZES:   FILE 1:   175.8 MBYTE,  FILE 4:   281.1 MBYTE,   TOTAL:    456.8 MBYTE

 OPERATOR DM      FOR CENTER  0  COORDINATES:    0.000000    0.000000    0.000000


 **********************************************************************************************************************************
 DATASETS  * FILE   NREC   LENGTH (MB)   RECORD NAMES
              1      19      175.95       500      610      700      900      950      970     1000      129      960     1100   
                                          VAR    BASINP    GEOM    SYMINP    ZMAT    AOBASIS   BASIS     P2S    ABASIS      S 
                                         1400     1410     1200     1210     1080     1600     1650     1300     1700   
                                           T        V       H0       H01     AOSYM     SMH    MOLCAS    ERIS     OPER   

 PROGRAMS   *        TOTAL       INT
 CPU TIMES  *         1.62      1.57
 REAL TIME  *         2.12 SEC
 DISK USED  *       653.57 MB      
 GA USED    *         0.00 MB       (max)       0.00 MB       (current)
 **********************************************************************************************************************************

1PROGRAM * RHF-SCF (CLOSED SHELL)       Authors: W. Meyer, H.-J. Werner


 NUMBER OF ELECTRONS:       9+    9-    SPACE SYMMETRY=1    SPIN SYMMETRY: Singlet 
 CONVERGENCE THRESHOLDS:    1.00E-10 (Density)    1.00E-13 (Energy)
 MAX. NUMBER OF ITERATIONS:      200
 INTERPOLATION TYPE:            DIIS
 INTERPOLATION STEPS:              2 (START)      1 (STEP)
 LEVEL SHIFTS:                  0.00 (CLOSED)  0.00 (OPEN) 



 Orbital guess generated from atomic densities. Full valence occupancy:   14

 Molecular orbital dump at record        2100.2

 ITERATION    DDIFF          GRAD             ENERGY        2-EL.EN.            DIPOLE MOMENTS         DIIS
    1      0.000D+00      0.000D+00      -115.05285811    164.402978   -0.48100   -0.91126   -0.00000    0
    2      0.000D+00      0.474D-02      -115.08121220    161.942874   -0.29585   -0.50285   -0.00000    1
    3      0.783D-02      0.255D-02      -115.08833130    163.119429   -0.38764   -0.60164   -0.00000    2
    4      0.258D-02      0.498D-03      -115.08884203    162.963006   -0.38109   -0.59529   -0.00000    3
    5      0.687D-03      0.989D-04      -115.08887357    162.970151   -0.38488   -0.59044   -0.00000    4
    6      0.187D-03      0.188D-04      -115.08887498    162.968736   -0.38533   -0.59041   -0.00000    5
    7      0.483D-04      0.405D-05      -115.08887504    162.967802   -0.38554   -0.59019   -0.00000    6
    8      0.932D-05      0.123D-05      -115.08887504    162.968281   -0.38557   -0.59016   -0.00000    7
    9      0.242D-05      0.332D-06      -115.08887504    162.968174   -0.38559   -0.59015   -0.00000    6
   10      0.797D-06      0.615D-07      -115.08887504    162.968185   -0.38559   -0.59015   -0.00000    6
   11      0.163D-06      0.157D-07      -115.08887504    162.968189   -0.38559   -0.59015   -0.00000    6
   12      0.312D-07      0.663D-08      -115.08887504    162.968187   -0.38559   -0.59015   -0.00000    7
   13      0.117D-07      0.182D-08      -115.08887504    162.968187   -0.38559   -0.59015   -0.00000    7
   14      0.373D-08      0.367D-09      -115.08887504    162.968187   -0.38559   -0.59015   -0.00000    7
   15      0.881D-09      0.949D-10      -115.08887504    162.968187   -0.38559   -0.59015   -0.00000    7
   16      0.190D-09      0.241D-10      -115.08887504    162.968187   -0.38559   -0.59015   -0.00000    7
   17      0.548D-10      0.793D-11      -115.08887504    162.968187   -0.38559   -0.59015   -0.00000    7
   18      0.160D-10      0.168D-11      -115.08887504    162.968187   -0.38559   -0.59015   -0.00000    7
   19      0.323D-11      0.532D-12      -115.08887504    162.968187   -0.38559   -0.59015   -0.00000    7
   20      0.125D-11      0.136D-12      -115.08887504    162.968187   -0.38559   -0.59015   -0.00000    7
   21      0.386D-12      0.536D-13      -115.08887504    162.968187   -0.38559   -0.59015   -0.00000    7
   22      0.138D-12      0.304D-13      -115.08887504    162.968187   -0.38559   -0.59015   -0.00000    0

 Final occupancy:   9

 !RHF STATE 1.1 Energy               -115.088875044344
 Nuclear energy                        40.28174165
 One-electron energy                 -236.85471023
 Two-electron energy                   81.48409354
 Virial quotient                       -1.00137224
 !RHF STATE 1.1 Dipole moment          -0.38559102    -0.59014747    -0.00000249
 Dipole moment /Debye                  -0.98001042    -1.49990700    -0.00000632

 Orbital energies:

         1.1          2.1          3.1          4.1          5.1          6.1          7.1          8.1          9.1         10.1
    -20.553123   -11.269673    -1.352929    -0.922565    -0.686844    -0.617571    -0.589876    -0.501692    -0.448988     0.138210

        11.1
      0.178260


 **********************************************************************************************************************************
 DATASETS  * FILE   NREC   LENGTH (MB)   RECORD NAMES
              1      19      175.95       500      610      700      900      950      970     1000      129      960     1100   
                                          VAR    BASINP    GEOM    SYMINP    ZMAT    AOBASIS   BASIS     P2S    ABASIS      S 
                                         1400     1410     1200     1210     1080     1600     1650     1300     1700   
                                           T        V       H0       H01     AOSYM     SMH    MOLCAS    ERIS     OPER   

              2       3        0.63       700     1000     2100   
                                         GEOM     BASIS     RHF  

 PROGRAMS   *        TOTAL       RHF       INT
 CPU TIMES  *         5.26      3.64      1.57
 REAL TIME  *         6.27 SEC
 DISK USED  *       653.57 MB      
 GA USED    *         0.00 MB       (max)       0.00 MB       (current)
 **********************************************************************************************************************************


1PROGRAM * CCSD (Closed-shell coupled cluster)     Authors: C. Hampel, H.-J. Werner, 1991, M. Deegan, P.J. Knowles, 1992


 Convergence thresholds:  THRVAR = 1.00D-08  THRDEN = 1.00D-12

 CCSD(T)     terms to be evaluated (factor= 1.000)


 Number of core orbitals:           2 (   2 )
 Number of closed-shell orbitals:   7 (   7 )
 Number of external orbitals:     107 ( 107 )

 Molecular orbitals read from record     2100.2  Type=RHF/CANONICAL (state 1.1)

 Number of N-1 electron functions:               7
 Number of N-2 electron functions:              28
 Number of singly external CSFs:               749
 Number of doubly external CSFs:            280875
 Total number of CSFs:                      281625

 Length of J-op  integral file:               0.00 MB
 Length of K-op  integral file:               0.96 MB
 Length of 3-ext integral record:             0.00 MB

 Memory could be reduced to 12.77 Mwords without degradation in triples

 Integral transformation finished. Total CPU:   0.60 sec, npass=  1  Memory used:   7.23 MW

 Reference energy:                   -115.08887504

 MP2 singlet pair energy:              -0.28116846
 MP2 triplet pair energy:              -0.14738006
 MP2 correlation energy:               -0.42854852
 MP2 total energy:                   -115.51742357

 SCS-MP2 correlation energy:           -0.42910531   (PS=  1.200000  PT=  0.333333)
 SCS-MP2 total energy:               -115.51798035

 ITER.      SQ.NORM     CORR.ENERGY   TOTAL ENERGY   ENERGY CHANGE        DEN1      VAR(S)    VAR(P)  DIIS     TIME
   1      1.11819272    -0.44580243  -115.53467747    -0.01725390    -0.00687359  0.12D-02  0.18D-02  1  1     1.24
   2      1.12609893    -0.44699001  -115.53586505    -0.00118758    -0.00947056  0.16D-04  0.22D-03  2  2     1.92
   3      1.12870723    -0.44706757  -115.53594262    -0.00007757    -0.00179339  0.76D-05  0.10D-04  3  3     2.61
   4      1.12935205    -0.44706928  -115.53594432    -0.00000170    -0.00033485  0.36D-06  0.85D-06  4  4     3.31
   5      1.12945847    -0.44707111  -115.53594616    -0.00000184    -0.00004022  0.11D-06  0.66D-07  5  5     4.00
   6      1.12948381    -0.44706893  -115.53594398     0.00000218    -0.00000753  0.19D-07  0.51D-08  6  6     4.69
   7      1.12948749    -0.44706884  -115.53594389     0.00000009    -0.00000027  0.27D-08  0.92D-09  6  2     5.39
   8      1.12948888    -0.44706879  -115.53594384     0.00000005     0.00000002  0.43D-09  0.11D-09  6  1     6.08
   9      1.12948963    -0.44706874  -115.53594378     0.00000005    -0.00000003  0.28D-10  0.18D-10  6  3     6.78
  10      1.12948971    -0.44706875  -115.53594380    -0.00000002     0.00000007  0.26D-11  0.19D-11  6  4     7.46
  11      1.12948957    -0.44706876  -115.53594381    -0.00000001     0.00000011  0.24D-12  0.12D-12  6  6     8.15
  12      1.12948956    -0.44706876  -115.53594381    -0.00000000     0.00000001  0.28D-13  0.11D-13  6  5     8.86
  13      1.12948956    -0.44706876  -115.53594381    -0.00000000    -0.00000000  0.58D-14  0.18D-14  6  2     9.55
  14      1.12948956    -0.44706876  -115.53594381     0.00000000    -0.00000000  0.44D-15  0.14D-15  6  1    10.24
  15      1.12948956    -0.44706876  -115.53594381    -0.00000000    -0.00000000  0.65D-16  0.29D-16  6  3    10.92
  16      1.12948956    -0.44706876  -115.53594381     0.00000000     0.00000000  0.19D-16  0.35D-17  6  4    11.61
  17      1.12948956    -0.44706876  -115.53594381    -0.00000000     0.00000000  0.13D-17  0.76D-18  6  5    12.30
  18      1.12948956    -0.44706876  -115.53594381    -0.00000000     0.00000000  0.99D-19  0.48D-19  6  6    12.98
  19      1.12948956    -0.44706876  -115.53594381     0.00000000    -0.00000000  0.20D-19  0.10D-19  6  2    13.67
  20      1.12948956    -0.44706876  -115.53594381     0.00000000    -0.00000000  0.14D-20  0.79D-21  6  1    14.37

 Norm of t1 vector:      0.04480272      S-energy:    -0.00000000      T1 diagnostic:  0.00846692
                                                                       D1 diagnostic:  0.01726967


 Total CPU time for triples:      7.27 sec


 RESULTS
 =======

  Reference energy                   -115.088875044344
  CCSD singlet pair energy             -0.313304200189
  CCSD triplet pair energy             -0.133764564039
  CCSD correlation energy              -0.447068764228

  Triples (T) contribution             -0.014816252964
  Total correlation energy             -0.461885017192

  CCSD total energy                  -115.535943808573
  CCSD[T] energy                     -115.551227808702
  CCSD-T energy                      -115.550493461815
 !CCSD(T) total energy               -115.550760061536

 Timing summary (sec):

 STEP                 CPU(USER)    SYS     CPU(TOT)    WALL
 Transformation          0.61      0.07      0.68      0.68
 CCSD iterations        13.76      0.69     14.45     14.49
 Triples                 7.27      0.14      7.41      7.42

 Program statistics:

 Available memory in ccsd:               999999704
 Min. memory needed in ccsd:                915605
 Max. memory used in ccsd:                 1141922
 Max. memory used in cckext:                874802 (20 integral passes)



 **********************************************************************************************************************************
 DATASETS  * FILE   NREC   LENGTH (MB)   RECORD NAMES
              1      20      215.35       500      610      700      900      950      970     1000      129      960     1100   
                                          VAR    BASINP    GEOM    SYMINP    ZMAT    AOBASIS   BASIS     P2S    ABASIS      S 
                                         1400     1410     1200     1210     1080     1600     1650     1300     1700     1380   
                                           T        V       H0       H01     AOSYM     SMH    MOLCAS    ERIS     OPER     JKOP   

              2       3        0.63       700     1000     2100   
                                         GEOM     BASIS     RHF  

 PROGRAMS   *        TOTAL   CCSD(T)       RHF       INT
 CPU TIMES  *        26.92     21.66      3.64      1.57
 REAL TIME  *        28.89 SEC
 DISK USED  *       653.57 MB      
 GA USED    *         0.00 MB       (max)       0.00 MB       (current)
 **********************************************************************************************************************************

        CCSD(T)         RHF-SCF 
   -115.55076006   -115.08887504
 **********************************************************************************************************************************
 Variable memory released
