
    -----------------------------------------------------------------------
          Psi4: An Open-Source Ab Initio Electronic Structure Package
                               Psi4 1.4a2.dev629 

                         Git: Rev {master} 2938fc2 dirty


    D. G. A. Smith, L. A. Burns, A. C. Simmonett, R. M. Parrish,
    M. C. Schieber, R. Galvelis, P. Kraus, H. Kruse, R. Di Remigio,
    A. Alenaizan, A. M. James, S. Lehtola, J. P. Misiewicz, M. Scheurer,
    R. A. Shaw, J. B. Schriber, Y. Xie, Z. L. Glick, D. A. Sirianni,
    J. S. O'Brien, J. M. Waldrop, A. Kumar, E. G. Hohenstein,
    B. P. Pritchard, B. R. Brooks, H. F. Schaefer III, A. Yu. Sokolov,
    K. Patkowski, A. E. DePrince III, U. Bozkaya, R. A. King,
    F. A. Evangelista, J. M. Turney, T. D. Crawford, C. D. Sherrill,
    J. Chem. Phys. 152(18) 184108 (2020). https://doi.org/10.1063/5.0006002

                            Additional Code Authors
    E. T. Seidl, C. L. Janssen, E. F. Valeev, M. L. Leininger,
    J. F. Gonthier, R. M. Richard, H. R. McAlexander, M. Saitow, X. Wang,
    P. Verma, and M. H. Lechner

             Previous Authors, Complete List of Code Contributors,
                       and Citations for Specific Modules
    https://github.com/psi4/psi4/blob/master/codemeta.json
    https://github.com/psi4/psi4/graphs/contributors
    http://psicode.org/psi4manual/master/introduction.html#citing-psifour

    -----------------------------------------------------------------------


    Psi4 started on: Wednesday, 21 September 2022 04:08PM

    Process ID: 111341
    Host:       n073
    PSIDATADIR: /opt/psi/4/master/share/psi4
    Memory:     500.0 MiB
    Threads:    1
    
  ==> Input File <==

--------------------------------------------------------------------------
# o-Benzyne preliminary computations

memory 14 gb

molecule {
  0 1
  units bohr
 C   -1.3750677901   -0.0242768732   -0.0027222096
 O    1.3060117461    0.1207005823    0.0009029852
 H   -2.0778727782    1.9096084920    0.0008471308
 H   -2.1088927335   -0.9789177486    1.6825195101
 H   -2.1090767022   -0.9797552826   -1.6813589324
 H    1.9411740978   -1.5774912899   -0.0001968941
  no_reorient
  no_com
}

set {
  basis 6-31g*
  reference rhf
  e_convergence 10 
  d_convergence 10
  r_convergence 8
  maxiter 300
  dft_spherical_points 1202
  dft_radial_points 99
  freeze_core True
}


#gradient('ccsd(t)')
gradient('b3lyp')
--------------------------------------------------------------------------

  Memory set to  13.039 GiB by Python driver.

Scratch directory: /tmp/
gradient() will perform analytic gradient computation.

*** tstart() called on n073
*** at Wed Sep 21 16:08:07 2022

   => Loading Basis Set <=

    Name: 6-31G*
    Role: ORBITAL
    Keyword: BASIS
    atoms 1   entry C          line   111 file /opt/psi/4/master/share/psi4/basis/6-31gs.gbs 
    atoms 2   entry O          line   145 file /opt/psi/4/master/share/psi4/basis/6-31gs.gbs 
    atoms 3-6 entry H          line    44 file /opt/psi/4/master/share/psi4/basis/6-31gs.gbs 


         ---------------------------------------------------------
                                   SCF
               by Justin Turney, Rob Parrish, Andy Simmonett
                          and Daniel G. A. Smith
                              RKS Reference
                        1 Threads,  13351 MiB Core
         ---------------------------------------------------------

  ==> Geometry <==

    Molecular point group: c1
    Full point group: C1

    Geometry (in Bohr), charge = 0, multiplicity = 1:

       Center              X                  Y                   Z               Mass       
    ------------   -----------------  -----------------  -----------------  -----------------
         C           -1.375067790100    -0.024276873200    -0.002722209600    12.000000000000
         O            1.306011746100     0.120700582300     0.000902985200    15.994914619570
         H           -2.077872778200     1.909608492000     0.000847130800     1.007825032230
         H           -2.108892733500    -0.978917748600     1.682519510100     1.007825032230
         H           -2.109076702200    -0.979755282600    -1.681358932400     1.007825032230
         H            1.941174097800    -1.577491289900    -0.000196894100     1.007825032230

  Running in c1 symmetry.

  Rotational constants: A =      4.28207  B =      0.82705  C =      0.79796 [cm^-1]
  Rotational constants: A = 128373.16524  B =  24794.43309  C =  23922.10169 [MHz]
  Nuclear repulsion =   40.307806298802205

  Charge       = 0
  Multiplicity = 1
  Electrons    = 18
  Nalpha       = 9
  Nbeta        = 9

  ==> Algorithm <==

  SCF Algorithm Type is DF.
  DIIS enabled.
  MOM disabled.
  Fractional occupation disabled.
  Guess Type is SAD.
  Energy threshold   = 1.00e-10
  Density threshold  = 1.00e-10
  Integral threshold = 0.00e+00

  ==> Primary Basis <==

  Basis Set: 6-31G*
    Blend: 6-31G*
    Number of shells: 20
    Number of basis function: 38
    Number of Cartesian functions: 38
    Spherical Harmonics?: false
    Max angular momentum: 2

  ==> DFT Potential <==

   => Composite Functional: B3LYP <= 

    B3LYP Hyb-GGA Exchange-Correlation Functional

    P. J. Stephens, F. J. Devlin, C. F. Chabalowski, and M. J. Frisch, J. Phys. Chem. 98, 11623 (1994)

    Deriv               =              1
    GGA                 =           TRUE
    Meta                =          FALSE

    Exchange Hybrid     =           TRUE
    MP2 Hybrid          =          FALSE

   => Exchange Functionals <=

    0.0800   Slater exchange
    0.7200         Becke 88

   => Exact (HF) Exchange <=

    0.2000               HF 

   => Correlation Functionals <=

    0.1900   Vosko, Wilk & Nusair (VWN5_RPA)
    0.8100   Lee, Yang & Parr

   => Molecular Quadrature <=

    Radial Scheme          =       TREUTLER
    Pruning Scheme         =           NONE
    Nuclear Scheme         =       TREUTLER

    BS radius alpha        =              1
    Pruning alpha          =              1
    Radial Points          =             99
    Spherical Points       =           1202
    Total Points           =         678836
    Total Blocks           =           4713
    Max Points             =            256
    Max Functions          =             38
    Weights Tolerance      =       1.00E-15

   => Loading Basis Set <=

    Name: (6-31G* AUX)
    Role: JKFIT
    Keyword: DF_BASIS_SCF
    atoms 1   entry C          line   121 file /opt/psi/4/master/share/psi4/basis/cc-pvdz-jkfit.gbs 
    atoms 2   entry O          line   221 file /opt/psi/4/master/share/psi4/basis/cc-pvdz-jkfit.gbs 
    atoms 3-6 entry H          line    51 file /opt/psi/4/master/share/psi4/basis/cc-pvdz-jkfit.gbs 

  ==> Integral Setup <==

  DFHelper Memory: AOs need 0.004 GiB; user supplied 9.070 GiB. Using in-core AOs.

  ==> MemDFJK: Density-Fitted J/K Matrices <==

    J tasked:                   Yes
    K tasked:                   Yes
    wK tasked:                   No
    OpenMP threads:               1
    Memory [MiB]:              9287
    Algorithm:                 Core
    Schwarz Cutoff:           1E-12
    Mask sparsity (%):       0.0000
    Fitting Condition:        1E-10

   => Auxiliary Basis Set <=

  Basis Set: (6-31G* AUX)
    Blend: CC-PVDZ-JKFIT
    Number of shells: 84
    Number of basis function: 262
    Number of Cartesian functions: 262
    Spherical Harmonics?: false
    Max angular momentum: 3

  Cached 100.0% of DFT collocation blocks in 0.709 [GiB].

  Minimum eigenvalue in the overlap matrix is 9.7431788763E-03.
  Reciprocal condition number of the overlap matrix is 1.6240546601E-03.
    Using symmetric orthogonalization.

  ==> Pre-Iterations <==

  SCF Guess: Superposition of Atomic Densities via on-the-fly atomic UHF (no occupation information).

   -------------------------
    Irrep   Nso     Nmo    
   -------------------------
     A         38      38 
   -------------------------
    Total      38      38
   -------------------------

  ==> Iterations <==

                           Total Energy        Delta E     RMS |[F,P]|

   @DF-RKS iter SAD:  -115.27626838872456   -1.15276e+02   0.00000e+00 
   @DF-RKS iter   1:  -115.54947471910380   -2.73206e-01   1.60898e-02 DIIS
   @DF-RKS iter   2:  -115.45058839830793    9.88863e-02   2.10647e-02 DIIS
   @DF-RKS iter   3:  -115.71155327193917   -2.60965e-01   2.14116e-03 DIIS
   @DF-RKS iter   4:  -115.71400914803866   -2.45588e-03   6.73085e-04 DIIS
   @DF-RKS iter   5:  -115.71427581665407   -2.66669e-04   8.12153e-05 DIIS
   @DF-RKS iter   6:  -115.71427969832448   -3.88167e-06   8.53665e-06 DIIS
   @DF-RKS iter   7:  -115.71427974453866   -4.62142e-08   7.68771e-07 DIIS
   @DF-RKS iter   8:  -115.71427974494750   -4.08846e-10   1.06880e-07 DIIS
   @DF-RKS iter   9:  -115.71427974495542   -7.91545e-12   2.04683e-08 DIIS
   @DF-RKS iter  10:  -115.71427974495565   -2.27374e-13   1.33836e-09 DIIS
   @DF-RKS iter  11:  -115.71427974495575   -9.94760e-14   1.18261e-10 DIIS
   @DF-RKS iter  12:  -115.71427974495570    4.26326e-14   2.21889e-11 DIIS
  Energy and wave function converged.


  ==> Post-Iterations <==

    Orbital Energies [Eh]
    ---------------------

    Doubly Occupied:                                                      

       1A    -19.138432     2A    -10.223062     3A     -1.011281  
       4A     -0.680168     5A     -0.502602     6A     -0.435613  
       7A     -0.419720     8A     -0.330661     9A     -0.264416  

    Virtual:                                                              

      10A      0.077237    11A      0.132556    12A      0.168427  
      13A      0.176578    14A      0.205410    15A      0.533671  
      16A      0.566219    17A      0.575500    18A      0.791883  
      19A      0.853641    20A      0.872699    21A      0.906858  
      22A      0.955948    23A      0.976896    24A      1.025403  
      25A      1.115547    26A      1.462205    27A      1.501966  
      28A      1.585753    29A      1.744450    30A      2.042064  
      31A      2.115487    32A      2.137295    33A      2.350914  
      34A      2.401488    35A      2.457291    36A      2.793972  
      37A      3.699475    38A      4.216948  

    Final Occupation by Irrep:
              A 
    DOCC [     9 ]

  @DF-RKS Final Energy:  -115.71427974495570

   => Energetics <=

    Nuclear Repulsion Energy =             40.3078062988022054
    One-Electron Energy =                -237.0143878233429007
    Two-Electron Energy =                  93.5447166442079379
    DFT Exchange-Correlation Energy =     -12.5524148646229428
    Empirical Dispersion Energy =           0.0000000000000000
    VV10 Nonlocal Energy =                  0.0000000000000000
    Total Energy =                       -115.7142797449557037

Computation Completed


Properties will be evaluated at   0.000000,   0.000000,   0.000000 [a0]

Properties computed using the SCF density matrix

  Nuclear Dipole Moment: [e a0]
     X:    -2.1570      Y:    -0.8066      Z:    -0.0073

  Electronic Dipole Moment: [e a0]
     X:     1.8243      Y:     0.2226      Z:     0.0056

  Dipole Moment: [e a0]
     X:    -0.3326      Y:    -0.5841      Z:    -0.0017     Total:     0.6721

  Dipole Moment: [D]
     X:    -0.8455      Y:    -1.4845      Z:    -0.0044     Total:     1.7084


*** tstop() called on n073 at Wed Sep 21 16:08:24 2022
Module time:
	user time   =      16.76 seconds =       0.28 minutes
	system time =       0.30 seconds =       0.01 minutes
	total time  =         17 seconds =       0.28 minutes
Total time:
	user time   =      16.76 seconds =       0.28 minutes
	system time =       0.30 seconds =       0.01 minutes
	total time  =         17 seconds =       0.28 minutes

*** tstart() called on n073
*** at Wed Sep 21 16:08:24 2022


         ------------------------------------------------------------
                                   SCF GRAD                          
                          Rob Parrish, Justin Turney,                
                       Andy Simmonett, and Alex Sokolov              
         ------------------------------------------------------------

  ==> Geometry <==

    Molecular point group: c1
    Full point group: C1

    Geometry (in Bohr), charge = 0, multiplicity = 1:

       Center              X                  Y                   Z               Mass       
    ------------   -----------------  -----------------  -----------------  -----------------
         C           -1.375067790100    -0.024276873200    -0.002722209600    12.000000000000
         O            1.306011746100     0.120700582300     0.000902985200    15.994914619570
         H           -2.077872778200     1.909608492000     0.000847130800     1.007825032230
         H           -2.108892733500    -0.978917748600     1.682519510100     1.007825032230
         H           -2.109076702200    -0.979755282600    -1.681358932400     1.007825032230
         H            1.941174097800    -1.577491289900    -0.000196894100     1.007825032230

  Nuclear repulsion =   40.307806298802205

  ==> Basis Set <==

  Basis Set: 6-31G*
    Blend: 6-31G*
    Number of shells: 20
    Number of basis function: 38
    Number of Cartesian functions: 38
    Spherical Harmonics?: false
    Max angular momentum: 2

  ==> DFJKGrad: Density-Fitted SCF Gradients <==

    Gradient:                    1
    J tasked:                  Yes
    K tasked:                  Yes
    wK tasked:                  No
    OpenMP threads:              1
    Integrals threads:           1
    Memory [MiB]:            10013
    Schwarz Cutoff:          0E+00
    Fitting Condition:       1E-10

   => Auxiliary Basis Set <=

  Basis Set: (6-31G* AUX)
    Blend: CC-PVDZ-JKFIT
    Number of shells: 84
    Number of basis function: 262
    Number of Cartesian functions: 262
    Spherical Harmonics?: false
    Max angular momentum: 3

  ==> DFT Potential <==

   => Composite Functional: B3LYP <= 

    B3LYP Hyb-GGA Exchange-Correlation Functional

    P. J. Stephens, F. J. Devlin, C. F. Chabalowski, and M. J. Frisch, J. Phys. Chem. 98, 11623 (1994)

    Deriv               =              1
    GGA                 =           TRUE
    Meta                =          FALSE

    Exchange Hybrid     =           TRUE
    MP2 Hybrid          =          FALSE

   => Exchange Functionals <=

    0.0800   Slater exchange
    0.7200         Becke 88

   => Exact (HF) Exchange <=

    0.2000               HF 

   => Correlation Functionals <=

    0.1900   Vosko, Wilk & Nusair (VWN5_RPA)
    0.8100   Lee, Yang & Parr

   => Molecular Quadrature <=

    Radial Scheme          =       TREUTLER
    Pruning Scheme         =           NONE
    Nuclear Scheme         =       TREUTLER

    BS radius alpha        =              1
    Pruning alpha          =              1
    Radial Points          =             99
    Spherical Points       =           1202
    Total Points           =         678836
    Total Blocks           =           4713
    Max Points             =            256
    Max Functions          =             38
    Weights Tolerance      =       1.00E-15


  -Total Gradient:
     Atom            X                  Y                   Z
    ------   -----------------  -----------------  -----------------
       1       -0.005168364224    -0.000462067723    -0.001855408589
       2        0.003761104692    -0.008760153278     0.000227301336
       3        0.000799274898    -0.002844841110     0.000209403928
       4        0.001927920311     0.001564105757    -0.002246860123
       5        0.002277445854     0.002106828729     0.003662372857
       6       -0.003597466649     0.008396192611     0.000003190452


*** tstop() called on n073 at Wed Sep 21 16:08:27 2022
Module time:
	user time   =       2.80 seconds =       0.05 minutes
	system time =       0.01 seconds =       0.00 minutes
	total time  =          3 seconds =       0.05 minutes
Total time:
	user time   =      19.56 seconds =       0.33 minutes
	system time =       0.31 seconds =       0.01 minutes
	total time  =         20 seconds =       0.33 minutes

    Psi4 stopped on: Wednesday, 21 September 2022 04:08PM
    Psi4 wall time for execution: 0:00:19.90

*** Psi4 exiting successfully. Buy a developer a beer!
