 Entering Gaussian System, Link 0=g03
 trademark of Gaussian, Inc.
 
 -----------------------------
 #p XXXX/GEN Freq
 -----------------------------

                          Input orientation:                          
 ---------------------------------------------------------------------
 Center     Atomic     Atomic              Coordinates (Angstroms)
 Number     Number      Type              X           Y           Z
 ---------------------------------------------------------------------
    1          1             0        0.000000   -0.750216    0.540092
    2          8             0        0.000000    0.000000   -0.068061
    3          1             0        0.000000    0.750216    0.540092
 ---------------------------------------------------------------------
                        Standard orientation:                         
 ---------------------------------------------------------------------
 Center     Atomic     Atomic              Coordinates (Angstroms)
 Number     Number      Type              X           Y           Z
 ---------------------------------------------------------------------
    1          1             0        0.000000   -0.750216    0.540092
    2          8             0        0.000000    0.000000   -0.068061
    3          1             0        0.000000    0.750216    0.540092
 ---------------------------------------------------------------------
                     1                      2                      3  
                     A1                     A1                     B2 
 Frequencies --  1691.6200              3824.9400              3931.3100
 Red. masses --     0.0000                 0.0000                 0.0000
 Frc consts  --     0.0000                 0.0000                 0.0000
 IR Inten    --    54.0430                 3.2533                19.5667
 Atom AN      X      Y      Z        X      Y      Z        X      Y      Z      
   1   1    -0.00   0.42   0.54     0.00   0.57  -0.40     0.00   0.53  -0.43    
   2   8    -0.00  -0.00  -0.27    -0.00  -0.00   0.20     0.00  -0.27  -0.00    
   3   1     0.00  -0.42   0.54    -0.00  -0.57  -0.40    -0.00   0.53   0.43    
