
    -----------------------------------------------------------------------
          Psi4: An Open-Source Ab Initio Electronic Structure Package
                               Psi4 1.4a2.dev629 

                         Git: Rev {master} 2938fc2 dirty


    D. G. A. Smith, L. A. Burns, A. C. Simmonett, R. M. Parrish,
    M. C. Schieber, R. Galvelis, P. Kraus, H. Kruse, R. Di Remigio,
    A. Alenaizan, A. M. James, S. Lehtola, J. P. Misiewicz, M. Scheurer,
    R. A. Shaw, J. B. Schriber, Y. Xie, Z. L. Glick, D. A. Sirianni,
    J. S. O'Brien, J. M. Waldrop, A. Kumar, E. G. Hohenstein,
    B. P. Pritchard, B. R. Brooks, H. F. Schaefer III, A. Yu. Sokolov,
    K. Patkowski, A. E. DePrince III, U. Bozkaya, R. A. King,
    F. A. Evangelista, J. M. Turney, T. D. Crawford, C. D. Sherrill,
    J. Chem. Phys. 152(18) 184108 (2020). https://doi.org/10.1063/5.0006002

                            Additional Code Authors
    E. T. Seidl, C. L. Janssen, E. F. Valeev, M. L. Leininger,
    J. F. Gonthier, R. M. Richard, H. R. McAlexander, M. Saitow, X. Wang,
    P. Verma, and M. H. Lechner

             Previous Authors, Complete List of Code Contributors,
                       and Citations for Specific Modules
    https://github.com/psi4/psi4/blob/master/codemeta.json
    https://github.com/psi4/psi4/graphs/contributors
    http://psicode.org/psi4manual/master/introduction.html#citing-psifour

    -----------------------------------------------------------------------


    Psi4 started on: Saturday, 22 October 2022 01:52AM

    Process ID: 27414
    Host:       n082
    PSIDATADIR: /opt/psi/4/master/share/psi4
    Memory:     500.0 MiB
    Threads:    4
    
  ==> Input File <==

--------------------------------------------------------------------------
# o-Benzyne preliminary computations

memory 14 gb

molecule {
  0 1
  units bohr
 H    0.0000000000   -1.4349429935    0.9968712246
 O    0.0000000000    0.0049637879   -0.1234914625
 H    0.0000000000    1.4299792057    0.9929638579
}

set {
  basis 6-31g*
  reference rhf
  e_convergence 10 
  d_convergence 10
  r_convergence 8
  maxiter 300
  freeze_core True
}

e, wfn = energy('b3lyp', return_wfn = True)
psi4.print_out('Giraffe The Energy is %.12f \n'%(e))
--------------------------------------------------------------------------

  Memory set to  13.039 GiB by Python driver.

Scratch directory: /tmp/794765.10.gen6.q/

*** tstart() called on n082
*** at Sat Oct 22 01:52:07 2022

   => Loading Basis Set <=

    Name: 6-31G*
    Role: ORBITAL
    Keyword: BASIS
    atoms 1, 3 entry H          line    44 file /opt/psi/4/master/share/psi4/basis/6-31gs.gbs 
    atoms 2    entry O          line   145 file /opt/psi/4/master/share/psi4/basis/6-31gs.gbs 


         ---------------------------------------------------------
                                   SCF
               by Justin Turney, Rob Parrish, Andy Simmonett
                          and Daniel G. A. Smith
                              RKS Reference
                        4 Threads,  13351 MiB Core
         ---------------------------------------------------------

  ==> Geometry <==

    Molecular point group: cs
    Full point group: Cs

    Geometry (in Bohr), charge = 0, multiplicity = 1:

       Center              X                  Y                   Z               Mass       
    ------------   -----------------  -----------------  -----------------  -----------------
         H            1.439073498865    -0.995196085161     0.000000000000     1.007825032230
         O           -0.000833282535     0.125166601939     0.000000000000    15.994914619570
         H           -1.425848700335    -0.991288718461     0.000000000000     1.007825032230

  Running in cs symmetry.

  Rotational constants: A =     26.88839  B =     14.55391  C =      9.44280 [cm^-1]
  Rotational constants: A = 806093.76746  B = 436315.19446  C = 283087.91202 [MHz]
  Nuclear repulsion =    9.153168123508166

  Charge       = 0
  Multiplicity = 1
  Electrons    = 10
  Nalpha       = 5
  Nbeta        = 5

  ==> Algorithm <==

  SCF Algorithm Type is DF.
  DIIS enabled.
  MOM disabled.
  Fractional occupation disabled.
  Guess Type is SAD.
  Energy threshold   = 1.00e-10
  Density threshold  = 1.00e-10
  Integral threshold = 0.00e+00

  ==> Primary Basis <==

  Basis Set: 6-31G*
    Blend: 6-31G*
    Number of shells: 10
    Number of basis function: 19
    Number of Cartesian functions: 19
    Spherical Harmonics?: false
    Max angular momentum: 2

  ==> DFT Potential <==

   => Composite Functional: B3LYP <= 

    B3LYP Hyb-GGA Exchange-Correlation Functional

    P. J. Stephens, F. J. Devlin, C. F. Chabalowski, and M. J. Frisch, J. Phys. Chem. 98, 11623 (1994)

    Deriv               =              1
    GGA                 =           TRUE
    Meta                =          FALSE

    Exchange Hybrid     =           TRUE
    MP2 Hybrid          =          FALSE

   => Exchange Functionals <=

    0.0800   Slater exchange
    0.7200         Becke 88

   => Exact (HF) Exchange <=

    0.2000               HF 

   => Correlation Functionals <=

    0.1900   Vosko, Wilk & Nusair (VWN5_RPA)
    0.8100   Lee, Yang & Parr

   => Molecular Quadrature <=

    Radial Scheme          =       TREUTLER
    Pruning Scheme         =           NONE
    Nuclear Scheme         =       TREUTLER

    BS radius alpha        =              1
    Pruning alpha          =              1
    Radial Points          =             75
    Spherical Points       =            302
    Total Points           =          65918
    Total Blocks           =            559
    Max Points             =            253
    Max Functions          =             19
    Weights Tolerance      =       1.00E-15

   => Loading Basis Set <=

    Name: (6-31G* AUX)
    Role: JKFIT
    Keyword: DF_BASIS_SCF
    atoms 1, 3 entry H          line    51 file /opt/psi/4/master/share/psi4/basis/cc-pvdz-jkfit.gbs 
    atoms 2    entry O          line   221 file /opt/psi/4/master/share/psi4/basis/cc-pvdz-jkfit.gbs 

  ==> Integral Setup <==

  DFHelper Memory: AOs need 0.001 GiB; user supplied 9.743 GiB. Using in-core AOs.

  ==> MemDFJK: Density-Fitted J/K Matrices <==

    J tasked:                   Yes
    K tasked:                   Yes
    wK tasked:                   No
    OpenMP threads:               4
    Memory [MiB]:              9976
    Algorithm:                 Core
    Schwarz Cutoff:           1E-12
    Mask sparsity (%):       0.0000
    Fitting Condition:        1E-10

   => Auxiliary Basis Set <=

  Basis Set: (6-31G* AUX)
    Blend: CC-PVDZ-JKFIT
    Number of shells: 42
    Number of basis function: 131
    Number of Cartesian functions: 131
    Spherical Harmonics?: false
    Max angular momentum: 3

  Cached 100.0% of DFT collocation blocks in 0.036 [GiB].

  Minimum eigenvalue in the overlap matrix is 2.2446477884E-02.
  Reciprocal condition number of the overlap matrix is 4.8092335648E-03.
    Using symmetric orthogonalization.

  ==> Pre-Iterations <==

  SCF Guess: Superposition of Atomic Densities via on-the-fly atomic UHF (no occupation information).

   -------------------------
    Irrep   Nso     Nmo    
   -------------------------
     A'        15      15 
     A"         4       4 
   -------------------------
    Total      19      19
   -------------------------

  ==> Iterations <==

                           Total Energy        Delta E     RMS |[F,P]|

   @DF-RKS iter SAD:   -76.11242142729691   -7.61124e+01   0.00000e+00 
   @DF-RKS iter   1:   -76.26246183868058   -1.50040e-01   4.06885e-02 DIIS
   @DF-RKS iter   2:   -76.11131988823601    1.51142e-01   5.76830e-02 DIIS
   @DF-RKS iter   3:   -76.40879088395600   -2.97471e-01   6.28839e-04 DIIS
   @DF-RKS iter   4:   -76.40883588949110   -4.50055e-05   1.68638e-04 DIIS
   @DF-RKS iter   5:   -76.40883820817271   -2.31868e-06   3.12201e-05 DIIS
   @DF-RKS iter   6:   -76.40883829469757   -8.65249e-08   1.00423e-06 DIIS
   @DF-RKS iter   7:   -76.40883829480413   -1.06553e-10   7.06098e-08 DIIS
   @DF-RKS iter   8:   -76.40883829480477   -6.39488e-13   2.13543e-08 DIIS
   @DF-RKS iter   9:   -76.40883829480481   -4.26326e-14   2.40464e-09 DIIS
   @DF-RKS iter  10:   -76.40883829480474    7.10543e-14   1.10349e-10 DIIS
   @DF-RKS iter  11:   -76.40883829480480   -5.68434e-14   4.97728e-12 DIIS
  Energy and wave function converged.


  ==> Post-Iterations <==

    Orbital Energies [Eh]
    ---------------------

    Doubly Occupied:                                                      

       1Ap   -19.136755     2Ap    -1.000604     3Ap    -0.520435  
       4Ap    -0.371897     1App   -0.291570  

    Virtual:                                                              

       5Ap     0.064568     6Ap     0.150743     7Ap     0.776952  
       8Ap     0.866852     2App    0.890812     9Ap     0.895675  
      10Ap     1.067891    11Ap     1.193173    12Ap     1.728856  
       3App    1.744661     4App    1.779347    13Ap     2.289032  
      14Ap     2.589878    15Ap     3.556194  

    Final Occupation by Irrep:
             Ap   App 
    DOCC [     4,    1 ]

  @DF-RKS Final Energy:   -76.40883829480480

   => Energetics <=

    Nuclear Repulsion Energy =              9.1531681235081663
    One-Electron Energy =                -123.0538746824283436
    Two-Electron Energy =                  45.0523398253411358
    DFT Exchange-Correlation Energy =      -7.5604715612257491
    Empirical Dispersion Energy =           0.0000000000000000
    VV10 Nonlocal Energy =                  0.0000000000000000
    Total Energy =                        -76.4088382948047951

Computation Completed


Properties will be evaluated at   0.000000,   0.000000,   0.000000 [a0]

Properties computed using the SCF density matrix

  Nuclear Dipole Moment: [e a0]
     X:     0.0066      Y:    -0.9852      Z:     0.0000

  Electronic Dipole Moment: [e a0]
     X:    -0.0039      Y:     0.1640      Z:     0.0000

  Dipole Moment: [e a0]
     X:     0.0026      Y:    -0.8212      Z:     0.0000     Total:     0.8212

  Dipole Moment: [D]
     X:     0.0067      Y:    -2.0872      Z:     0.0000     Total:     2.0872


*** tstop() called on n082 at Sat Oct 22 01:52:08 2022
Module time:
	user time   =       3.32 seconds =       0.06 minutes
	system time =       0.04 seconds =       0.00 minutes
	total time  =          1 seconds =       0.02 minutes
Total time:
	user time   =       3.32 seconds =       0.06 minutes
	system time =       0.04 seconds =       0.00 minutes
	total time  =          1 seconds =       0.02 minutes
Giraffe The Energy is -76.408838294805 

    Psi4 stopped on: Saturday, 22 October 2022 01:52AM
    Psi4 wall time for execution: 0:00:00.89

*** Psi4 exiting successfully. Buy a developer a beer!
