
 Primary working directories    : /tmp/1231579.13.gen4.q
 Secondary working directories  : /tmp/1231579.13.gen4.q
 Wavefunction directory         : /home/vulcan/nlk36701/wfu/
 Main file repository           : /tmp/1231579.13.gen4.q/

 ARCHNAME  : Linux/x86_64
 FC        : /opt/intel/compilers_and_libraries_2016.1.150/linux/bin/intel64/ifort
 FCVERSION : 16.0.1
 BLASLIB   : -mkl
 id        : ccgc

 Nodes     nprocs
 n049         1
 ga_uses_ma=false, calling ma_init with nominal heap.
 GA-space will be limited to   8.0 MW (determined by -G option)

 Using customized tuning parameters: mindgm=10; mindgv=16; mindgc=4; mindgr=1; noblas=0; mincuda=1000; minvec=7
 default implementation of scratch files=df  

 ***,Optimization of min3
 memory,1000,m
 gthresh,energy=1.0d-12,orbital=1.0d-10,oneint=1.0d-16,twoint=1.0d-16,optgrad=1.0d-6,compress=1.0d-13
 geomtyp=xyz
 
  bohr
  geometry = {
  N    0.0004573810   -0.0036266164    0.1333491646
  H    0.8785457908   -1.5235192264   -0.6166606918
  H    0.8846900216    1.5294843439   -0.6184443802
  H   -1.7636932035   -0.0023385012   -0.6177473527
 }
 
 basis=cc-pvtz
 {rhf;maxit,200}
 {ccsd(t);maxit,200}

 Variables initialized (661), CPU time= 0.01 sec
 Commands  initialized (458), CPU time= 0.00 sec, 486 directives.
 Default parameters read. Elapsed time= 0.04 sec

 Checking input...
 Passed
1


                                         ***  PROGRAM SYSTEM MOLPRO  ***
                         Copyright, University College Cardiff Consultants Limited, 2008

                                    Version 2010.1 linked May 16 2016 07:17:05


 **********************************************************************************************************************************
 LABEL *   Optimization of min3                                                          
 Linux-4.4.3/n049(x86_64) 64 bit mpp version                                             DATE: 16-Apr-25          TIME: 10:09:37  
 **********************************************************************************************************************************

 SHA1:             9e8077add272b0f3cad6f7df79ec5211205f459d
 **********************************************************************************************************************************

 THRESHOLDS:

 ZERO    =  1.00D-12  ONEINT  =  1.00D-16  TWOINT  =  1.00D-16  PREFAC  =  1.00D-14  LOCALI  =  1.00D-09  EORDER  =  1.00D-04
 ENERGY  =  1.00D-12  ETEST   =  0.00D+00  EDENS   =  0.00D+00  THRDEDEF=  1.00D-06  GRADIENT=  1.00D-02  STEP    =  1.00D-03
 ORBITAL =  1.00D-10  CIVEC   =  1.00D-05  COEFF   =  1.00D-04  PRINTCI =  5.00D-02  PUNCHCI =  9.90D+01  OPTGRAD =  1.00D-06
 OPTENERG=  1.00D-06  OPTSTEP =  3.00D-04  THRGRAD =  1.00D-10  COMPRESS=  1.00D-13  VARMIN  =  1.00D-07  VARMAX  =  1.00D-03
 THRDOUB =  0.00D+00  THRDIV  =  1.00D-05  THRRED  =  1.00D-07  THRPSP  =  1.00D+00  THRDC   =  1.00D-10  THRCS   =  1.00D-10
 THRNRM  =  1.00D-08  THREQ   =  0.00D+00  THRDE   =  1.00D+00  THRREF  =  1.00D-05  SPARFAC =  1.00D+00  THRDLP  =  1.00D-07
 THRDIA  =  1.00D-10  THRDLS  =  1.00D-07  THRGPS  =  0.00D+00  THRKEX  =  0.00D+00  THRDIS  =  2.00D-01  THRVAR  =  1.00D-10
 THRLOC  =  1.00D-06  THRGAP  =  1.00D-06  THRLOCT = -1.00D+00  THRGAPT = -1.00D+00  THRORB  =  1.00D-06  THRMLTP =  0.00D+00
 THRCPQCI=  1.00D-10  KEXTA   =  0.00D+00  THRCOARS=  0.00D+00  SYMTOL  =  1.00D-06  GRADTOL =  1.00D-06  THROVL  =  1.00D-08
 THRORTH =  1.00D-08  GRID    =  1.00D-06  GRIDMAX =  1.00D-03  DTMAX   =  0.00D+00

 SETTING GEOMTYP        =    XYZ
 ZUNIT=BOHR
 

 Variable memory set to 1000000000 words,  buffer space   230000 words

 SETTING BASIS          =    CC-PVTZ


 Recomputing integrals since basis changed


 Using spherical harmonics

 Library entry N      S cc-pVTZ              selected for orbital group  1
 Library entry N      P cc-pVTZ              selected for orbital group  1
 Library entry N      D cc-pVTZ              selected for orbital group  1
 Library entry N      F cc-pVTZ              selected for orbital group  1
 Library entry H      S cc-pVTZ              selected for orbital group  2
 Library entry H      P cc-pVTZ              selected for orbital group  2
 Library entry H      D cc-pVTZ              selected for orbital group  2

1PROGRAM * SEWARD (Integral evaluation for generally contracted gaussian basis sets)     Author: Roland Lindh, 1990

 Geometry written to block  1 of record 700


 Point group  C1  



 ATOMIC COORDINATES

 NR  ATOM    CHARGE       X              Y              Z

   1  N       7.00    0.000457381   -0.003626616    0.133349165
   2  H       1.00    0.878545791   -1.523519226   -0.616660692
   3  H       1.00    0.884690022    1.529484344   -0.618444380
   4  H       1.00   -1.763693203   -0.002338501   -0.617747353

 Bond lengths in Bohr (Angstrom)

 1-2  1.908828852  1-3  1.922885882  1-4  1.917387525
     ( 1.010108724)     ( 1.017547384)     ( 1.014637779)

 Bond angles

  2-1-3  105.64566925   2-1-4  105.65642610   3-1-4  105.62888349

 NUCLEAR CHARGE:                   10
 NUMBER OF PRIMITIVE AOS:          98
 NUMBER OF SYMMETRY AOS:           90
 NUMBER OF CONTRACTIONS:           72   (  72A   )
 NUMBER OF CORE ORBITALS:           1   (   1A   )
 NUMBER OF VALENCE ORBITALS:        7   (   7A   )


 NUCLEAR REPULSION ENERGY   11.94072479


 Eigenvalues of metric

         1 0.163E-02 0.395E-02 0.399E-02 0.401E-02 0.847E-02 0.862E-02 0.129E-01 0.324E-01


 Contracted 2-electron integrals neglected if value below      1.0D-16
 AO integral compression algorithm  1   Integral accuracy      1.0D-16

     34.079 MB (compressed) written to integral file (100.0%)

     Node minimum: 34.079 MB, node maximum: 34.079 MB


 NUMBER OF SORTED TWO-ELECTRON INTEGRALS:    3454506.     BUFFER LENGTH:  32768
 NUMBER OF SEGMENTS:   1  SEGMENT LENGTH:    3454506      RECORD LENGTH: 524288

 Memory used in sort:       4.01 MW

 SORT1 READ     4228545. AND WROTE     3343617. INTEGRALS IN     10 RECORDS. CPU TIME:     0.04 SEC, REAL TIME:     0.06 SEC
 SORT2 READ     3343617. AND WROTE     3454506. INTEGRALS IN    130 RECORDS. CPU TIME:     0.05 SEC, REAL TIME:     0.07 SEC

 FILE SIZES:   FILE 1:    30.7 MBYTE,  FILE 4:    42.0 MBYTE,   TOTAL:     72.7 MBYTE

 OPERATOR DM      FOR CENTER  0  COORDINATES:    0.000000    0.000000    0.000000


 **********************************************************************************************************************************
 DATASETS  * FILE   NREC   LENGTH (MB)   RECORD NAMES
              1      19       30.75       500      610      700      900      950      970     1000      129      960     1100   
                                          VAR    BASINP    GEOM    SYMINP    ZMAT    AOBASIS   BASIS     P2S    ABASIS      S 
                                         1400     1410     1200     1210     1080     1600     1650     1300     1700   
                                           T        V       H0       H01     AOSYM     SMH    MOLCAS    ERIS     OPER   

 PROGRAMS   *        TOTAL       INT
 CPU TIMES  *         0.37      0.33
 REAL TIME  *         0.81 SEC
 DISK USED  *       107.31 MB      
 GA USED    *         0.00 MB       (max)       0.00 MB       (current)
 **********************************************************************************************************************************

1PROGRAM * RHF-SCF (CLOSED SHELL)       Authors: W. Meyer, H.-J. Werner


 NUMBER OF ELECTRONS:       5+    5-    SPACE SYMMETRY=1    SPIN SYMMETRY: Singlet 
 CONVERGENCE THRESHOLDS:    1.00E-10 (Density)    1.00E-13 (Energy)
 MAX. NUMBER OF ITERATIONS:      200
 INTERPOLATION TYPE:            DIIS
 INTERPOLATION STEPS:              2 (START)      1 (STEP)
 LEVEL SHIFTS:                  0.00 (CLOSED)  0.00 (OPEN) 



 Orbital guess generated from atomic densities. Full valence occupancy:    8

 Molecular orbital dump at record        2100.2

 ITERATION    DDIFF          GRAD             ENERGY        2-EL.EN.            DIPOLE MOMENTS         DIIS
    1      0.000D+00      0.000D+00       -56.19175506     64.221550   -0.00079    0.00631   -0.92991    0
    2      0.000D+00      0.634D-02       -56.21264741     62.114208   -0.00012    0.00091   -0.59237    1
    3      0.117D-01      0.310D-02       -56.21736084     63.009418   -0.00020    0.00157   -0.67087    2
    4      0.376D-02      0.472D-03       -56.21758360     62.922515   -0.00015    0.00111   -0.67006    3
    5      0.754D-03      0.110D-03       -56.21759802     62.933031   -0.00013    0.00097   -0.66962    4
    6      0.196D-03      0.188D-04       -56.21759863     62.932708   -0.00012    0.00093   -0.66983    5
    7      0.482D-04      0.363D-05       -56.21759866     62.932820   -0.00012    0.00092   -0.66987    6
    8      0.121D-04      0.809D-06       -56.21759866     62.932794   -0.00012    0.00092   -0.66989    6
    9      0.243D-05      0.151D-06       -56.21759866     62.932791   -0.00012    0.00092   -0.66990    6
   10      0.535D-06      0.380D-07       -56.21759866     62.932789   -0.00012    0.00092   -0.66990    6
   11      0.166D-06      0.562D-08       -56.21759866     62.932790   -0.00012    0.00092   -0.66990    6
   12      0.145D-07      0.136D-08       -56.21759866     62.932789   -0.00012    0.00092   -0.66990    6
   13      0.286D-08      0.278D-09       -56.21759866     62.932789   -0.00012    0.00092   -0.66990    6
   14      0.597D-09      0.466D-10       -56.21759866     62.932789   -0.00012    0.00092   -0.66990    6
   15      0.913D-10      0.888D-11       -56.21759866     62.932789   -0.00012    0.00092   -0.66990    6
   16      0.186D-10      0.232D-11       -56.21759866     62.932789   -0.00012    0.00092   -0.66990    6
   17      0.586D-11      0.562D-12       -56.21759866     62.932789   -0.00012    0.00092   -0.66990    6
   18      0.185D-11      0.101D-12       -56.21759866     62.932789   -0.00012    0.00092   -0.66990    6
   19      0.296D-12      0.329D-13       -56.21759866     62.932789   -0.00012    0.00092   -0.66990    6
   20      0.120D-12      0.210D-13       -56.21759866     62.932789   -0.00012    0.00092   -0.66990    7
   21      0.526D-13      0.142D-13       -56.21759866     62.932789   -0.00012    0.00092   -0.66990    7
   22      0.299D-13      0.179D-13       -56.21759866     62.932789   -0.00012    0.00092   -0.66990    0

 Final occupancy:   5

 !RHF STATE 1.1 Energy                -56.217598656609
 Nuclear energy                        11.94072479
 One-electron energy                  -99.62471813
 Two-electron energy                   31.46639467
 Virial quotient                       -1.00114336
 !RHF STATE 1.1 Dipole moment          -0.00012280     0.00091988    -0.66990181
 Dipole moment /Debye                  -0.00031212     0.00233794    -1.70260904

 Orbital energies:

         1.1          2.1          3.1          4.1          5.1          6.1          7.1
    -15.535280    -1.138485    -0.622347    -0.620497    -0.429355     0.136675     0.216778


 **********************************************************************************************************************************
 DATASETS  * FILE   NREC   LENGTH (MB)   RECORD NAMES
              1      19       30.75       500      610      700      900      950      970     1000      129      960     1100   
                                          VAR    BASINP    GEOM    SYMINP    ZMAT    AOBASIS   BASIS     P2S    ABASIS      S 
                                         1400     1410     1200     1210     1080     1600     1650     1300     1700   
                                           T        V       H0       H01     AOSYM     SMH    MOLCAS    ERIS     OPER   

              2       3        0.42       700     1000     2100   
                                         GEOM     BASIS     RHF  

 PROGRAMS   *        TOTAL       RHF       INT
 CPU TIMES  *         0.84      0.47      0.33
 REAL TIME  *         1.53 SEC
 DISK USED  *       107.31 MB      
 GA USED    *         0.00 MB       (max)       0.00 MB       (current)
 **********************************************************************************************************************************


1PROGRAM * CCSD (Closed-shell coupled cluster)     Authors: C. Hampel, H.-J. Werner, 1991, M. Deegan, P.J. Knowles, 1992


 Convergence thresholds:  THRVAR = 1.00D-08  THRDEN = 1.00D-12

 CCSD(T)     terms to be evaluated (factor= 1.000)


 Number of core orbitals:           1 (   1 )
 Number of closed-shell orbitals:   4 (   4 )
 Number of external orbitals:      67 (  67 )

 Molecular orbitals read from record     2100.2  Type=RHF/CANONICAL (state 1.1)

 Number of N-1 electron functions:               4
 Number of N-2 electron functions:              10
 Number of singly external CSFs:               268
 Number of doubly external CSFs:             36046
 Total number of CSFs:                       36315

 Length of J-op  integral file:               0.00 MB
 Length of K-op  integral file:               0.39 MB
 Length of 3-ext integral record:             0.00 MB

 Memory could be reduced to 2.38 Mwords without degradation in triples

 Integral transformation finished. Total CPU:   0.05 sec, npass=  1  Memory used:   1.17 MW

 Reference energy:                    -56.21759866

 MP2 singlet pair energy:              -0.15730077
 MP2 triplet pair energy:              -0.07805227
 MP2 correlation energy:               -0.23535304
 MP2 total energy:                    -56.45295170

 SCS-MP2 correlation energy:           -0.23732678   (PS=  1.200000  PT=  0.333333)
 SCS-MP2 total energy:                -56.45492544

 ITER.      SQ.NORM     CORR.ENERGY   TOTAL ENERGY   ENERGY CHANGE        DEN1      VAR(S)    VAR(P)  DIIS     TIME
   1      1.06935297    -0.24706117   -56.46465983    -0.01170813    -0.00658197  0.40D-03  0.90D-03  1  1     0.10
   2      1.07337073    -0.24780532   -56.46540398    -0.00074415    -0.00489481  0.14D-04  0.89D-04  2  2     0.16
   3      1.07460913    -0.24788700   -56.46548566    -0.00008168    -0.00088267  0.11D-05  0.53D-05  3  3     0.22
   4      1.07492562    -0.24790203   -56.46550069    -0.00001503    -0.00016915  0.22D-06  0.24D-06  4  4     0.27
   5      1.07497039    -0.24790159   -56.46550025     0.00000044    -0.00001701  0.50D-07  0.17D-07  5  5     0.32
   6      1.07497656    -0.24790115   -56.46549980     0.00000044    -0.00000261  0.13D-07  0.18D-08  6  6     0.38
   7      1.07497969    -0.24790136   -56.46550002    -0.00000022    -0.00000012  0.16D-08  0.44D-09  6  1     0.44
   8      1.07498066    -0.24790135   -56.46550001     0.00000001     0.00000018  0.11D-09  0.33D-10  6  2     0.49
   9      1.07498113    -0.24790132   -56.46549998     0.00000003    -0.00000009  0.77D-12  0.22D-11  6  3     0.55
  10      1.07498117    -0.24790132   -56.46549997     0.00000000    -0.00000001  0.78D-13  0.11D-12  6  4     0.61
  11      1.07498119    -0.24790132   -56.46549997    -0.00000000    -0.00000001  0.65D-14  0.51D-14  6  5     0.67
  12      1.07498119    -0.24790132   -56.46549997    -0.00000000    -0.00000000  0.46D-15  0.35D-15  6  6     0.72
  13      1.07498119    -0.24790132   -56.46549997     0.00000000    -0.00000000  0.67D-16  0.22D-16  6  1     0.77
  14      1.07498119    -0.24790132   -56.46549997    -0.00000000    -0.00000000  0.46D-17  0.19D-17  6  2     0.83
  15      1.07498119    -0.24790132   -56.46549997    -0.00000000     0.00000000  0.10D-17  0.22D-18  6  3     0.89
  16      1.07498119    -0.24790132   -56.46549997    -0.00000000     0.00000000  0.30D-18  0.37D-19  6  4     0.94
  17      1.07498119    -0.24790132   -56.46549997    -0.00000000     0.00000000  0.33D-19  0.70D-20  6  5     1.00
  18      1.07498119    -0.24790132   -56.46549997    -0.00000000    -0.00000000  0.30D-20  0.75D-21  6  6     1.06

 Norm of t1 vector:      0.02460228      S-energy:    -0.00000000      T1 diagnostic:  0.00615057
                                                                       D1 diagnostic:  0.01003868


 Total CPU time for triples:      0.24 sec


 RESULTS
 =======

  Reference energy                    -56.217598656609
  CCSD singlet pair energy             -0.176589518657
  CCSD triplet pair energy             -0.071311799248
  CCSD correlation energy              -0.247901317906

  Triples (T) contribution             -0.007674509697
  Total correlation energy             -0.255575827603

  CCSD total energy                   -56.465499974514
  CCSD[T] energy                      -56.473353812758
  CCSD-T energy                       -56.473079581668
 !CCSD(T) total energy                -56.473174484212

 Timing summary (sec):

 STEP                 CPU(USER)    SYS     CPU(TOT)    WALL
 Transformation          0.06      0.01      0.07      0.07
 CCSD iterations         1.00      0.09      1.09      1.25
 Triples                 0.24      0.01      0.25      0.28

 Program statistics:

 Available memory in ccsd:               999999836
 Min. memory needed in ccsd:                174738
 Max. memory used in ccsd:                  198872
 Max. memory used in cckext:                163034 (18 integral passes)



 **********************************************************************************************************************************
 DATASETS  * FILE   NREC   LENGTH (MB)   RECORD NAMES
              1      20       36.35       500      610      700      900      950      970     1000      129      960     1100   
                                          VAR    BASINP    GEOM    SYMINP    ZMAT    AOBASIS   BASIS     P2S    ABASIS      S 
                                         1400     1410     1200     1210     1080     1600     1650     1300     1700     1380   
                                           T        V       H0       H01     AOSYM     SMH    MOLCAS    ERIS     OPER     JKOP   

              2       3        0.42       700     1000     2100   
                                         GEOM     BASIS     RHF  

 PROGRAMS   *        TOTAL   CCSD(T)       RHF       INT
 CPU TIMES  *         2.15      1.31      0.47      0.33
 REAL TIME  *         3.19 SEC
 DISK USED  *       107.31 MB      
 GA USED    *         0.00 MB       (max)       0.00 MB       (current)
 **********************************************************************************************************************************

        CCSD(T)         RHF-SCF 
    -56.47317448    -56.21759866
 **********************************************************************************************************************************
 Variable memory released
