
 Working directory              : /scratch/mel64643/tmp/40073368/
 Global scratch directory       : /scratch/mel64643/tmp/40073368/
 Wavefunction directory         : /home/mel64643/wfu/
 Main file repository           : /scratch/mel64643/tmp/40073368/

 id        : ccgc

 Nodes     nprocs
 a1-8         3
 Distribution of processes:   nprocs(total)=    4   nprocs(compute)=    3   nprocs(helper)=    1
 GA implementation: MPI file
 GA implementation (serial work in mppx): MPI file

 Using customized tuning parameters: mindgm=1; mindgv=20; mindgc=4; mindgr=1; noblas=0; minvec=7
 default implementation of scratch files=sf  


 Variables initialized (1015), CPU time= 0.01 sec
 ***,Optimization of min3
 memory,1000,m
 gthresh,energy=1.0d-12,orbital=1.0d-10,oneint=1.0d-16,twoint=1.0d-16,optgrad=1.0d-6,compress=1.0d-13
 geomtyp=xyz
 
  bohr
  geometry = {
  6
  arbitrary comment
  C   -1.3737372415   -0.0247757196    0.0027956017
  O    1.2928509267    0.1159775272    0.0003952651
  H   -2.0766822787    1.9118095095    0.0089201263
  H   -2.1036533850   -0.9697709678    1.6781165005
  H   -2.1074894643   -0.9869623523   -1.6909219166
  H    1.9449872828   -1.5764101170    0.0006860131
 }
 
 basis=cc-pvdz
 {rhf;maxit,200}
 {ccsd(t);maxit,200}
 Commands initialized (818), CPU time= 0.00 sec, 672 directives.
 Default parameters read. Elapsed time= 0.11 sec

 Checking input...
 Passed
1


                                         ***  PROGRAM SYSTEM MOLPRO  ***
                                       Copyright, TTI GmbH Stuttgart, 2015
                                    Version 2022.1 linked Mar  4 2022 00:40:14


 **********************************************************************************************************************************
 LABEL *   Optimization of min3                                                          
  64 bit mpp version                                                                     DATE: 07-Aug-25          TIME: 21:26:36  
 **********************************************************************************************************************************

 SHA1:             31073afc4d8441e10870424e0d77336a33bc4286
 **********************************************************************************************************************************

 Memory per process:      1000 MW
 Total memory per node:   3000 MW

 GA preallocation disabled
 GA check disabled

 Variable memory set to 1000.0 MW


 THRESHOLDS:

 ZERO    =  1.00D-12  ONEINT  =  1.00D-16  TWOINT  =  1.00D-16  PREFAC  =  1.00D-14  XXXXXX  =  1.00D-09  EORDER  =  1.00D-04
 ENERGY  =  1.00D-12  ETEST   =  0.00D+00  EDENS   =  0.00D+00  THRDEDEF=  1.00D-06  GRADIENT=  1.00D-05  STEP    =  1.00D-03
 ORBITAL =  1.00D-10  CIVEC   =  1.00D-05  COEFF   =  1.00D-04  PRINTCI =  5.00D-02  PUNCHCI =  9.90D+01  OPTGRAD =  1.00D-06
 OPTENERG=  1.00D-06  OPTSTEP =  3.00D-04  THRGRAD =  1.00D-10  COMPRESS=  1.00D-13  VARMIN  =  1.00D-07  VARMAX  =  1.00D-03
 THRDOUB =  0.00D+00  THRDIV  =  1.00D-05  THRRED  =  1.00D-07  THRPSP  =  1.00D+00  THRDC   =  1.00D-10  THRCS   =  1.00D-10
 THRNRM  =  1.00D-08  THREQ   =  0.00D+00  THRDE   =  1.00D+00  THRREF  =  1.00D-05  SPARFAC =  1.00D+00  THRDLP  =  1.00D-07
 THRDIA  =  1.00D-10  THRDLS  =  1.00D-07  THRGPS  =  0.00D+00  THRKEX  =  0.00D+00  THRDIS  =  2.00D-01  THRVAR  =  1.00D-10
 THRLOC  =  1.00D-06  THRGAP  =  1.00D-06  THRLOCT = -1.00D+00  THRGAPT = -1.00D+00  THRORB  =  1.00D-06  THRMLTP =  0.00D+00
 THRCPQCI=  1.00D-10  KEXTA   =  0.00D+00  THRCOARS=  0.00D+00  SYMTOL  =  1.00D-06  GRADTOL =  1.00D-06  THROVL  =  1.00D-08
 THRORTH =  1.00D-08  THRDLOVL= -1.00D+00  GRID    =  1.00D-06  GRIDMAX =  1.00D-03  DTMAX   =  0.00D+00  THROCCDE=  1.00D-01
 THROCCDE=  1.00D-01  THRPRINT=  2.50D-01

 SETTING GEOMTYP        =    XYZ
 ZUNIT=BOHR

 SETTING BASIS          =    CC-PVDZ


 Recomputing integrals since basis changed


 Using spherical harmonics

 Library entry C      S cc-pVDZ              selected for orbital group  1
 Library entry C      P cc-pVDZ              selected for orbital group  1
 Library entry C      D cc-pVDZ              selected for orbital group  1
 Library entry O      S cc-pVDZ              selected for orbital group  2
 Library entry O      P cc-pVDZ              selected for orbital group  2
 Library entry O      D cc-pVDZ              selected for orbital group  2
 Library entry H      S cc-pVDZ              selected for orbital group  3
 Library entry H      P cc-pVDZ              selected for orbital group  3


 PROGRAM * SEWARD (Integral evaluation for generally contracted gaussian basis sets)     Author: Roland Lindh, 1990

 Geometry written to block  1 of record 700


 Point group  C1  



 ATOMIC COORDINATES

 NR  ATOM    CHARGE       X              Y              Z

   1  C       6.00   -1.373737241   -0.024775720    0.002795602
   2  O       8.00    1.292850927    0.115977527    0.000395265
   3  H       1.00   -2.076682279    1.911809510    0.008920126
   4  H       1.00   -2.103653385   -0.969770968    1.678116501
   5  H       1.00   -2.107489464   -0.986962352   -1.690921917
   6  H       1.00    1.944987283   -1.576410117    0.000686013

 Bond lengths in Bohr (Angstrom)

 1-2  2.670301424  1-3  2.060226100  1-4  2.057302532  1-5  2.081555782  2-6  1.813686260
     ( 1.413062660)     ( 1.090224702)     ( 1.088677616)     ( 1.101511883)     ( 0.959761437)

 Bond angles

  1-2-6  108.05191075   2-1-3  106.92855010   2-1-4  112.28682399   2-1-5  112.06420815

  3-1-4  107.95652954   3-1-5  108.46040041   4-1-5  108.97836788

 NUCLEAR CHARGE:                   18
 NUMBER OF PRIMITIVE AOS:          82
 NUMBER OF SYMMETRY AOS:           80
 NUMBER OF CONTRACTIONS:           48   (   48A   )
 NUMBER OF INNER CORE ORBITALS:     0   (    0A   )
 NUMBER OF OUTER CORE ORBITALS:     2   (    2A   )
 NUMBER OF VALENCE ORBITALS:       12   (   12A   )


 NUCLEAR REPULSION ENERGY   40.41779333

 Eigenvalues of metric

         1 0.963E-02 0.176E-01 0.366E-01 0.377E-01 0.381E-01 0.469E-01 0.482E-01 0.518E-01


 Contracted 2-electron integrals neglected if value below      1.0D-16
 AO integral compression algorithm  1   Integral accuracy      1.0D-16

     7.340 MB (compressed) written to integral file (100.0%)

     Node minimum: 2.359 MB, node maximum: 2.621 MB


 NUMBER OF SORTED TWO-ELECTRON INTEGRALS:     231084.     BUFFER LENGTH:  32768
 NUMBER OF SEGMENTS:   1  SEGMENT LENGTH:     231084      RECORD LENGTH: 524288

 Memory used in sort:       0.79 MW

 SORT1 READ      832256. AND WROTE      227683. INTEGRALS IN      1 RECORDS. CPU TIME:     0.01 SEC, REAL TIME:     0.02 SEC
 SORT2 READ      682150. AND WROTE      692076. INTEGRALS IN     30 RECORDS. CPU TIME:     0.01 SEC, REAL TIME:     0.03 SEC

 Node minimum:      230300.  Node maximum:      231084. integrals

 OPERATOR DM      FOR CENTER  0  COORDINATES:    0.000000    0.000000    0.000000


 **********************************************************************************************************************************
 DATASETS  * FILE   NREC   LENGTH (MB)   RECORD NAMES
              1      18       28.73       500      610      700      900      950      970     1000      129      960     1100   
                                          VAR    BASINP    GEOM    SYMINP    ZMAT    AOBASIS   BASIS     P2S    ABASIS      S 
                                         1400     1410     1200     1210     1080     1600     1650     1700   
                                           T        V       H0       H01     AOSYM     SMH    MOLCAS    OPER   

 PROGRAMS   *        TOTAL       INT
 CPU TIMES  *         0.46      0.31
 REAL TIME  *         1.54 SEC
 DISK USED  *        29.07 MB (local),      104.69 MB (total)
 GA USED    *         0.00 MB       (max)       0.00 MB       (current)
 **********************************************************************************************************************************


 Program * Restricted Hartree-Fock

 Orbital guess generated from atomic densities. Full valence occupancy:   14

 Initial occupancy:   9

 NELEC=   18   SYM=1   MS2= 0   THRE=1.0D-12   THRD=1.0D-10   THRG=1.0D-10  HFMA2=F  DIIS_START=2   DIIS_MAX=10   DIIS_INCORE=F

 Level shifts:    0.00 (CLOSED)    0.00 (OPEN)    0.30 (GAP_MIN)

 ITER           ETOT              DE          GRAD        DDIFF     DIIS  NEXP   TIME(IT)  TIME(TOT)  DIAG
   1     -115.01446907    -115.01446907     0.00D+00     0.16D+00     0     0       0.00      0.00    start
   2     -115.04282247      -0.02835339     0.10D-01     0.20D-01     1     0       0.01      0.01    diag
   3     -115.04878556      -0.00596310     0.48D-02     0.64D-02     2     0       0.00      0.01    diag
   4     -115.04924744      -0.00046187     0.10D-02     0.20D-02     3     0       0.00      0.01    diag
   5     -115.04926815      -0.00002071     0.18D-03     0.43D-03     4     0       0.00      0.01    diag
   6     -115.04926894      -0.00000078     0.32D-04     0.93D-04     5     0       0.02      0.03    diag
   7     -115.04926897      -0.00000003     0.67D-05     0.15D-04     6     0       0.00      0.03    diag
   8     -115.04926897      -0.00000000     0.22D-05     0.51D-05     7     0       0.00      0.03    fixocc
   9     -115.04926897      -0.00000000     0.45D-06     0.14D-05     8     0       0.00      0.03    diag
  10     -115.04926897      -0.00000000     0.76D-07     0.24D-06     9     0       0.01      0.04    diag/orth
  11     -115.04926897      -0.00000000     0.19D-07     0.51D-07     9     0       0.00      0.04    diag
  12     -115.04926897      -0.00000000     0.46D-08     0.15D-07     9     0       0.00      0.04    diag
  13     -115.04926897       0.00000000     0.70D-09     0.19D-08     9     0       0.00      0.04    diag
  14     -115.04926897      -0.00000000     0.16D-09     0.42D-09     9     0       0.00      0.04    diag
  15     -115.04926897      -0.00000000     0.70D-10     0.13D-09     9     0       0.01      0.05    diag
  16     -115.04926897       0.00000000     0.21D-10     0.49D-10     9     0       0.00      0.05    diag
  17     -115.04926897      -0.00000000     0.54D-11     0.88D-11     0     0       0.00      0.05    diag

 Final occupancy:   9

 !RHF STATE 1.1 Energy               -115.049268970273
  RHF One-electron energy            -237.094155311617
  RHF Two-electron energy              81.627093008460
  RHF Kinetic energy                  114.954760912902
  RHF Nuclear energy                   40.417793332884
  RHF Virial quotient                  -1.000822132608

 !RHF STATE 1.1 Dipole moment          -0.37742994    -0.59301631     0.00588655
 Dipole moment /Debye                  -0.95933121    -1.50729711     0.01496212

 Orbital energies:

           1.1          2.1          3.1          4.1          5.1          6.1          7.1          8.1          9.1         10.1
    -20.549468   -11.274224    -1.352111    -0.920855    -0.684114    -0.614933    -0.586795    -0.495297    -0.442187     0.184650

          11.1
      0.224380


 HOMO      9.1    -0.442187 =     -12.0325eV
 LUMO     10.1     0.184650 =       5.0246eV
 LUMO-HOMO         0.626837 =      17.0571eV

 Orbitals saved in record  2100.2


 **********************************************************************************************************************************
 DATASETS  * FILE   NREC   LENGTH (MB)   RECORD NAMES
              1      18       28.73       500      610      700      900      950      970     1000      129      960     1100   
                                          VAR    BASINP    GEOM    SYMINP    ZMAT    AOBASIS   BASIS     P2S    ABASIS      S 
                                         1400     1410     1200     1210     1080     1600     1650     1700   
                                           T        V       H0       H01     AOSYM     SMH    MOLCAS    OPER   

              2       4        0.47       700     1000      520     2100   
                                         GEOM     BASIS   MCVARS     RHF  

 PROGRAMS   *        TOTAL   RHF-SCF       INT
 CPU TIMES  *         0.52      0.06      0.31
 REAL TIME  *         1.79 SEC
 DISK USED  *        29.40 MB (local),      105.68 MB (total)
 GA USED    *         0.00 MB       (max)       0.00 MB       (current)
 **********************************************************************************************************************************


 PROGRAM * CCSD (Closed-shell coupled cluster)     Authors: C. Hampel, H.-J. Werner, 1991, M. Deegan, P.J. Knowles, 1992


 Convergence thresholds:  THRVAR = 1.00D-08  THRDEN = 1.00D-12

 CCSD(T)     terms to be evaluated (factor= 1.000)


 Number of core orbitals:           2 (   2 )
 Number of closed-shell orbitals:   7 (   7 )
 Number of external orbitals:      39 (  39 )

 Molecular orbitals read from record     2100.2  Type=RHF/CANONICAL  

 Number of N-1 electron functions:               7
 Number of N-2 electron functions:              28
 Number of singly external CSFs:               273
 Number of doubly external CSFs:             37401
 Total number of CSFs:                       37675

 Length of J-op  integral file:               0.00 MB
 Length of K-op  integral file:               0.16 MB
 Length of 3-ext integral record:             0.00 MB

 Memory could be reduced to 0.73 Mwords without degradation in triples

 Integral transformation finished. Total CPU:   0.02 sec, npass=  1  Memory used:   0.66 MW

 Reference energy:                   -115.04926897

 MP2 singlet pair energy:              -0.21845193
 MP2 triplet pair energy:              -0.11977247
 MP2 correlation energy:               -0.33822440
 MP2 total energy:                   -115.38749337

 SCS-MP2 correlation energy:           -0.33666741   (PS=  1.200000  PT=  0.333333)
 SCS-MP2 total energy:               -115.38593638

 ITER.      SQ.NORM     CORR.ENERGY   TOTAL ENERGY   ENERGY CHANGE        DEN1      VAR(S)    VAR(P)  DIIS     TIME  TIME/IT
   1      1.10711677    -0.36104601  -115.41031498    -0.02282161    -0.01417650  0.90D-03  0.17D-02  1  1     0.05     0.04
   2      1.11560847    -0.36298764  -115.41225661    -0.00194163    -0.00922611  0.19D-04  0.16D-03  2  2     0.07     0.04
   3      1.11746823    -0.36311354  -115.41238251    -0.00012590    -0.00119230  0.93D-05  0.85D-05  3  3     0.09     0.03
   4      1.11797648    -0.36311239  -115.41238136     0.00000115    -0.00025208  0.33D-06  0.66D-06  4  4     0.11     0.03
   5      1.11807287    -0.36311282  -115.41238179    -0.00000043    -0.00003544  0.98D-07  0.48D-07  5  5     0.13     0.03
   6      1.11809159    -0.36311150  -115.41238047     0.00000132    -0.00000431  0.16D-07  0.40D-08  6  6     0.15     0.03
   7      1.11809628    -0.36311109  -115.41238006     0.00000041    -0.00000036  0.20D-08  0.71D-09  6  1     0.17     0.03
   8      1.11809753    -0.36311119  -115.41238016    -0.00000010     0.00000074  0.25D-09  0.71D-10  6  3     0.19     0.03
   9      1.11809858    -0.36311107  -115.41238004     0.00000012    -0.00000038  0.13D-10  0.10D-10  6  2     0.21     0.03
  10      1.11809863    -0.36311107  -115.41238004     0.00000000     0.00000000  0.14D-11  0.12D-11  6  4     0.23     0.03
  11      1.11809859    -0.36311107  -115.41238004     0.00000000     0.00000003  0.33D-12  0.84D-13  6  5     0.25     0.03
  12      1.11809854    -0.36311107  -115.41238004    -0.00000000     0.00000003  0.34D-13  0.13D-13  6  6     0.27     0.03
  13      1.11809853    -0.36311107  -115.41238004    -0.00000000     0.00000001  0.71D-14  0.16D-14  6  1     0.29     0.03
  14      1.11809852    -0.36311107  -115.41238004    -0.00000000     0.00000000  0.70D-15  0.21D-15  6  3     0.31     0.03
  15      1.11809852    -0.36311107  -115.41238004    -0.00000000    -0.00000000  0.82D-16  0.44D-16  6  2     0.34     0.03
  16      1.11809852    -0.36311107  -115.41238004     0.00000000    -0.00000000  0.12D-16  0.38D-17  6  5     0.36     0.03
  17      1.11809852    -0.36311107  -115.41238004    -0.00000000     0.00000000  0.22D-17  0.41D-18  6  3     0.38     0.03
  18      1.11809852    -0.36311107  -115.41238004    -0.00000000     0.00000000  0.43D-18  0.82D-19  6  4     0.40     0.03
  19      1.11809852    -0.36311107  -115.41238004     0.00000000    -0.00000000  0.20D-19  0.95D-20  6  6     0.42     0.03
  20      1.11809852    -0.36311107  -115.41238004    -0.00000000     0.00000000  0.27D-20  0.14D-20  6  1     0.44     0.03
  21      1.11809852    -0.36311107  -115.41238004     0.00000000     0.00000000  0.39D-21  0.10D-21  6  5     0.47     0.03

 Norm of t1 vector:      0.04136768      S-energy:     0.00000000      T1 diagnostic:  0.00781776
                                                                       D1 diagnostic:  0.01719200
                                                                       D2 diagnostic:  0.13418045 (internal)


 Total CPU time for triples:      0.09 sec


 RESULTS
 =======

  Reference energy                   -115.049268970273
  CCSD singlet pair energy             -0.254357135372
  CCSD triplet pair energy             -0.108753936019
  CCSD correlation energy              -0.363111071391

  Triples (T) contribution             -0.007701599092
  Total correlation energy             -0.370812670483

  CCSD total energy                  -115.412380041664
  CCSD[T] energy                     -115.420367945576
  CCSD-T energy                      -115.419933520899
 !CCSD(T) total energy               -115.420081640755

 Timing summary (sec):

 STEP                 CPU(USER)    SYS     CPU(TOT)    WALL
 Transformation          0.02      0.01      0.03      0.04
 CCSD iterations         0.45      0.07      0.52      0.68
 Triples                 0.09      0.01      0.10      0.10

 Program statistics:

 Available memory in ccsd:               999999795
 Min. memory needed in ccsd:                136177
 Max. memory used in ccsd:                  162910
 Max. memory used in cckext:                178997 (21 integral passes)



 **********************************************************************************************************************************
 DATASETS  * FILE   NREC   LENGTH (MB)   RECORD NAMES
              1      19       31.13       500      610      700      900      950      970     1000      129      960     1100   
                                          VAR    BASINP    GEOM    SYMINP    ZMAT    AOBASIS   BASIS     P2S    ABASIS      S 
                                         1400     1410     1200     1210     1080     1600     1650     1700     1380   
                                           T        V       H0       H01     AOSYM     SMH    MOLCAS    OPER     JKOP   

              2       4        0.47       700     1000      520     2100   
                                         GEOM     BASIS   MCVARS     RHF  

 PROGRAMS   *        TOTAL   CCSD(T)   RHF-SCF       INT
 CPU TIMES  *         1.12      0.60      0.06      0.31
 REAL TIME  *         2.68 SEC
 DISK USED  *        35.56 MB (local),      116.33 MB (total)
 SF USED    *         5.97 MB
 GA USED    *         0.00 MB       (max)       0.00 MB       (current)
 **********************************************************************************************************************************

 CCSD(T)/cc-pVDZ energy=   -115.420081640755

         CCSD(T)         RHF-SCF
   -115.42008164   -115.04926897
 **********************************************************************************************************************************
 Molpro calculation terminated
