
 Primary working directories    : /tmp/333988.41.gen4.q
 Secondary working directories  : /tmp/333988.41.gen4.q
 Wavefunction directory         : /home/vulcan/mel64643/wfu/
 Main file repository           : /tmp/333988.41.gen4.q/

 ARCHNAME  : Linux/x86_64
 FC        : /opt/intel/compilers_and_libraries_2016.1.150/linux/bin/intel64/ifort
 FCVERSION : 16.0.1
 BLASLIB   : -mkl
 id        : ccgc

 Nodes     nprocs
 n039         3
 Number of processes for MPI-2 version of Molpro:   nprocs(total)=    4   nprocs(compute)=    3   nprocs(helper)=    1
 ga_uses_ma=false, calling ma_init with nominal heap.
 GA-space will be limited to   8.0 MW (determined by -G option)

 Using customized tuning parameters: mindgm=10; mindgv=16; mindgc=4; mindgr=1; noblas=0; mincuda=1000; minvec=7
 default implementation of scratch files=sf  

 ***,Optimization of min3
 memory,1000,m
 gthresh,energy=1.0d-10,orbital=1.0d-10,oneint=1.0d-16,twoint=1.0d-16,optgrad=1.0d-6,compress=1.0d-13
 geomtyp=xyz
 
  bohr
  geometry = {
  12
  arbitrary comment
  C         -3.1023848975          1.5859105107          0.0212102254
  C         -0.8629888025         -0.0730819742         -0.6559660503
  C         -1.1171258230         -2.7793336349          0.2454063572
  O          1.3115025885          1.1051206953          0.5890853520
  O          3.4491880355          0.1200342968         -0.2518639638
  H         -4.8005748037          0.8571061338         -0.8937472304
  H         -2.8187732447          3.5232424190         -0.6223062950
  H         -3.3774150815          1.5995851109          2.0656921159
  H         -0.4631230155          0.0010739396         -2.6776469615
  H         -2.7065571857         -3.6906022767         -0.7034205585
  H         -1.4833948444         -2.8320776974          2.2761756137
  H          0.6106743321         -3.8223671858         -0.1607774302
 }
 
 basis=cc-pvtz
 {rhf;maxit,200}
 {uccsd(t);maxit,200}

 Variables initialized (661), CPU time= 0.01 sec
 Commands  initialized (458), CPU time= 0.01 sec, 486 directives.
 Default parameters read. Elapsed time= 0.08 sec

 Checking input...
 Passed
1


                                         ***  PROGRAM SYSTEM MOLPRO  ***
                         Copyright, University College Cardiff Consultants Limited, 2008

                                    Version 2010.1 linked May 16 2016 07:17:05


 **********************************************************************************************************************************
 LABEL *   Optimization of min3                                                          
 Linux-4.4.3/n039(x86_64) 64 bit mpp version                                             DATE: 15-Jul-20          TIME: 15:55:24  
 **********************************************************************************************************************************

 SHA1:             9e8077add272b0f3cad6f7df79ec5211205f459d
 **********************************************************************************************************************************

 THRESHOLDS:

 ZERO    =  1.00D-12  ONEINT  =  1.00D-16  TWOINT  =  1.00D-16  PREFAC  =  1.00D-14  LOCALI  =  1.00D-09  EORDER  =  1.00D-04
 ENERGY  =  1.00D-10  ETEST   =  0.00D+00  EDENS   =  0.00D+00  THRDEDEF=  1.00D-06  GRADIENT=  1.00D-02  STEP    =  1.00D-03
 ORBITAL =  1.00D-10  CIVEC   =  1.00D-05  COEFF   =  1.00D-04  PRINTCI =  5.00D-02  PUNCHCI =  9.90D+01  OPTGRAD =  1.00D-06
 OPTENERG=  1.00D-06  OPTSTEP =  3.00D-04  THRGRAD =  1.00D-10  COMPRESS=  1.00D-13  VARMIN  =  1.00D-07  VARMAX  =  1.00D-03
 THRDOUB =  0.00D+00  THRDIV  =  1.00D-05  THRRED  =  1.00D-07  THRPSP  =  1.00D+00  THRDC   =  1.00D-10  THRCS   =  1.00D-10
 THRNRM  =  1.00D-08  THREQ   =  0.00D+00  THRDE   =  1.00D+00  THRREF  =  1.00D-05  SPARFAC =  1.00D+00  THRDLP  =  1.00D-07
 THRDIA  =  1.00D-10  THRDLS  =  1.00D-07  THRGPS  =  0.00D+00  THRKEX  =  0.00D+00  THRDIS  =  2.00D-01  THRVAR  =  1.00D-10
 THRLOC  =  1.00D-06  THRGAP  =  1.00D-06  THRLOCT = -1.00D+00  THRGAPT = -1.00D+00  THRORB  =  1.00D-06  THRMLTP =  0.00D+00
 THRCPQCI=  1.00D-10  KEXTA   =  0.00D+00  THRCOARS=  0.00D+00  SYMTOL  =  1.00D-06  GRADTOL =  1.00D-06  THROVL  =  1.00D-08
 THRORTH =  1.00D-08  GRID    =  1.00D-06  GRIDMAX =  1.00D-03  DTMAX   =  0.00D+00

 SETTING GEOMTYP        =    XYZ
 ZUNIT=BOHR
 

 Variable memory set to 1000000000 words,  buffer space   230000 words

 SETTING BASIS          =    CC-PVTZ


 Recomputing integrals since basis changed


 Using spherical harmonics

 Library entry C      S cc-pVTZ              selected for orbital group  1
 Library entry C      P cc-pVTZ              selected for orbital group  1
 Library entry C      D cc-pVTZ              selected for orbital group  1
 Library entry C      F cc-pVTZ              selected for orbital group  1
 Library entry O      S cc-pVTZ              selected for orbital group  2
 Library entry O      P cc-pVTZ              selected for orbital group  2
 Library entry O      D cc-pVTZ              selected for orbital group  2
 Library entry O      F cc-pVTZ              selected for orbital group  2
 Library entry H      S cc-pVTZ              selected for orbital group  3
 Library entry H      P cc-pVTZ              selected for orbital group  3
 Library entry H      D cc-pVTZ              selected for orbital group  3

1PROGRAM * SEWARD (Integral evaluation for generally contracted gaussian basis sets)     Author: Roland Lindh, 1990

 Geometry written to block  1 of record 700


 Point group  C1  



 ATOMIC COORDINATES

 NR  ATOM    CHARGE       X              Y              Z

   1  C       6.00   -3.102384897    1.585910511    0.021210225
   2  C       6.00   -0.862988802   -0.073081974   -0.655966050
   3  C       6.00   -1.117125823   -2.779333635    0.245406357
   4  O       8.00    1.311502589    1.105120695    0.589085352
   5  O       8.00    3.449188036    0.120034297   -0.251863964
   6  H       1.00   -4.800574804    0.857106134   -0.893747230
   7  H       1.00   -2.818773245    3.523242419   -0.622306295
   8  H       1.00   -3.377415082    1.599585111    2.065692116
   9  H       1.00   -0.463123016    0.001073940   -2.677646961
  10  H       1.00   -2.706557186   -3.690602277   -0.703420558
  11  H       1.00   -1.483394844   -2.832077697    2.276175614
  12  H       1.00    0.610674332   -3.822367186   -0.160777430

 Bond lengths in Bohr (Angstrom)

 1-2  2.868051367  1-6  2.062074665  1-7  2.061020137  1-8  2.062943237  2-3  2.863713654
     ( 1.517707418)     ( 1.091202916)     ( 1.090644884)     ( 1.091662544)     ( 1.515411999)

  2- 4  2.768885576   2- 9  2.062179782   3-10  2.063243832   3-11  2.064208978   3-12  2.058688328
       ( 1.465231141)       ( 1.091258542)       ( 1.091821612)       ( 1.092332346)       ( 1.089410944)

 4-5  2.499457948
     ( 1.322656181)

 Bond angles

  1-2-3  113.76737222   1-2-4  105.12281495   1-2-9  111.22766450   2-1-6  109.50074197

  2- 1- 7  111.25743025   2- 1- 8  109.99439954   2- 3-10  109.93778275   2- 3-11  110.45983995

  2- 3-12  110.01150908   2- 4- 5  110.65065995   3- 2- 4  109.28568716   3- 2- 9  111.08579766

  4-2-9  105.85754596   6-1-7  107.87894171   6-1-8  109.40759778   7-1-8  108.75685250

 10- 3-11  107.72483356  10- 3-12  109.39225227  11- 3-12  109.27356926

 NUCLEAR CHARGE:                   41
 NUMBER OF PRIMITIVE AOS:         354
 NUMBER OF SYMMETRY AOS:          322
 NUMBER OF CONTRACTIONS:          248   ( 248A   )
 NUMBER OF CORE ORBITALS:           5   (   5A   )
 NUMBER OF VALENCE ORBITALS:       27   (  27A   )


 NUCLEAR REPULSION ENERGY  186.62866882


 Eigenvalues of metric

         1 0.807E-03 0.959E-03 0.110E-02 0.124E-02 0.136E-02 0.150E-02 0.160E-02 0.164E-02


 Contracted 2-electron integrals neglected if value below      1.0D-16
 AO integral compression algorithm  1   Integral accuracy      1.0D-16

     3371.696 MB (compressed) written to integral file ( 82.1%)

     Node minimum: 1034.945 MB, node maximum: 1222.377 MB


 NUMBER OF SORTED TWO-ELECTRON INTEGRALS:  158903334.     BUFFER LENGTH:  32768
 NUMBER OF SEGMENTS:  10  SEGMENT LENGTH:   15997437      RECORD LENGTH: 524288

 Memory used in sort:      16.55 MW

 SORT1 READ   513521257. AND WROTE   152617280. INTEGRALS IN    442 RECORDS. CPU TIME:    20.85 SEC, REAL TIME:    25.77 SEC
 SORT2 READ   459352349. AND WROTE   476679126. INTEGRALS IN  11844 RECORDS. CPU TIME:     2.18 SEC, REAL TIME:    21.50 SEC

 Node minimum:   158882750.  Node maximum:   158903334. integrals

 OPERATOR DM      FOR CENTER  0  COORDINATES:    0.000000    0.000000    0.000000


 **********************************************************************************************************************************
 DATASETS  * FILE   NREC   LENGTH (MB)   RECORD NAMES
              1      18        5.04       500      610      700      900      950      970     1000      129      960     1100   
                                          VAR    BASINP    GEOM    SYMINP    ZMAT    AOBASIS   BASIS     P2S    ABASIS      S 
                                         1400     1410     1200     1210     1080     1600     1650     1700   
                                           T        V       H0       H01     AOSYM     SMH    MOLCAS    OPER   

 PROGRAMS   *        TOTAL       INT
 CPU TIMES  *        31.70     31.59
 REAL TIME  *        56.79 SEC
 DISK USED  *         8.89 GB      
 GA USED    *         0.01 MB       (max)       0.00 MB       (current)
 **********************************************************************************************************************************

1PROGRAM * RHF-SCF (OPEN SHELL)       Authors: W. Meyer, H.-J. Werner


 NUMBER OF ELECTRONS:      21+   20-    SPACE SYMMETRY=1    SPIN SYMMETRY: Doublet 
 CONVERGENCE THRESHOLDS:    1.00E-10 (Density)    1.00E-11 (Energy)
 MAX. NUMBER OF ITERATIONS:      200
 INTERPOLATION TYPE:            DIIS
 INTERPOLATION STEPS:              2 (START)      1 (STEP)
 LEVEL SHIFTS:                 -0.30 (CLOSED)  0.00 (OPEN) 



 Orbital guess generated from atomic densities. Full valence occupancy:   32

 Molecular orbital dump at record        2100.2

 ITERATION    DDIFF          GRAD             ENERGY        2-EL.EN.            DIPOLE MOMENTS         DIIS
    1      0.000D+00      0.000D+00      -267.26103202    559.800980   -1.77316   -0.06742   -0.09775    0
    2      0.000D+00      0.326D-02      -267.33456587    562.650499   -1.01577   -0.43043   -0.35978    1
    3      0.471D-02      0.230D-02      -267.36108451    561.603564   -1.18900   -0.24214   -0.21731    2
    4      0.211D-02      0.546D-03      -267.36931923    561.790151   -0.97764   -0.31526   -0.29822    3
    5      0.926D-03      0.484D-03      -267.37353898    561.832633   -0.92219   -0.31744   -0.30236    4
    6      0.583D-03      0.271D-03      -267.37545927    561.799934   -0.88099   -0.31092   -0.30025    5
    7      0.484D-03      0.133D-03      -267.37579517    561.785773   -0.89089   -0.29939   -0.29214    6
    8      0.258D-03      0.355D-04      -267.37581691    561.783072   -0.89049   -0.29614   -0.29066    7
    9      0.842D-04      0.188D-04      -267.37582767    561.783305   -0.89302   -0.29667   -0.29071    8
   10      0.445D-04      0.819D-05      -267.37582947    561.783202   -0.89418   -0.29603   -0.29042    9
   11      0.199D-04      0.320D-05      -267.37582972    561.783145   -0.89481   -0.29588   -0.29025    9
   12      0.785D-05      0.148D-05      -267.37582978    561.783373   -0.89495   -0.29597   -0.29029    9
   13      0.370D-05      0.529D-06      -267.37582979    561.783425   -0.89496   -0.29603   -0.29032    9
   14      0.148D-05      0.302D-06      -267.37582979    561.783426   -0.89495   -0.29605   -0.29033    9
   15      0.831D-06      0.150D-06      -267.37582979    561.783432   -0.89494   -0.29605   -0.29033    9
   16      0.433D-06      0.757D-07      -267.37582979    561.783436   -0.89494   -0.29606   -0.29033    9
   17      0.195D-06      0.386D-07      -267.37582979    561.783431   -0.89493   -0.29606   -0.29033    9
   18      0.149D-06      0.260D-07      -267.37582979    561.783429   -0.89494   -0.29606   -0.29033    9
   19      0.101D-06      0.186D-07      -267.37582979    561.783432   -0.89494   -0.29606   -0.29033    9
   20      0.123D-06      0.153D-07      -267.37582979    561.783432   -0.89494   -0.29605   -0.29033    9
   21      0.153D-06      0.119D-07      -267.37582979    561.783432   -0.89493   -0.29605   -0.29033    9
   22      0.192D-06      0.843D-08      -267.37582979    561.783434   -0.89493   -0.29605   -0.29033    9
   23      0.166D-06      0.425D-08      -267.37582979    561.783435   -0.89493   -0.29605   -0.29033    9
   24      0.760D-07      0.242D-08      -267.37582979    561.783434   -0.89493   -0.29606   -0.29033    9
   25      0.255D-07      0.101D-08      -267.37582979    561.783435   -0.89493   -0.29606   -0.29033    9
   26      0.117D-07      0.450D-09      -267.37582979    561.783435   -0.89493   -0.29606   -0.29033    9
   27      0.122D-08      0.213D-09      -267.37582979    561.783435   -0.89493   -0.29606   -0.29033    9
   28      0.562D-09      0.105D-09      -267.37582979    561.783435   -0.89493   -0.29606   -0.29033    9
   29      0.555D-09      0.588D-10      -267.37582979    561.783435   -0.89493   -0.29606   -0.29033    9
   30      0.277D-09      0.295D-10      -267.37582979    561.783435   -0.89493   -0.29606   -0.29033    9
   31      0.859D-10      0.150D-10      -267.37582979    561.783435   -0.89493   -0.29606   -0.29033    9
   32      0.920D-10      0.154D-10      -267.37582979    561.783435   -0.89493   -0.29606   -0.29033    0

 Final alpha occupancy:  21
 Final beta  occupancy:  20

 !RHF STATE 1.1 Energy               -267.375829793896
 Nuclear energy                       186.62866882
 One-electron energy                 -734.89621602
 Two-electron energy                  280.89171741
 Virial quotient                       -1.00116625
 !RHF STATE 1.1 Dipole moment          -0.89493385    -0.29605514    -0.29032919
 Dipole moment /Debye                  -2.27454597    -0.75244783    -0.73789487

 Orbital energies:

         1.1          2.1          3.1          4.1          5.1          6.1          7.1          8.1          9.1         10.1
    -20.648695   -20.640448   -11.297463   -11.229102   -11.225453    -1.523603    -1.170843    -1.034601    -0.952845    -0.819461

        11.1         12.1         13.1         14.1         15.1         16.1         17.1         18.1         19.1         20.1
     -0.695334    -0.668132    -0.652249    -0.596045    -0.561612    -0.558824    -0.543798    -0.500826    -0.490432    -0.465164

        21.1         22.1         23.1
     -0.562918     0.137628     0.174535


 **********************************************************************************************************************************
 DATASETS  * FILE   NREC   LENGTH (MB)   RECORD NAMES
              1      18        5.04       500      610      700      900      950      970     1000      129      960     1100   
                                          VAR    BASINP    GEOM    SYMINP    ZMAT    AOBASIS   BASIS     P2S    ABASIS      S 
                                         1400     1410     1200     1210     1080     1600     1650     1700   
                                           T        V       H0       H01     AOSYM     SMH    MOLCAS    OPER   

              2       3        2.21       700     1000     2100   
                                         GEOM     BASIS     RHF  

 PROGRAMS   *        TOTAL       RHF       INT
 CPU TIMES  *        97.40     65.70     31.59
 REAL TIME  *       128.03 SEC
 DISK USED  *         8.94 GB      
 SF USED    *         0.25 MB      
 GA USED    *         0.01 MB       (max)       0.00 MB       (current)
 **********************************************************************************************************************************


1PROGRAM * CCSD (Unrestricted open-shell coupled cluster)     Authors: C. Hampel, H.-J. Werner, 1991, M. Deegan, P.J. Knowles, 1992


 Convergence thresholds:  THRVAR = 1.00D-08  THRDEN = 1.00D-10

 CCSD(T)     terms to be evaluated (factor= 1.000)


 Number of core orbitals:           5 (   5 )
 Number of closed-shell orbitals:  15 (  15 )
 Number of active  orbitals:        1 (   1 )
 Number of external orbitals:     227 ( 227 )

 Memory could be reduced to 332.02 Mwords without degradation in triples

 Number of N-1 electron functions:              31
 Number of N-2 electron functions:             465
 Number of singly external CSFs:              7068
 Number of doubly external CSFs:          18353430
 Total number of CSFs:                    18360498

 Molecular orbitals read from record     2100.2  Type=RHF/CANONICAL (state 1.1)

 Integral transformation finished. Total CPU:  48.48 sec, npass=  1  Memory used: 145.25 MW

 Starting RMP2 calculation

 ITER.      SQ.NORM     CORR.ENERGY   TOTAL ENERGY   ENERGY CHANGE        DEN1      VAR(S)    VAR(P)  DIIS     TIME
   1      1.26538567    -0.96763800  -268.34346779    -0.96763800    -0.00323689  0.26D-04  0.11D-02  1  1    54.92
   2      1.26817115    -0.97112812  -268.34695791    -0.00349012    -0.00000667  0.10D-05  0.23D-05  2  2    58.51
   3      1.26825113    -0.97118105  -268.34701084    -0.00005293    -0.00000008  0.54D-07  0.11D-07  3  3    63.22
   4      1.26825284    -0.97118086  -268.34701065     0.00000019    -0.00000000  0.16D-08  0.12D-09  4  4    68.01
   5      1.26825310    -0.97118095  -268.34701074    -0.00000009    -0.00000000  0.19D-10  0.46D-11  5  5    74.08
   6      1.26825315    -0.97118098  -268.34701077    -0.00000003    -0.00000000  0.49D-13  0.56D-13  6  6    79.07
   7      1.26825315    -0.97118098  -268.34701077     0.00000000    -0.00000000  0.15D-14  0.86D-15  6  1    84.03
   8      1.26825315    -0.97118098  -268.34701077     0.00000000    -0.00000000  0.15D-16  0.79D-17  6  2    88.54
   9      1.26825315    -0.97118098  -268.34701077    -0.00000000    -0.00000000  0.31D-18  0.10D-18  6  3    92.93

 Norm of t1 vector:      0.04589499      S-energy:    -0.00446794      T1 diagnostic:  0.00074402
 Norm of t2 vector:      0.51589418      P-energy:    -0.96671304
                                         Alpha-Beta:  -0.73710526
                                         Alpha-Alpha: -0.11899366
                                         Beta-Beta:   -0.11061412

 Spin contamination <S**2-Sz**2-Sz>     0.00145416
  Reference energy                   -267.375829793895
  RHF-RMP2 correlation energy          -0.971180978932
 !RHF-RMP2 energy                    -268.347010772827

 Starting UCCSD calculation

 ITER.      SQ.NORM     CORR.ENERGY   TOTAL ENERGY   ENERGY CHANGE        DEN1      VAR(S)    VAR(P)  DIIS     TIME
   1      1.27985303    -0.97929076  -268.35512055    -0.97929076    -0.02933421  0.65D-02  0.54D-02  1  1   202.08
   2      1.30626132    -1.00591781  -268.38174760    -0.02662705    -0.00363510  0.62D-03  0.97D-03  2  2   310.48
   3      1.32291213    -1.01274260  -268.38857240    -0.00682479    -0.00091212  0.75D-03  0.76D-04  3  3   419.07
   4      1.33415473    -1.01540263  -268.39123242    -0.00266003    -0.00038517  0.31D-03  0.33D-04  4  4   527.94
   5      1.34923158    -1.01740015  -268.39322994    -0.00199752    -0.00011788  0.10D-03  0.90D-05  5  5   646.39
   6      1.36076861    -1.01842367  -268.39425347    -0.00102353    -0.00001807  0.92D-05  0.32D-05  6  6   755.74
   7      1.36444774    -1.01866339  -268.39449318    -0.00023972    -0.00000315  0.16D-05  0.61D-06  6  1   865.31
   8      1.36505059    -1.01870545  -268.39453525    -0.00004206    -0.00000067  0.26D-06  0.15D-06  6  2   975.53
   9      1.36536990    -1.01872384  -268.39455363    -0.00001839    -0.00000015  0.66D-07  0.32D-07  6  4  1085.96
  10      1.36535600    -1.01872255  -268.39455234     0.00000129    -0.00000002  0.11D-07  0.43D-08  6  3  1195.53
  11      1.36541851    -1.01872765  -268.39455744    -0.00000510    -0.00000000  0.27D-08  0.95D-09  6  5  1358.07
  12      1.36541101    -1.01872517  -268.39455496     0.00000248    -0.00000000  0.13D-08  0.22D-09  6  6  1516.80
  13      1.36540662    -1.01872400  -268.39455380     0.00000116    -0.00000000  0.86D-09  0.65D-10  6  1  1625.88
  14      1.36539336    -1.01872245  -268.39455224     0.00000155    -0.00000000  0.61D-09  0.30D-10  6  2  1735.22
  15      1.36538661    -1.01872164  -268.39455144     0.00000081    -0.00000000  0.49D-09  0.24D-10  6  3  1845.59
  16      1.36538320    -1.01872147  -268.39455127     0.00000017    -0.00000000  0.34D-09  0.20D-10  6  4  1954.90
  17      1.36538312    -1.01872153  -268.39455133    -0.00000006    -0.00000000  0.15D-09  0.19D-10  6  5  2064.28
  18      1.36538698    -1.01872179  -268.39455158    -0.00000025    -0.00000000  0.30D-10  0.66D-11  6  6  2173.68
  19      1.36539050    -1.01872214  -268.39455193    -0.00000035    -0.00000000  0.27D-11  0.18D-11  6  2  2283.34
  20      1.36538993    -1.01872200  -268.39455179     0.00000014    -0.00000000  0.65D-12  0.18D-12  6  1  2392.62
  21      1.36539020    -1.01872204  -268.39455184    -0.00000004    -0.00000000  0.23D-12  0.63D-13  6  4  2502.06
  22      1.36539016    -1.01872204  -268.39455183     0.00000001    -0.00000000  0.67D-13  0.15D-13  6  3  2612.64
  23      1.36539018    -1.01872204  -268.39455184    -0.00000001    -0.00000000  0.19D-13  0.62D-14  6  6  2722.00
  24      1.36539018    -1.01872204  -268.39455184     0.00000000    -0.00000000  0.44D-14  0.11D-14  6  5  2831.50
  25      1.36539018    -1.01872204  -268.39455183     0.00000000    -0.00000000  0.94D-15  0.30D-15  6  1  2940.99
  26      1.36539020    -1.01872204  -268.39455184    -0.00000000    -0.00000000  0.15D-15  0.55D-16  6  2  3050.39
  27      1.36539020    -1.01872204  -268.39455184    -0.00000000    -0.00000000  0.46D-16  0.16D-16  6  3  3159.92
  28      1.36539020    -1.01872204  -268.39455184    -0.00000000    -0.00000000  0.14D-16  0.62D-17  6  4  3269.32
  29      1.36539020    -1.01872204  -268.39455184    -0.00000000    -0.00000000  0.32D-17  0.64D-18  6  6  3378.68
  30      1.36539020    -1.01872204  -268.39455184     0.00000000    -0.00000000  0.98D-18  0.27D-18  6  2  3488.00

 Norm of t1 vector:      0.23119905      S-energy:    -0.00501519      T1 diagnostic:  0.02848944
                                                                       D1 diagnostic:  0.14599978
 Norm of t2 vector:      0.55851338      P-energy:    -1.01370685
                                         Alpha-Beta:  -0.80139936
                                         Alpha-Alpha: -0.10868498
                                         Beta-Beta:   -0.10362251

 Singles amplitudes (print threshold =  0.500E-01):

         I         SYM. A    A   T(IA) [Beta-Beta]

         8         1         1     -0.09681122
         9         1         1      0.09643448
        11         1         1      0.05263791
        12         1         1     -0.07818962
        14         1         1     -0.11023276

 Spin contamination <S**2-Sz**2-Sz>     0.00176081

 Memory could be reduced to 360.52 Mwords without degradation in triples
 

 RESULTS
 =======

  Reference energy                   -267.375829793895
  UCCSD singles energy                 -0.005015194509
  UCCSD pair energy                    -1.013706848632
  UCCSD correlation energy             -1.018722043141
  Triples (T) contribution             -0.040838797039
  Total correlation energy             -1.059560840180
 
  RHF-UCCSD energy                   -268.394551837036
  RHF-UCCSD[T] energy                -268.438712487438
  RHF-UCCSD-T energy                 -268.434893048418
 !RHF-UCCSD(T) energy                -268.435390634076

 Program statistics:

 Available memory in ccsd:               999997692
 Min. memory needed in ccsd:              51505734
 Max. memory used in ccsd:                74803578
 Max. memory used in cckext:              59475747 (30 integral passes)
 Max. memory used in cckint:             145249478 ( 1 integral passes)



 **********************************************************************************************************************************
 DATASETS  * FILE   NREC   LENGTH (MB)   RECORD NAMES
              1      18        5.04       500      610      700      900      950      970     1000      129      960     1100   
                                          VAR    BASINP    GEOM    SYMINP    ZMAT    AOBASIS   BASIS     P2S    ABASIS      S 
                                         1400     1410     1200     1210     1080     1600     1650     1700   
                                           T        V       H0       H01     AOSYM     SMH    MOLCAS    OPER   

              2       3        2.21       700     1000     2100   
                                         GEOM     BASIS     RHF  

 PROGRAMS   *        TOTAL  UCCSD(T)       RHF       INT
 CPU TIMES  *      5646.16   5548.76     65.70     31.59
 REAL TIME  *      5796.36 SEC
 DISK USED  *        15.91 GB      
 SF USED    *         6.57 GB      
 GA USED    *         0.01 MB       (max)       0.00 MB       (current)
 **********************************************************************************************************************************

        UCCSD(T)        RHF-SCF 
   -268.43539063   -267.37582979
 **********************************************************************************************************************************
 Variable memory released
