
    -----------------------------------------------------------------------
          Psi4: An Open-Source Ab Initio Electronic Structure Package
                               Psi4 1.4a2.dev629 

                         Git: Rev {master} 2938fc2 dirty


    D. G. A. Smith, L. A. Burns, A. C. Simmonett, R. M. Parrish,
    M. C. Schieber, R. Galvelis, P. Kraus, H. Kruse, R. Di Remigio,
    A. Alenaizan, A. M. James, S. Lehtola, J. P. Misiewicz, M. Scheurer,
    R. A. Shaw, J. B. Schriber, Y. Xie, Z. L. Glick, D. A. Sirianni,
    J. S. O'Brien, J. M. Waldrop, A. Kumar, E. G. Hohenstein,
    B. P. Pritchard, B. R. Brooks, H. F. Schaefer III, A. Yu. Sokolov,
    K. Patkowski, A. E. DePrince III, U. Bozkaya, R. A. King,
    F. A. Evangelista, J. M. Turney, T. D. Crawford, C. D. Sherrill,
    J. Chem. Phys. 152(18) 184108 (2020). https://doi.org/10.1063/5.0006002

                            Additional Code Authors
    E. T. Seidl, C. L. Janssen, E. F. Valeev, M. L. Leininger,
    J. F. Gonthier, R. M. Richard, H. R. McAlexander, M. Saitow, X. Wang,
    P. Verma, and M. H. Lechner

             Previous Authors, Complete List of Code Contributors,
                       and Citations for Specific Modules
    https://github.com/psi4/psi4/blob/master/codemeta.json
    https://github.com/psi4/psi4/graphs/contributors
    http://psicode.org/psi4manual/master/introduction.html#citing-psifour

    -----------------------------------------------------------------------


    Psi4 started on: Wednesday, 21 September 2022 04:11PM

    Process ID: 111524
    Host:       n073
    PSIDATADIR: /opt/psi/4/master/share/psi4
    Memory:     500.0 MiB
    Threads:    1
    
  ==> Input File <==

--------------------------------------------------------------------------
# o-Benzyne preliminary computations

memory 14 gb

molecule {
  0 1
  units bohr
 C   -1.3756634992   -0.0241915408    0.0000003552
 O    1.3125735066    0.1228883948    0.0000002800
 H   -2.0783624866    1.9088836705   -0.0000799103
 H   -2.1107275171   -0.9799115510    1.6804779741
 H   -2.1107204701   -0.9800426607   -1.6804057849
 H    1.9391763064   -1.5777584328   -0.0000013240
  no_reorient
  no_com
}

set {
  basis 6-31g*
  reference rhf
  e_convergence 10 
  d_convergence 10
  r_convergence 8
  maxiter 300
  dft_spherical_points 1202
  dft_radial_points 99
  freeze_core True
}


#gradient('ccsd(t)')
gradient('b3lyp')
--------------------------------------------------------------------------

  Memory set to  13.039 GiB by Python driver.

Scratch directory: /tmp/
gradient() will perform analytic gradient computation.

*** tstart() called on n073
*** at Wed Sep 21 16:11:52 2022

   => Loading Basis Set <=

    Name: 6-31G*
    Role: ORBITAL
    Keyword: BASIS
    atoms 1   entry C          line   111 file /opt/psi/4/master/share/psi4/basis/6-31gs.gbs 
    atoms 2   entry O          line   145 file /opt/psi/4/master/share/psi4/basis/6-31gs.gbs 
    atoms 3-6 entry H          line    44 file /opt/psi/4/master/share/psi4/basis/6-31gs.gbs 


         ---------------------------------------------------------
                                   SCF
               by Justin Turney, Rob Parrish, Andy Simmonett
                          and Daniel G. A. Smith
                              RKS Reference
                        1 Threads,  13351 MiB Core
         ---------------------------------------------------------

  ==> Geometry <==

    Molecular point group: c1
    Full point group: C1

    Geometry (in Bohr), charge = 0, multiplicity = 1:

       Center              X                  Y                   Z               Mass       
    ------------   -----------------  -----------------  -----------------  -----------------
         C           -1.375663499200    -0.024191540800     0.000000355200    12.000000000000
         O            1.312573506600     0.122888394800     0.000000280000    15.994914619570
         H           -2.078362486600     1.908883670500    -0.000079910300     1.007825032230
         H           -2.110727517100    -0.979911551000     1.680477974100     1.007825032230
         H           -2.110720470100    -0.980042660700    -1.680405784900     1.007825032230
         H            1.939176306400    -1.577758432800    -0.000001324000     1.007825032230

  Running in c1 symmetry.

  Rotational constants: A =      4.28243  B =      0.82373  C =      0.79466 [cm^-1]
  Rotational constants: A = 128384.17097  B =  24694.90424  C =  23823.41122 [MHz]
  Nuclear repulsion =   40.254680332995591

  Charge       = 0
  Multiplicity = 1
  Electrons    = 18
  Nalpha       = 9
  Nbeta        = 9

  ==> Algorithm <==

  SCF Algorithm Type is DF.
  DIIS enabled.
  MOM disabled.
  Fractional occupation disabled.
  Guess Type is SAD.
  Energy threshold   = 1.00e-10
  Density threshold  = 1.00e-10
  Integral threshold = 0.00e+00

  ==> Primary Basis <==

  Basis Set: 6-31G*
    Blend: 6-31G*
    Number of shells: 20
    Number of basis function: 38
    Number of Cartesian functions: 38
    Spherical Harmonics?: false
    Max angular momentum: 2

  ==> DFT Potential <==

   => Composite Functional: B3LYP <= 

    B3LYP Hyb-GGA Exchange-Correlation Functional

    P. J. Stephens, F. J. Devlin, C. F. Chabalowski, and M. J. Frisch, J. Phys. Chem. 98, 11623 (1994)

    Deriv               =              1
    GGA                 =           TRUE
    Meta                =          FALSE

    Exchange Hybrid     =           TRUE
    MP2 Hybrid          =          FALSE

   => Exchange Functionals <=

    0.0800   Slater exchange
    0.7200         Becke 88

   => Exact (HF) Exchange <=

    0.2000               HF 

   => Correlation Functionals <=

    0.1900   Vosko, Wilk & Nusair (VWN5_RPA)
    0.8100   Lee, Yang & Parr

   => Molecular Quadrature <=

    Radial Scheme          =       TREUTLER
    Pruning Scheme         =           NONE
    Nuclear Scheme         =       TREUTLER

    BS radius alpha        =              1
    Pruning alpha          =              1
    Radial Points          =             99
    Spherical Points       =           1202
    Total Points           =         678851
    Total Blocks           =           4720
    Max Points             =            256
    Max Functions          =             38
    Weights Tolerance      =       1.00E-15

   => Loading Basis Set <=

    Name: (6-31G* AUX)
    Role: JKFIT
    Keyword: DF_BASIS_SCF
    atoms 1   entry C          line   121 file /opt/psi/4/master/share/psi4/basis/cc-pvdz-jkfit.gbs 
    atoms 2   entry O          line   221 file /opt/psi/4/master/share/psi4/basis/cc-pvdz-jkfit.gbs 
    atoms 3-6 entry H          line    51 file /opt/psi/4/master/share/psi4/basis/cc-pvdz-jkfit.gbs 

  ==> Integral Setup <==

  DFHelper Memory: AOs need 0.004 GiB; user supplied 9.070 GiB. Using in-core AOs.

  ==> MemDFJK: Density-Fitted J/K Matrices <==

    J tasked:                   Yes
    K tasked:                   Yes
    wK tasked:                   No
    OpenMP threads:               1
    Memory [MiB]:              9287
    Algorithm:                 Core
    Schwarz Cutoff:           1E-12
    Mask sparsity (%):       0.0000
    Fitting Condition:        1E-10

   => Auxiliary Basis Set <=

  Basis Set: (6-31G* AUX)
    Blend: CC-PVDZ-JKFIT
    Number of shells: 84
    Number of basis function: 262
    Number of Cartesian functions: 262
    Spherical Harmonics?: false
    Max angular momentum: 3

  Cached 100.0% of DFT collocation blocks in 0.709 [GiB].

  Minimum eigenvalue in the overlap matrix is 9.8072845125E-03.
  Reciprocal condition number of the overlap matrix is 1.6361952315E-03.
    Using symmetric orthogonalization.

  ==> Pre-Iterations <==

  SCF Guess: Superposition of Atomic Densities via on-the-fly atomic UHF (no occupation information).

   -------------------------
    Irrep   Nso     Nmo    
   -------------------------
     A         38      38 
   -------------------------
    Total      38      38
   -------------------------

  ==> Iterations <==

                           Total Energy        Delta E     RMS |[F,P]|

   @DF-RKS iter SAD:  -115.27206329695402   -1.15272e+02   0.00000e+00 
   @DF-RKS iter   1:  -115.54999859286161   -2.77935e-01   1.60624e-02 DIIS
   @DF-RKS iter   2:  -115.45181353427894    9.81851e-02   2.10169e-02 DIIS
   @DF-RKS iter   3:  -115.71148813533941   -2.59675e-01   2.15644e-03 DIIS
   @DF-RKS iter   4:  -115.71398653473774   -2.49840e-03   6.72648e-04 DIIS
   @DF-RKS iter   5:  -115.71425306797804   -2.66533e-04   8.13075e-05 DIIS
   @DF-RKS iter   6:  -115.71425696335587   -3.89538e-06   8.55185e-06 DIIS
   @DF-RKS iter   7:  -115.71425700966930   -4.63134e-08   7.69860e-07 DIIS
   @DF-RKS iter   8:  -115.71425701007976   -4.10466e-10   1.07261e-07 DIIS
   @DF-RKS iter   9:  -115.71425701008796   -8.19966e-12   2.04822e-08 DIIS
   @DF-RKS iter  10:  -115.71425701008809   -1.27898e-13   1.35553e-09 DIIS
   @DF-RKS iter  11:  -115.71425701008828   -1.84741e-13   1.19702e-10 DIIS
   @DF-RKS iter  12:  -115.71425701008826    1.42109e-14   2.23753e-11 DIIS
  Energy and wave function converged.


  ==> Post-Iterations <==

    Orbital Energies [Eh]
    ---------------------

    Doubly Occupied:                                                      

       1A    -19.138589     2A    -10.223251     3A     -1.010430  
       4A     -0.680338     5A     -0.502020     6A     -0.435236  
       7A     -0.419228     8A     -0.331439     9A     -0.264616  

    Virtual:                                                              

      10A      0.077252    11A      0.132292    12A      0.168251  
      13A      0.176400    14A      0.204153    15A      0.532451  
      16A      0.566154    17A      0.575005    18A      0.792686  
      19A      0.853620    20A      0.872720    21A      0.906826  
      22A      0.955942    23A      0.977002    24A      1.025905  
      25A      1.115075    26A      1.461766    27A      1.502066  
      28A      1.584099    29A      1.744916    30A      2.037477  
      31A      2.115626    32A      2.135358    33A      2.348160  
      34A      2.399190    35A      2.456892    36A      2.792621  
      37A      3.697415    38A      4.217194  

    Final Occupation by Irrep:
              A 
    DOCC [     9 ]

  @DF-RKS Final Energy:  -115.71425701008826

   => Energetics <=

    Nuclear Repulsion Energy =             40.2546803329955907
    One-Electron Energy =                -236.9104068041976348
    Two-Electron Energy =                  93.4928267311210277
    DFT Exchange-Correlation Energy =     -12.5513572700072285
    Empirical Dispersion Energy =           0.0000000000000000
    VV10 Nonlocal Energy =                  0.0000000000000000
    Total Energy =                       -115.7142570100882608

Computation Completed


Properties will be evaluated at   0.000000,   0.000000,   0.000000 [a0]

Properties computed using the SCF density matrix

  Nuclear Dipole Moment: [e a0]
     X:    -2.1140      Y:    -0.7909      Z:    -0.0000

  Electronic Dipole Moment: [e a0]
     X:     1.7745      Y:     0.2059      Z:     0.0000

  Dipole Moment: [e a0]
     X:    -0.3395      Y:    -0.5849      Z:    -0.0000     Total:     0.6763

  Dipole Moment: [D]
     X:    -0.8630      Y:    -1.4868      Z:    -0.0000     Total:     1.7191


*** tstop() called on n073 at Wed Sep 21 16:12:09 2022
Module time:
	user time   =      16.81 seconds =       0.28 minutes
	system time =       0.27 seconds =       0.00 minutes
	total time  =         17 seconds =       0.28 minutes
Total time:
	user time   =      16.81 seconds =       0.28 minutes
	system time =       0.27 seconds =       0.00 minutes
	total time  =         17 seconds =       0.28 minutes

*** tstart() called on n073
*** at Wed Sep 21 16:12:09 2022


         ------------------------------------------------------------
                                   SCF GRAD                          
                          Rob Parrish, Justin Turney,                
                       Andy Simmonett, and Alex Sokolov              
         ------------------------------------------------------------

  ==> Geometry <==

    Molecular point group: c1
    Full point group: C1

    Geometry (in Bohr), charge = 0, multiplicity = 1:

       Center              X                  Y                   Z               Mass       
    ------------   -----------------  -----------------  -----------------  -----------------
         C           -1.375663499200    -0.024191540800     0.000000355200    12.000000000000
         O            1.312573506600     0.122888394800     0.000000280000    15.994914619570
         H           -2.078362486600     1.908883670500    -0.000079910300     1.007825032230
         H           -2.110727517100    -0.979911551000     1.680477974100     1.007825032230
         H           -2.110720470100    -0.980042660700    -1.680405784900     1.007825032230
         H            1.939176306400    -1.577758432800    -0.000001324000     1.007825032230

  Nuclear repulsion =   40.254680332995591

  ==> Basis Set <==

  Basis Set: 6-31G*
    Blend: 6-31G*
    Number of shells: 20
    Number of basis function: 38
    Number of Cartesian functions: 38
    Spherical Harmonics?: false
    Max angular momentum: 2

  ==> DFJKGrad: Density-Fitted SCF Gradients <==

    Gradient:                    1
    J tasked:                  Yes
    K tasked:                  Yes
    wK tasked:                  No
    OpenMP threads:              1
    Integrals threads:           1
    Memory [MiB]:            10013
    Schwarz Cutoff:          0E+00
    Fitting Condition:       1E-10

   => Auxiliary Basis Set <=

  Basis Set: (6-31G* AUX)
    Blend: CC-PVDZ-JKFIT
    Number of shells: 84
    Number of basis function: 262
    Number of Cartesian functions: 262
    Spherical Harmonics?: false
    Max angular momentum: 3

  ==> DFT Potential <==

   => Composite Functional: B3LYP <= 

    B3LYP Hyb-GGA Exchange-Correlation Functional

    P. J. Stephens, F. J. Devlin, C. F. Chabalowski, and M. J. Frisch, J. Phys. Chem. 98, 11623 (1994)

    Deriv               =              1
    GGA                 =           TRUE
    Meta                =          FALSE

    Exchange Hybrid     =           TRUE
    MP2 Hybrid          =          FALSE

   => Exchange Functionals <=

    0.0800   Slater exchange
    0.7200         Becke 88

   => Exact (HF) Exchange <=

    0.2000               HF 

   => Correlation Functionals <=

    0.1900   Vosko, Wilk & Nusair (VWN5_RPA)
    0.8100   Lee, Yang & Parr

   => Molecular Quadrature <=

    Radial Scheme          =       TREUTLER
    Pruning Scheme         =           NONE
    Nuclear Scheme         =       TREUTLER

    BS radius alpha        =              1
    Pruning alpha          =              1
    Radial Points          =             99
    Spherical Points       =           1202
    Total Points           =         678851
    Total Blocks           =           4720
    Max Points             =            256
    Max Functions          =             38
    Weights Tolerance      =       1.00E-15


  -Total Gradient:
     Atom            X                  Y                   Z
    ------   -----------------  -----------------  -----------------
       1       -0.006843037483    -0.000771471262     0.000000235013
       2        0.006569193517    -0.008550331766     0.000000247877
       3        0.000804521299    -0.003068106851    -0.000000081923
       4        0.001783951252     0.001822457365    -0.003169468331
       5        0.001783901139     0.001822686889     0.003169286475
       6       -0.004098603103     0.008744827924    -0.000000219114


*** tstop() called on n073 at Wed Sep 21 16:12:12 2022
Module time:
	user time   =       2.82 seconds =       0.05 minutes
	system time =       0.00 seconds =       0.00 minutes
	total time  =          3 seconds =       0.05 minutes
Total time:
	user time   =      19.63 seconds =       0.33 minutes
	system time =       0.27 seconds =       0.00 minutes
	total time  =         20 seconds =       0.33 minutes

    Psi4 stopped on: Wednesday, 21 September 2022 04:12PM
    Psi4 wall time for execution: 0:00:19.92

*** Psi4 exiting successfully. Buy a developer a beer!
