
    -----------------------------------------------------------------------
          Psi4: An Open-Source Ab Initio Electronic Structure Package
                               Psi4 1.4a2.dev629 

                         Git: Rev {master} 2938fc2 dirty


    D. G. A. Smith, L. A. Burns, A. C. Simmonett, R. M. Parrish,
    M. C. Schieber, R. Galvelis, P. Kraus, H. Kruse, R. Di Remigio,
    A. Alenaizan, A. M. James, S. Lehtola, J. P. Misiewicz, M. Scheurer,
    R. A. Shaw, J. B. Schriber, Y. Xie, Z. L. Glick, D. A. Sirianni,
    J. S. O'Brien, J. M. Waldrop, A. Kumar, E. G. Hohenstein,
    B. P. Pritchard, B. R. Brooks, H. F. Schaefer III, A. Yu. Sokolov,
    K. Patkowski, A. E. DePrince III, U. Bozkaya, R. A. King,
    F. A. Evangelista, J. M. Turney, T. D. Crawford, C. D. Sherrill,
    J. Chem. Phys. 152(18) 184108 (2020). https://doi.org/10.1063/5.0006002

                            Additional Code Authors
    E. T. Seidl, C. L. Janssen, E. F. Valeev, M. L. Leininger,
    J. F. Gonthier, R. M. Richard, H. R. McAlexander, M. Saitow, X. Wang,
    P. Verma, and M. H. Lechner

             Previous Authors, Complete List of Code Contributors,
                       and Citations for Specific Modules
    https://github.com/psi4/psi4/blob/master/codemeta.json
    https://github.com/psi4/psi4/graphs/contributors
    http://psicode.org/psi4manual/master/introduction.html#citing-psifour

    -----------------------------------------------------------------------


    Psi4 started on: Wednesday, 21 September 2022 04:08PM

    Process ID: 86687
    Host:       n071
    PSIDATADIR: /opt/psi/4/master/share/psi4
    Memory:     500.0 MiB
    Threads:    1
    
  ==> Input File <==

--------------------------------------------------------------------------
# o-Benzyne preliminary computations

memory 14 gb

molecule {
  0 1
  units bohr
 C   -1.3750809947   -0.0242807529    0.0027229267
 O    1.3060133026    0.1207018536   -0.0009024060
 H   -2.0778686528    1.9096098373   -0.0010069597
 H   -2.1090799446   -0.9796233596    1.6814323181
 H   -2.1088818489   -0.9790482911   -1.6824485498
 H    1.9411739784   -1.5774914074    0.0001942606
  no_reorient
  no_com
}

set {
  basis 6-31g*
  reference rhf
  e_convergence 10 
  d_convergence 10
  r_convergence 8
  maxiter 300
  dft_spherical_points 1202
  dft_radial_points 99
  freeze_core True
}


#gradient('ccsd(t)')
gradient('b3lyp')
--------------------------------------------------------------------------

  Memory set to  13.039 GiB by Python driver.

Scratch directory: /tmp/
gradient() will perform analytic gradient computation.

*** tstart() called on n071
*** at Wed Sep 21 16:08:41 2022

   => Loading Basis Set <=

    Name: 6-31G*
    Role: ORBITAL
    Keyword: BASIS
    atoms 1   entry C          line   111 file /opt/psi/4/master/share/psi4/basis/6-31gs.gbs 
    atoms 2   entry O          line   145 file /opt/psi/4/master/share/psi4/basis/6-31gs.gbs 
    atoms 3-6 entry H          line    44 file /opt/psi/4/master/share/psi4/basis/6-31gs.gbs 


         ---------------------------------------------------------
                                   SCF
               by Justin Turney, Rob Parrish, Andy Simmonett
                          and Daniel G. A. Smith
                              RKS Reference
                        1 Threads,  13351 MiB Core
         ---------------------------------------------------------

  ==> Geometry <==

    Molecular point group: c1
    Full point group: C1

    Geometry (in Bohr), charge = 0, multiplicity = 1:

       Center              X                  Y                   Z               Mass       
    ------------   -----------------  -----------------  -----------------  -----------------
         C           -1.375080994700    -0.024280752900     0.002722926700    12.000000000000
         O            1.306013302600     0.120701853600    -0.000902406000    15.994914619570
         H           -2.077868652800     1.909609837300    -0.001006959700     1.007825032230
         H           -2.109079944600    -0.979623359600     1.681432318100     1.007825032230
         H           -2.108881848900    -0.979048291100    -1.682448549800     1.007825032230
         H            1.941173978400    -1.577491407400     0.000194260600     1.007825032230

  Running in c1 symmetry.

  Rotational constants: A =      4.28206  B =      0.82705  C =      0.79795 [cm^-1]
  Rotational constants: A = 128372.99906  B =  24794.27675  C =  23921.95571 [MHz]
  Nuclear repulsion =   40.307723970799479

  Charge       = 0
  Multiplicity = 1
  Electrons    = 18
  Nalpha       = 9
  Nbeta        = 9

  ==> Algorithm <==

  SCF Algorithm Type is DF.
  DIIS enabled.
  MOM disabled.
  Fractional occupation disabled.
  Guess Type is SAD.
  Energy threshold   = 1.00e-10
  Density threshold  = 1.00e-10
  Integral threshold = 0.00e+00

  ==> Primary Basis <==

  Basis Set: 6-31G*
    Blend: 6-31G*
    Number of shells: 20
    Number of basis function: 38
    Number of Cartesian functions: 38
    Spherical Harmonics?: false
    Max angular momentum: 2

  ==> DFT Potential <==

   => Composite Functional: B3LYP <= 

    B3LYP Hyb-GGA Exchange-Correlation Functional

    P. J. Stephens, F. J. Devlin, C. F. Chabalowski, and M. J. Frisch, J. Phys. Chem. 98, 11623 (1994)

    Deriv               =              1
    GGA                 =           TRUE
    Meta                =          FALSE

    Exchange Hybrid     =           TRUE
    MP2 Hybrid          =          FALSE

   => Exchange Functionals <=

    0.0800   Slater exchange
    0.7200         Becke 88

   => Exact (HF) Exchange <=

    0.2000               HF 

   => Correlation Functionals <=

    0.1900   Vosko, Wilk & Nusair (VWN5_RPA)
    0.8100   Lee, Yang & Parr

   => Molecular Quadrature <=

    Radial Scheme          =       TREUTLER
    Pruning Scheme         =           NONE
    Nuclear Scheme         =       TREUTLER

    BS radius alpha        =              1
    Pruning alpha          =              1
    Radial Points          =             99
    Spherical Points       =           1202
    Total Points           =         678834
    Total Blocks           =           4713
    Max Points             =            256
    Max Functions          =             38
    Weights Tolerance      =       1.00E-15

   => Loading Basis Set <=

    Name: (6-31G* AUX)
    Role: JKFIT
    Keyword: DF_BASIS_SCF
    atoms 1   entry C          line   121 file /opt/psi/4/master/share/psi4/basis/cc-pvdz-jkfit.gbs 
    atoms 2   entry O          line   221 file /opt/psi/4/master/share/psi4/basis/cc-pvdz-jkfit.gbs 
    atoms 3-6 entry H          line    51 file /opt/psi/4/master/share/psi4/basis/cc-pvdz-jkfit.gbs 

  ==> Integral Setup <==

  DFHelper Memory: AOs need 0.004 GiB; user supplied 9.070 GiB. Using in-core AOs.

  ==> MemDFJK: Density-Fitted J/K Matrices <==

    J tasked:                   Yes
    K tasked:                   Yes
    wK tasked:                   No
    OpenMP threads:               1
    Memory [MiB]:              9287
    Algorithm:                 Core
    Schwarz Cutoff:           1E-12
    Mask sparsity (%):       0.0000
    Fitting Condition:        1E-10

   => Auxiliary Basis Set <=

  Basis Set: (6-31G* AUX)
    Blend: CC-PVDZ-JKFIT
    Number of shells: 84
    Number of basis function: 262
    Number of Cartesian functions: 262
    Spherical Harmonics?: false
    Max angular momentum: 3

  Cached 100.0% of DFT collocation blocks in 0.709 [GiB].

  Minimum eigenvalue in the overlap matrix is 9.7432086597E-03.
  Reciprocal condition number of the overlap matrix is 1.6240613101E-03.
    Using symmetric orthogonalization.

  ==> Pre-Iterations <==

  SCF Guess: Superposition of Atomic Densities via on-the-fly atomic UHF (no occupation information).

   -------------------------
    Irrep   Nso     Nmo    
   -------------------------
     A         38      38 
   -------------------------
    Total      38      38
   -------------------------

  ==> Iterations <==

                           Total Energy        Delta E     RMS |[F,P]|

   @DF-RKS iter SAD:  -115.27626076276131   -1.15276e+02   0.00000e+00 
   @DF-RKS iter   1:  -115.54947528205233   -2.73215e-01   1.60898e-02 DIIS
   @DF-RKS iter   2:  -115.45059100370872    9.88843e-02   2.10646e-02 DIIS
   @DF-RKS iter   3:  -115.71155311183861   -2.60962e-01   2.14119e-03 DIIS
   @DF-RKS iter   4:  -115.71400907557491   -2.45596e-03   6.73080e-04 DIIS
   @DF-RKS iter   5:  -115.71427574029924   -2.66665e-04   8.12150e-05 DIIS
   @DF-RKS iter   6:  -115.71427962193420   -3.88163e-06   8.53664e-06 DIIS
   @DF-RKS iter   7:  -115.71427966814754   -4.62133e-08   7.68779e-07 DIIS
   @DF-RKS iter   8:  -115.71427966855657   -4.09031e-10   1.06882e-07 DIIS
   @DF-RKS iter   9:  -115.71427966856453   -7.95808e-12   2.04684e-08 DIIS
   @DF-RKS iter  10:  -115.71427966856486   -3.26850e-13   1.33837e-09 DIIS
   @DF-RKS iter  11:  -115.71427966856474    1.13687e-13   1.18257e-10 DIIS
   @DF-RKS iter  12:  -115.71427966856490   -1.56319e-13   2.21887e-11 DIIS
  Energy and wave function converged.


  ==> Post-Iterations <==

    Orbital Energies [Eh]
    ---------------------

    Doubly Occupied:                                                      

       1A    -19.138431     2A    -10.223062     3A     -1.011278  
       4A     -0.680168     5A     -0.502600     6A     -0.435614  
       7A     -0.419719     8A     -0.330661     9A     -0.264415  

    Virtual:                                                              

      10A      0.077237    11A      0.132556    12A      0.168427  
      13A      0.176579    14A      0.205407    15A      0.533669  
      16A      0.566218    17A      0.575500    18A      0.791885  
      19A      0.853645    20A      0.872699    21A      0.906859  
      22A      0.955947    23A      0.976897    24A      1.025405  
      25A      1.115546    26A      1.462205    27A      1.501966  
      28A      1.585752    29A      1.744453    30A      2.042060  
      31A      2.115491    32A      2.137299    33A      2.350905  
      34A      2.401480    35A      2.457291    36A      2.793970  
      37A      3.699472    38A      4.216950  

    Final Occupation by Irrep:
              A 
    DOCC [     9 ]

  @DF-RKS Final Energy:  -115.71427966856490

   => Energetics <=

    Nuclear Repulsion Energy =             40.3077239707994792
    One-Electron Energy =                -237.0142353094819043
    Two-Electron Energy =                  93.5446461854340896
    DFT Exchange-Correlation Energy =     -12.5524145153165634
    Empirical Dispersion Energy =           0.0000000000000000
    VV10 Nonlocal Energy =                  0.0000000000000000
    Total Energy =                       -115.7142796685648989

Computation Completed


Properties will be evaluated at   0.000000,   0.000000,   0.000000 [a0]

Properties computed using the SCF density matrix

  Nuclear Dipole Moment: [e a0]
     X:    -2.1570      Y:    -0.8066      Z:     0.0073

  Electronic Dipole Moment: [e a0]
     X:     1.8244      Y:     0.2226      Z:    -0.0056

  Dipole Moment: [e a0]
     X:    -0.3327      Y:    -0.5841      Z:     0.0017     Total:     0.6721

  Dipole Moment: [D]
     X:    -0.8455      Y:    -1.4845      Z:     0.0044     Total:     1.7084


*** tstop() called on n071 at Wed Sep 21 16:08:59 2022
Module time:
	user time   =      17.96 seconds =       0.30 minutes
	system time =       0.34 seconds =       0.01 minutes
	total time  =         18 seconds =       0.30 minutes
Total time:
	user time   =      17.96 seconds =       0.30 minutes
	system time =       0.34 seconds =       0.01 minutes
	total time  =         18 seconds =       0.30 minutes

*** tstart() called on n071
*** at Wed Sep 21 16:08:59 2022


         ------------------------------------------------------------
                                   SCF GRAD                          
                          Rob Parrish, Justin Turney,                
                       Andy Simmonett, and Alex Sokolov              
         ------------------------------------------------------------

  ==> Geometry <==

    Molecular point group: c1
    Full point group: C1

    Geometry (in Bohr), charge = 0, multiplicity = 1:

       Center              X                  Y                   Z               Mass       
    ------------   -----------------  -----------------  -----------------  -----------------
         C           -1.375080994700    -0.024280752900     0.002722926700    12.000000000000
         O            1.306013302600     0.120701853600    -0.000902406000    15.994914619570
         H           -2.077868652800     1.909609837300    -0.001006959700     1.007825032230
         H           -2.109079944600    -0.979623359600     1.681432318100     1.007825032230
         H           -2.108881848900    -0.979048291100    -1.682448549800     1.007825032230
         H            1.941173978400    -1.577491407400     0.000194260600     1.007825032230

  Nuclear repulsion =   40.307723970799479

  ==> Basis Set <==

  Basis Set: 6-31G*
    Blend: 6-31G*
    Number of shells: 20
    Number of basis function: 38
    Number of Cartesian functions: 38
    Spherical Harmonics?: false
    Max angular momentum: 2

  ==> DFJKGrad: Density-Fitted SCF Gradients <==

    Gradient:                    1
    J tasked:                  Yes
    K tasked:                  Yes
    wK tasked:                  No
    OpenMP threads:              1
    Integrals threads:           1
    Memory [MiB]:            10013
    Schwarz Cutoff:          0E+00
    Fitting Condition:       1E-10

   => Auxiliary Basis Set <=

  Basis Set: (6-31G* AUX)
    Blend: CC-PVDZ-JKFIT
    Number of shells: 84
    Number of basis function: 262
    Number of Cartesian functions: 262
    Spherical Harmonics?: false
    Max angular momentum: 3

  ==> DFT Potential <==

   => Composite Functional: B3LYP <= 

    B3LYP Hyb-GGA Exchange-Correlation Functional

    P. J. Stephens, F. J. Devlin, C. F. Chabalowski, and M. J. Frisch, J. Phys. Chem. 98, 11623 (1994)

    Deriv               =              1
    GGA                 =           TRUE
    Meta                =          FALSE

    Exchange Hybrid     =           TRUE
    MP2 Hybrid          =          FALSE

   => Exchange Functionals <=

    0.0800   Slater exchange
    0.7200         Becke 88

   => Exact (HF) Exchange <=

    0.2000               HF 

   => Correlation Functionals <=

    0.1900   Vosko, Wilk & Nusair (VWN5_RPA)
    0.8100   Lee, Yang & Parr

   => Molecular Quadrature <=

    Radial Scheme          =       TREUTLER
    Pruning Scheme         =           NONE
    Nuclear Scheme         =       TREUTLER

    BS radius alpha        =              1
    Pruning alpha          =              1
    Radial Points          =             99
    Spherical Points       =           1202
    Total Points           =         678834
    Total Blocks           =           4713
    Max Points             =            256
    Max Functions          =             38
    Weights Tolerance      =       1.00E-15


  -Total Gradient:
     Atom            X                  Y                   Z
    ------   -----------------  -----------------  -----------------
       1       -0.005175650272    -0.000464730847     0.001855925581
       2        0.003764548551    -0.008759448499    -0.000226796499
       3        0.000800221499    -0.002844622244    -0.000209585334
       4        0.002278878471     0.002107606256    -0.003663860710
       5        0.001929256122     0.001565286497     0.002247948758
       6       -0.003597339483     0.008395973818    -0.000003631667


*** tstop() called on n071 at Wed Sep 21 16:09:03 2022
Module time:
	user time   =       3.13 seconds =       0.05 minutes
	system time =       0.01 seconds =       0.00 minutes
	total time  =          4 seconds =       0.07 minutes
Total time:
	user time   =      21.09 seconds =       0.35 minutes
	system time =       0.35 seconds =       0.01 minutes
	total time  =         22 seconds =       0.37 minutes

    Psi4 stopped on: Wednesday, 21 September 2022 04:09PM
    Psi4 wall time for execution: 0:00:21.48

*** Psi4 exiting successfully. Buy a developer a beer!
