 --invoking executable--
/opt/vulcan/opt/vulcan/linux-x86_64/intel-13.0.0/cfour-2.0-yhj426etc3g7hslvbmpgvdymp2w76rob/bin/xjoda


   *************************************************************************
         <<<     CCCCCC     CCCCCC   |||     CCCCCC     CCCCCC   >>>
       <<<      CCC        CCC       |||    CCC        CCC         >>>
      <<<      CCC        CCC        |||   CCC        CCC            >>>
    <<<        CCC        CCC        |||   CCC        CCC              >>>
      <<<      CCC        CCC        |||   CCC        CCC            >>>
       <<<      CCC        CCC       |||    CCC        CCC         >>>
         <<<     CCCCCC     CCCCCC   |||     CCCCCC     CCCCCC   >>>
   *************************************************************************

     ****************************************************************
     * CFOUR Coupled-Cluster techniques for Computational Chemistry *
     ****************************************************************
 

   Department of Chemistry                Institut fuer Physikalische Chemie
   University of Texas at Austin          Universitaet Mainz
   Austin, TX  78712, USA                 D-55099 Mainz, Germany
 
                       Version 1.2
 
                     n044                                              
                     Fri Jul 31 11:07:02 EDT 2020                      
                     integer*8 version is running
 
********************************************************************************
*                          Input from ZMAT file                                *
********************************************************************************
MIN4                                                                            
C                                                                               
O 1 R1                                                                          
H 1 R2 2 A2                                                                     
H 1 R3 2 A3 3 D3                                                                
H 1 R3 2 A3 3 D4                                                                
H 2 R5 1 A5 3 D5                                                                
                                                                                
R1   =        2.682490403875129                                                 
R2   =        2.084572254910686                                                 
A2   =      107.049589779782039                                                 
R3   =        2.098158588044278                                                 
A3   =      112.811318093828362                                                 
D3   =     -118.504553514300724                                                 
D4   =      118.502680802215778                                                 
R5   =        1.825505308732492                                                 
A5   =      106.315848779492711                                                 
D5   =     -179.980717779928312                                                 
                                                                                
*CFOUR(REF=RHF                                                                  
       CALC=CCSD(T)                                                             
       VIB=ANALYTIC                                                             
       BASIS=cc-pVDZ                                                            
       ORB=SEMICANONICAL                                                        
       UNITS=BOHR                                                               
       MEMORY=7                                                                 
       MEM_UNIT=GB                                                              
       SCF_CONV=9                                                               
       CC_CONV=6                                                                
       CHARGE=0                                                                 
       MULT=1)                                                                  
                                                                                
********************************************************************************
    -------------------------------------------------------------------
                    CFOUR Control Parameters 
    -------------------------------------------------------------------
        External           Internal           Value            Units
          Name               Name
    -------------------------------------------------------------------
       ABCDTYPE             IABCDT         STANDARD     [  0]   ***   
       ANHARMONIC           IANHAR         OFF          [  0]   ***   
       ANH_ALGORIT          IANALG         STANDARD     [  0]   ***   
       ANH_DERIVAT          IANDER         SECOND       [  1]   ***   
       ANH_STEPSIZ          ICUBST             50000          x 10-6  
       ANH_SYMMETR          IANHSM         ABELIAN      [  0]   ***   
       AO_LADDERS           IAOLAD         SINGLEPASS   [  1]   ***   
       AV_SCF               IAVSCF         OFF          [  0]   ***   
       BASIS                IBASIS         PVDZ         [ 13]   ***   
       BOTHVECTORS          BOTHVC         OFF          [  0]   ***   
       BOX_POTENT           IPIAB          OFF          [  0]   ***   
       BREIT                IBREIT         OFF          [  0]   ***   
       BRUCK_CONV           IBRTOL          10D-  4             ***   
       BRUECKNER            IBRKNR             OFF      [  0]   ***   
       BUFFERSIZE           IBUFFS            600               ***   
       CACHE_RECS           ICHREC             10               ***   
       CALCLEVEL            ICLLVL           CCSD(T)    [ 22]   ***   
       CCORBOPT             ICCORB             OFF      [  0] x 0.01  
       CC_CONV              ICCCNV          10D-  6             ***   
       CC_EXPORDER          ICCEOR              5               ***   
       CC_EXTRAPOL          ICCEXT             DIIS     [  1]   ***   
       CC_GUESS             ICCGES         MP2          [  0]   ***   
       CC_MAXCYC            ICCCYC            100              cycles 
       CC_PROGRAM           ICCPRO         VCC          [  0]   ***   
       CHARGE               ICHRGE              0               ***   
       CHOLESKY             ICHOLE         OFF          [  0]   ***   
       CIS_CONV             ICISTL              5               ***   
       COMM_SIZE            IPSIZE            ***               ***   
       CONSTANT             ICONST         OLD          [  1]   ***   
       CONTINUUM            ICONTU         NONE         [  0]   ***   
       CONTRACTION          ICNTYP          GENERAL     [  1]   ***   
       COORDINATES          ICOORD         INTERNAL     [  0]   ***   
       CPHF_CONVER          ICPHFT          10D- 16             ***   
       CPHF_MAXCYC          ICPHFC             64              cycles 
       CUBIC                ICUBIC         OFF          [  0]   ***   
       CURVILINEAR          ICURVY            OFF       [  0]   ***   
       D3_ISOTRANS          D3ISOT         OFF          [  0]   ***   
       DBOC                 IDBOC          OFF          [  0]   ***   
       DCT                  IDCT           OFF          [  0]   ***   
       DERIV_LEV            IDRLVL            SECOND    [  2]   ***   
       DEVMEM_SIZE          IDVMEM         *********           MByte  
       DIAG_MRCC            IEOMST          10D-  0             ***   
       DIFF_TYPE            IDIFTY         RELAXED      [  0]   ***   
       DIRECT               IDIRCT         OFF          [  0]   ***   
       DROPMO               IDRPMO      NONE         
       ECP                  IECP           OFF          [  0]   ***   
       EIGENVECTOR          IVEC                1               ***   
       EL_ANHARM            IELANH         OFF          [  0]   ***   
       EOMFOLLOW            IEOMSR         ENERGY       [  0]   ***   
       EOMIP                IEOMIP         OFF          [  0]   ***   
       EOM_MRCC             IMRCCE         NEW          [  1]   ***   
       EOM_NONIT            EOMNON         OFF          [  0]   ***   
       EOM_NSING            IEOMSI          10D-  0             ***   
       EOM_NSTATES          IMRCCD         DAVIDSON     [  0]   ***   
       EOM_NTRIP            IEOMTR          10D-  0             ***   
       EOM_ORDER            IEXORD         ENERGY       [  0]   ***   
       EOM_PROPSTA          IEOMST              0               ***   
       ESTATE_CONV          IEXTOL          10D-  5             ***   
       ESTATE_DIAG          IEXDIG         ITERATIVE    [  0]   ***   
       ESTATE_LOCK          IESLOC         ON           [  1]   ***   
       ESTATE_MAXC          IEXMXC             40               ***   
       ESTATE_PROP          IEXPRP         OFF          [  0]   ***   
       EVAL_HESS            IRECAL              0            # of cyc.
       EXCITATION           IEXCIT              0               ***   
       EXCITE               IEXCIT         NONE         [  0]   ***   
       EXTERN_POT           IEXPOT         OFF          [  0]   ***   
       FCGRADNEW            IFCGNW         OFF          [  0]   ***   
       FC_FIELD             IFINFC              0             x 10-6  
       FD_CALTYPE           IFDCAL         GRADONLY     [  0]   ***   
       FD_PROJECT           IFDPRJ         OFF          [  1]   ***   
       FD_STEPSIZE          IDISFD              0            10-4 bohr
       FD_USEGROUP          IFDGRP         FULL         [  0]   ***   
       FILE_RECSIZ          IFLREC              4096           words  
       FINITE_PERT          IFIPER              0             x 10-6  
       FIXGEOM              IFIXGM         OFF          [  0]   ***   
       FOCK                 IFOCK          AO           [  1]   ***   
       FREQ_ALGORI          IVIALG         STANDARD     [  0]   ***   
       FROZEN_CORE          IFROCO         OFF          [  0]   ***   
       FROZEN_VIRT          IFROVI         OFF          [  0]   ***   
       GAMMA_ABCD           IGABCD         STORE        [  0]   ***   
       GAMMA_ABCI           IGABCI         STORE        [  0]   ***   
       GENBAS_1             IGNBS1              0               ***   
       GENBAS_2             IGNBS2              0               ***   
       GENBAS_3             IGNBS3              0               ***   
       GENBAS_4             IGNBS4              0               ***   
       GEO_CONV             ICONTL              5              H/bohr 
       GEO_MAXCYC           IOPTCY             50               ***   
       GEO_MAXSTEP          IMXSTP            300            millibohr
       GEO_METHOD           INR            SINGLE_POINT [  5]   ***   
       GIAO                 IGIAO          OFF          [  1]   ***   
       GIMIC                IGIMIC         OFF          [  0]   ***   
       GRID                 IGRID          OFF          [  0]   ***   
       GRID_ALGO            IGALGO         SERIAL       [  0]   ***   
       GUESS                IGUESS            MOREAD    [  0]   ***   
       HBAR                 IHBAR              OFF      [  0]   ***   
       HESS_TYPE            IHESTP         SCF          [  0]   ***   
       HF2_FILE             IHF2Fl         USE          [  1]   ***   
       HFSTABILITY          ISTABL         OFF          [  0]   ***   
       INCORE               INCORE             OFF      [  0]   ***   
       INPUT_MRCC           IMRCC          ON           [  1]   ***   
       INTEGRALS            INTTYP             VMOL     [  1]   ***   
       JODA_PRINT           IJPRNT              0               ***   
       KEYWORD_OUT          IDMPKW         NO           [  0]   ***   
       LINDEP_TOL           ILINDP              8               ***   
       LINEQ_CONV           IZTACN          10D-  7           cycles  
       LINEQ_EXPOR          ILMAXD              5               ***   
       LINEQ_MAXCY          ILMAXC            100               ***   
       LINEQ_TYPE           ILTYPE         DIIS         [  1]   ***   
       LOCK_ORBOCC          ILOCOC             OFF      [  0]   ***   
       MEMORY_SIZE          IMEMSZ         875000000           words  
       MEM_UNIT             IMEMU          GB           [  3]   ***   
       MRCC                 IMRCCC         OFF          [  0]   ***   
       MULTIPLICTY          IMULTP              1               ***   
       NACOUPLING           IVCOUP         OFF          [  0]   ***   
       NEGEVAL              IDIE             ABORT      [  0]   ***   
       NEWNORM              INEWNO         OFF          [  0]   ***   
       NON-HF               INONHF             OFF      [  0]   ***   
       NTOP_TAMP            ITOPT2             15               ***   
       NUC_MODEL            INUCMO         POINT        [  0]   ***   
       OCCUPATION           IOCCU   ESTIMATED BY SCF 
       OPEN-SHELL           IOPEN          SPIN-ORBITAL [  0]   ***   
       OPTVIB               IOPTVB         OFF          [  0]   ***   
       ORBITALS             IORBTP         SEMICANONICAL[  1]   ***   
       PARALLEL             IPARAL         ON           [  1]   ***   
       PARA_INT             IPINTS         ON           [  1]   ***   
       PARA_PRINT           IPPRIN              0               ***   
       PERT_ORB             IPTORB         CANONICAL    [  1]   ***   
       POINTS               IGRDFD              0               ***   
       PRINT                IPRNT               0               ***   
       PROPS                IPROPS             OFF      [  0]   ***   
       PROP_INTEGR          IINTYP         INTERNAL     [  0]   ***   
       PSI                  IPSI           OFF          [  0]   ***   
       QC_ALG               IQCALG         FLM          [  0]   ***   
       QC_LINALG            IQCLIN         TRIDIAG      [  2]   ***   
       QC_MAXCYC            IQCMAX          10D-100           cycles  
       QC_MAXSCFCY          IQCMSC          10D- 15           cycles  
       QC_RTRUST            IQCRTR          10D-  0           x 10-3  
       QC_SKIPSCF           IQCSKI         OFF          [  0]   ***   
       QC_START             IQCSTA          10D-  1             ***   
       QRHFGUESS            IQGUES         OFF          [  0]   ***   
       QUARTIC              IQUART         OFF          [  0]   ***   
       RAMAN_INT            IRAMIN         OFF          [  0]   ***   
       RAMAN_ORB            IRAMRE         UNRELAXED    [  0]   ***   
       RDO                  IRDOFM              ON      [  1]   ***   
       REFERENCE            IREFNC             RHF      [  0]   ***   
       RELATIVIST           IRELAT         OFF          [  0]   ***   
       RELAX_DENS           IRDENS              ON      [  1]   ***   
       RESET_FLAGS          IRESET             OFF      [  0]   ***   
       RESTART_CC           ICCRES         OFF          [  0]   ***   
       ROT_EVEC             ROTVEC              0               ***   
       SAVE_INTS            ISVINT             OFF      [  0]   ***   
       SCALE_ON             ISTCRT              0               ***   
       SCF_CONV             ISCFCV          10D-  9             ***   
       SCF_DAMPING          IDAMP               0             x 10-3  
       SCF_EXPORDE          IRPPOR              6               ***   
       SCF_EXPSTAR          IRPPLS              8               ***   
       SCF_EXTRAPO          IRPP                ON      [  1]   ***   
       SCF_MAXCYC           ISCFCY            150              cycles 
       SCF_NOSTOP           ISCFST         OFF          [  0]   ***   
       SCF_PRINT            ISCFPR              0               ***   
       SCF_PROG             ISCFPR         SCF          [  0]   ***   
       SD_FIELD             IFINSD              0             x 10-6  
       SOPERT               IPERSO         OFF          [  0]   ***   
       SPHERICAL            IDFGHI             ON       [  1]   ***   
       SPINORBIT            ISOCAL         OFF          [  0]   ***   
       SPINROTATIO          ISRCON         OFF          [  0]   ***   
       SPIN_FLIP            ISPFLP         OFF          [  0]   ***   
       SPIN_ORBIT           ISPORB         OFF          [  0]   ***   
       SPIN_SCAL            ISCSMP         OFF          [  0]   ***   
       STEEPSCALE           ISTPSC              1000          x 10-3  
       SUBGROUP             ISUBGP         DEFAULT      [  0]   ***   
       SUBGRPAXIS           ISBXYZ         X            [  0]   ***   
       SYMMETRY             ISYM             ON         [  0]   ***   
       SYM_CHECK            ISYMCK         OVERRIDE     [  1]   ***   
       T3_EXTRAPOL          IT3EXT         OFF          [  0]   ***   
       T4_EXTRAPOL          IT4EXP         OFF          [  0]   ***   
       TAMP_SUM             IEVERY              5               ***   
       TESTSUITE            ITESTS         OFF          [  0]   ***   
       THERMOCH             ITHERM         ON           [  1]   ***   
       TOL_CHOLESK          ITOLCH          10D-  4             ***   
       TRANGRAD             IRESRM         OFF          [  0]   ***   
       TRANS_INV            ITRAIN         USE          [  0]   ***   
       TREAT_PERT           ITREAT         SIMULTANEOUS [  0]   ***   
       TRIP_ALGORI          ITRALG         NORMAL       [  0]   ***   
       UIJ_THRESHO          IUIJTH              1               ***   
       UNITS                IUNITS         BOHR         [  1]   ***   
       UNOS                 IUNOS          OFF          [  0]   ***   
       UPDATE_HESS          IHUPDT         ON           [  1]   ***   
       VIBPHASE             ISETPH         STANDARD     [  0]   ***   
       VIBRATION            IVIB             ANALYTIC   [  1]   ***   
       VIB_ALGORIT          IGEALG         STANDARD     [  0]   ***   
       VNATORB              IVNORB         OFF          [  0]   ***   
       VTRAN                IVTRAN         FULL/PARTIAL [  0]   ***   
       XFIELD               IXEFLD              0             x 10-6  
       XFORM_TOL            IXFTOL          10D- 11             ***   
       YFIELD               IYEFLD              0             x 10-6  
       ZFIELD               IZEFLD              0             x 10-6  
       ZSCALE_EXP           IZEXPS         OFF          [  0]   ***   
    -------------------------------------------------------------------
   6 entries found in Z-matrix 
   Job Title : MIN4                                                                            
   There are 10 unique internal coordinates.
   Of these,  0 will be optimized.
   User supplied Z-matrix: 
--------------------------------------------------------------------------------
       SYMBOL    BOND      LENGTH    ANGLE     ANGLE     DIHED     ANGLE
                  TO      (ANGST)    WRT      (DEG)      WRT      (DEG)
--------------------------------------------------------------------------------
        C    
        O          1         R1   
        H          1         R2         2        A2   
        H          1         R3         2        A3         3        D3   
        H          1         R3         2        A3         3        D4   
        H          2         R5         1        A5         3        D5   
                  *Initial values for internal coordinates* 
                      Name             Value
                        R1              2.6824904039
                        R2              2.0845722549
                        A2            107.0495897798
                        R3              2.0981585880
                        A3            112.8113180938
                        D3           -118.5045535143
                        D4            118.5026808022
                        R5              1.8255053087
                        A5            106.3158487795
                        D5           -179.9807177799
--------------------------------------------------------------------------------
  1  C          6    12.00000
  2  O          8    15.99491
  3  H          1     1.00783
  4  H          1     1.00783
  5  H          1     1.00783
  6  H          1     1.00783
   Rotational constants (in cm-1): 
          0.7949129231             0.8247570712             4.1847097728
   Rotational constants (in MHz): 
      23830.8932494326         24725.5984277149        125454.4604558777
********************************************************************************
   The full molecular point group is C1  .
   The largest Abelian subgroup of the full molecular point group is C1  .
   The computational point group is C1  .
********************************************************************************
--------------------------------------------------------------------------------
   Analysis of internal coordinates specified by Z-matrix 
--------------------------------------------------------------------------------
   *The nuclear repulsion energy is   40.127249687842003 a.u.
   *There are  12 degrees of freedom within the tot. symm. molecular subspace.
   *Z-matrix requests optimization of   0 coordinates.
   *The optimization is constrained.
   *The following  11 parameters can have non-zero 
    derivatives within the totally symmetric subspace:
             D5   [12]  D4   [ 9]  D3   [ 6]  A2   [ 3]  A3   [ 5]  A3   [ 8]
             A5   [11]  R3   [ 4]  R2   [ 2]  R5   [10]  R1   [ 1]
   *The following   0 parameters are to be optimized:

   *The following coordinates must be varied in an  unconstrained optimization.
             D5   [12]  D4   [ 9]  D3   [ 6]  A2   [ 3]  A3   [ 5]  A3   [ 8]
             A5   [11]  R3   [ 4]  R2   [ 2]  R5   [10]  R1   [ 1]
--------------------------------------------------------------------------------
 ----------------------------------------------------------------
 Z-matrix   Atomic            Coordinates (in bohr)
  Symbol    Number           X              Y              Z
 ----------------------------------------------------------------
     C         6        -1.37058083    -0.02308098     0.00000312
     O         8         1.30804397     0.12087714     0.00000317
     H         1        -2.08784894     1.93420478    -0.00064248
     H         1        -2.13335658    -0.98784174     1.69990880
     H         1        -2.13330041    -0.98888582    -1.69933479
     H         1         1.91417006    -1.60106386    -0.00001890
 ----------------------------------------------------------------
   Interatomic distance matrix (Angstroms) 
 
                 C             O             H             H             H    
                [ 1]        [ 2]        [ 3]        [ 4]        [ 5]
  C    [ 1]     0.00000
  O    [ 2]     1.41951     0.00000
  H    [ 3]     1.10311     2.03718     0.00000
  H    [ 4]     1.11030     2.11420     1.78924     0.00000
  H    [ 5]     1.11030     2.11420     1.78922     1.79880     0.00000
  H    [ 6]     1.92839     0.96602     2.82574     2.34565     2.34542
 
                 H    
                [ 6]
  H    [ 6]     0.00000
   Rotational constants (in cm-1): 
          4.1847097728             0.8247570712             0.7949129231
   Rotational constants (in MHz): 
     125454.4604558778         24725.5984277149         23830.8932494326
  There are   48 basis functions.
  @CHECKOUT-I, Total execution time (CPU/WALL):        0.08/       0.11 seconds.
--executable xjoda finished with status     0 in        0.13 seconds (walltime).
 --invoking executable--
/opt/vulcan/opt/vulcan/linux-x86_64/intel-13.0.0/cfour-2.0-yhj426etc3g7hslvbmpgvdymp2w76rob/bin/xvmol
 Serial version of molecule started
********************************************************************************
                    Input from MOL file
********************************************************************************
INTGRL        1    0    1    0    0    0    0    0    0                         
         *** CFOUR Program System (Release V0.1) ***                            
MIN4                                                                            
    6    0            0.10E-08              0    0                              
   9999.00      3.00                                                            
          6.00000000    1    3    1    1    1                                   
C #1  -1.370580831839329  -0.023080981149647   0.000003119984985                
    9    3                                                                      
   6665.00000000000       6.920000000000000E-004 -1.460000000000000E-004        
  0.000000000000000E+000                                                        
   1000.00000000000       5.329000000000000E-003 -1.154000000000000E-003        
  0.000000000000000E+000                                                        
   228.000000000000       2.707700000000000E-002 -5.725000000000000E-003        
  0.000000000000000E+000                                                        
   64.7100000000000       0.101718000000000      -2.331200000000000E-002        
  0.000000000000000E+000                                                        
   21.0600000000000       0.274740000000000      -6.395500000000000E-002        
  0.000000000000000E+000                                                        
   7.49500000000000       0.448564000000000      -0.149981000000000             
  0.000000000000000E+000                                                        
   2.79700000000000       0.285074000000000      -0.127262000000000             
  0.000000000000000E+000                                                        
  0.521500000000000       1.520400000000000E-002  0.544529000000000             
  0.000000000000000E+000                                                        
  0.159600000000000      -3.191000000000000E-003  0.580496000000000             
   1.00000000000000                                                             
    4    2                                                                      
   9.43900000000000       3.810900000000000E-002  0.000000000000000E+000        
   2.00200000000000       0.209480000000000       0.000000000000000E+000        
  0.545600000000000       0.508557000000000       0.000000000000000E+000        
  0.151700000000000       0.468842000000000        1.00000000000000             
    1    1                                                                      
  0.550000000000000        1.00000000000000                                     
          8.00000000    1    3    1    1    1                                   
O #2   1.308043969490204   0.120877139789997   0.000003165081381                
    9    3                                                                      
   11720.0000000000       7.100000000000000E-004 -1.600000000000000E-004        
  0.000000000000000E+000                                                        
   1759.00000000000       5.470000000000000E-003 -1.263000000000000E-003        
  0.000000000000000E+000                                                        
   400.800000000000       2.783700000000000E-002 -6.267000000000000E-003        
  0.000000000000000E+000                                                        
   113.700000000000       0.104800000000000      -2.571600000000000E-002        
  0.000000000000000E+000                                                        
   37.0300000000000       0.283062000000000      -7.092400000000000E-002        
  0.000000000000000E+000                                                        
   13.2700000000000       0.448719000000000      -0.165411000000000             
  0.000000000000000E+000                                                        
   5.02500000000000       0.270952000000000      -0.116955000000000             
  0.000000000000000E+000                                                        
   1.01300000000000       1.545800000000000E-002  0.557368000000000             
  0.000000000000000E+000                                                        
  0.302300000000000      -2.585000000000000E-003  0.572759000000000             
   1.00000000000000                                                             
    4    2                                                                      
   17.7000000000000       4.301800000000000E-002  0.000000000000000E+000        
   3.85400000000000       0.228913000000000       0.000000000000000E+000        
   1.04600000000000       0.508728000000000       0.000000000000000E+000        
  0.275300000000000       0.460531000000000        1.00000000000000             
    1    1                                                                      
   1.18500000000000        1.00000000000000                                     
          1.00000000    1    2    1    1                                        
H #3  -2.087848937479870   1.934204775650445  -0.000642481857670                
    4    2                                                                      
   13.0100000000000       1.968500000000000E-002  0.000000000000000E+000        
   1.96200000000000       0.137977000000000       0.000000000000000E+000        
  0.444600000000000       0.478148000000000       0.000000000000000E+000        
  0.122000000000000       0.501240000000000        1.00000000000000             
    1    1                                                                      
  0.727000000000000        1.00000000000000                                     
          1.00000000    1    2    1    1                                        
H #4  -2.133356575466685  -0.987841738851906   1.699908795578621                
    4    2                                                                      
   13.0100000000000       1.968500000000000E-002  0.000000000000000E+000        
   1.96200000000000       0.137977000000000       0.000000000000000E+000        
  0.444600000000000       0.478148000000000       0.000000000000000E+000        
  0.122000000000000       0.501240000000000        1.00000000000000             
    1    1                                                                      
  0.727000000000000        1.00000000000000                                     
          1.00000000    1    2    1    1                                        
H #5  -2.133300406118939  -0.988885815513448  -1.699334790353685                
    4    2                                                                      
   13.0100000000000       1.968500000000000E-002  0.000000000000000E+000        
   1.96200000000000       0.137977000000000       0.000000000000000E+000        
  0.444600000000000       0.478148000000000       0.000000000000000E+000        
  0.122000000000000       0.501240000000000        1.00000000000000             
    1    1                                                                      
  0.727000000000000        1.00000000000000                                     
          1.00000000    1    2    1    1                                        
H #6   1.914170060361412  -1.601063856205112  -0.000018904632115                
    4    2                                                                      
   13.0100000000000       1.968500000000000E-002  0.000000000000000E+000        
   1.96200000000000       0.137977000000000       0.000000000000000E+000        
  0.444600000000000       0.478148000000000       0.000000000000000E+000        
  0.122000000000000       0.501240000000000        1.00000000000000             
    1    1                                                                      
  0.727000000000000        1.00000000000000                                     
FINISH                                                                          
 
********************************************************************************
 One- and two-electron integrals over symmetry-adapted AOs are calculated.

  Spherical harmonics are used.
  
  Integrals less than  0.10E-13 are neglected.

  Nuclear repulsion energy :   40.1272496878 a.u.
  required memory for a1 array                5013204  words 
  required memory for a2 array                2046060  words 
 @GETMEM-I,  Allocated      69 MB of main memory.
  @MOLECU-I, One electron integrals (CPU/WALL):        0.01/       0.01 seconds.
  @TWOEL-I,     682069 integrals of symmetry type  I I I I
  @TWOEL-I, Total number of 2-e integrals     682069.
  @MOLECU-I, Two electron integrals (CPU/WALL):        0.99/       0.39 seconds.
  @CHECKOUT-I, Total execution time (CPU/WALL):        1.01/       0.41 seconds.
--executable xvmol finished with status     0 in        0.44 seconds (walltime).
 --invoking executable--
/opt/vulcan/opt/vulcan/linux-x86_64/intel-13.0.0/cfour-2.0-yhj426etc3g7hslvbmpgvdymp2w76rob/bin/xvmol2ja
 @GETMEM-I,  Allocated    6675 MB of main memory.
  @CHECKOUT-I, Total execution time (CPU/WALL):        0.01/       0.00 seconds.
--executable xvmol2ja finished with status     0 in        0.22 seconds (walltime).
 --invoking executable--
/opt/vulcan/opt/vulcan/linux-x86_64/intel-13.0.0/cfour-2.0-yhj426etc3g7hslvbmpgvdymp2w76rob/bin/xvscf
  There are   48 functions in the AO basis.

  There are 1 irreducible representations.

       Irrep        # of functions
         1                 48


  Parameters for SCF calculation: 
        SCF reference function:  RHF  
  Maximum number of iterations:  150
     Full symmetry point group: C1  
     Computational point group: C1  
        Initial density matrix: MOREAD                 
     SCF convergence tolerance: 10**(- 9)
  DIIS convergence acceleration:  ON
          Latest start for DIIS:   8
                     DIIS order:   6

  Memory information:     143849 words required.
  Fock matrices are constructed from AO integral file.
 @GETMEM-I,  Allocated       1 MB of main memory.
  Initialization and symmetry analysis required      0.001 seconds.

  @INITGES-I, Occupancies from core Hamiltonian:

          Alpha population by irrep:   9
           Beta population by irrep:   9


 total no. of electrons in initial guess :  0.000000000000000E+000
  --------------------------------------------------------------------
  Iteration         Total Energy            Largest Density Difference
  --------------------------------------------------------------------
       0            40.127249687842003              0.0000000000D+00
       1          -100.382825876240616              0.1014360701D+02
       2           -97.103940512031784              0.1965935764D+02
       3          -101.155986729589983              0.2073392809D+02
       4           -95.242346734211452              0.9164955532D+01
       5           -95.012866983835806              0.1291319866D+02
       6           -92.448557347390306              0.1296105518D+02
       7           -90.789902905705645              0.1008375392D+02
       8           -90.847397968191842              0.1027103230D+02
       9          -113.429936312640251              0.8797575388D+01
      10          -114.531016970705593              0.8290789167D+00
      11          -114.953570411323057              0.4177223548D+00
      12          -115.044843332981173              0.2852455067D+00
      13          -115.048001962490673              0.5221465212D-01
      14          -115.048267438380236              0.2219232459D-01
      15          -115.048282096166247              0.4785114431D-02
      16          -115.048283376922654              0.2076291652D-02
      17          -115.048283401621489              0.1967975525D-03
      18          -115.048283402463227              0.2526995396D-04
      19          -115.048283402549060              0.1003864239D-04
      20          -115.048283402551277              0.1690305866D-05
      21          -115.048283402552443              0.4285559008D-06
      22          -115.048283402551959              0.9515372890D-07
      23          -115.048283402552414              0.2796409126D-07
      24          -115.048283402552499              0.8620337999D-08
      25          -115.048283402551505              0.3944893079D-08

  SCF has converged.

 Density matrix saved to file den.dat
 total electron number:   18.0000000000001     
     E(SCF)=      -115.048283402552187              0.6326397184D-09

  Eigenvector printing suppressed.

 @PUTMOS-I, Writing converged MOs to NEWMOS. 
 @PUTMOS-I, Symmetry   1 Full Blocks 12 Partial Blocksize   0
  @DMPJOB-I, Rotating orbitals to semicanonical basis.
             *** Eigenvalues correspond to new basis. ***



 
  ORBITAL EIGENVALUES (ALPHA)  (1H = 27.2113838 eV)

       MO #        E(hartree)               E(eV)           FULLSYM    COMPSYM
       ----   --------------------   --------------------   -------   ---------
    1     1         -20.5531127431        -559.2786395404       A         A (1)
    2     2         -11.2798280521        -306.9397305433       A         A (1)
    3     3          -1.3509818424         -36.7620854469       A         A (1)
    4     4          -0.9158686283         -24.9220527723       A         A (1)
    5     5          -0.6818555833         -18.5542339871       A         A (1)
    6     6          -0.6105421037         -16.6136955220       A         A (1)
    7     7          -0.5839257502         -15.8894277104       A         A (1)
    8     8          -0.4961832726         -13.5018334762       A         A (1)
    9     9          -0.4425156106         -12.0414621252       A         A (1)
  +++++++++++++++++++++++++++++++++++++++++++++++++++++++++++++++++++++++++++++
   10    10           0.1829873230           4.9793382815       A         A (1)
   11    11           0.2225933416           6.0570728552       A         A (1)
   12    12           0.2653392367           7.2202478113       A         A (1)
   13    13           0.2656927135           7.2298664051       A         A (1)
   14    14           0.3640244624           9.9056093660       A         A (1)
   15    15           0.6281539371          17.0929378808       A         A (1)
   16    16           0.6430286793          17.4977001981       A         A (1)
   17    17           0.7246754504          19.7194218246       A         A (1)
   18    18           0.8017480401          21.8166736458       A         A (1)
   19    19           0.8537122839          23.2306926293       A         A (1)
   20    20           0.8882610034          24.1708110947       A         A (1)
   21    21           0.8923007866          24.2807391877       A         A (1)
   22    22           1.1132034517          30.2918063927       A         A (1)
   23    23           1.1471296784          31.2149859686       A         A (1)
   24    24           1.1647577063          31.6946690021       A         A (1)
   25    25           1.2759174387          34.7194791465       A         A (1)
   26    26           1.3297806680          36.1851721533       A         A (1)
   27    27           1.4425385089          39.2534690411       A         A (1)
   28    28           1.5874745649          43.1973796906       A         A (1)
   29    29           1.6529036350          44.9777952295       A         A (1)
   30    30           1.6687686464          45.4095041432       A         A (1)
   31    31           1.8552144814          50.4829533224       A         A (1)
   32    32           1.8953779678          51.5758573648       A         A (1)
   33    33           1.9290044798          52.4908812883       A         A (1)
   34    34           1.9333693054          52.6096542352       A         A (1)
   35    35           2.0109828923          54.7216273370       A         A (1)
   36    36           2.1296829192          57.9516193283       A         A (1)
   37    37           2.2821433688          62.1002791388       A         A (1)
   38    38           2.3492083276          63.9252094752       A         A (1)
   39    39           2.3879511794          64.9794560838       A         A (1)
   40    40           2.4911507422          67.7876589983       A         A (1)
   41    41           2.7202098811          74.0206751433       A         A (1)
   42    42           2.7221032251          74.0721956550       A         A (1)
   43    43           2.7546335561          74.9573909770       A         A (1)
   44    44           3.3046937773          89.9252907797       A         A (1)
   45    45           3.3852364484          92.1169683172       A         A (1)
   46    46           3.4417325752          93.6543061082       A         A (1)
   47    47           3.5844006724          97.5365024589       A         A (1)
   48    48           4.0793417139         111.0045331082       A         A (1)


  VSCF finished.

  @CHECKOUT-I, Total execution time (CPU/WALL):        1.07/       0.27 seconds.
--executable xvscf finished with status     0 in        0.42 seconds (walltime).
 --invoking executable--
/opt/vulcan/opt/vulcan/linux-x86_64/intel-13.0.0/cfour-2.0-yhj426etc3g7hslvbmpgvdymp2w76rob/bin/xvtran
 @GETMEM-I,  Allocated    6675 MB of main memory.
  Full RHF integral transformation
  Transformation of IIII integrals :
  1 pass through the AO integral file was required.
      682069 AO integrals were read.
      692076 MO integrals were written to HF2.
  Summary of active molecular orbitals: 
------------------------------------------------------------------------
 
  Index      Eigenvalue    Symmetry    Index      Eigenvalue    Symmetry
------------------------------------------------------------------------
     1       -20.5531127        1        25         1.2759174        1
     2       -11.2798281        1        26         1.3297807        1
     3        -1.3509818        1        27         1.4425385        1
     4        -0.9158686        1        28         1.5874746        1
     5        -0.6818556        1        29         1.6529036        1
     6        -0.6105421        1        30         1.6687686        1
     7        -0.5839258        1        31         1.8552145        1
     8        -0.4961833        1        32         1.8953780        1
     9        -0.4425156        1        33         1.9290045        1
    10         0.1829873        1        34         1.9333693        1
    11         0.2225933        1        35         2.0109829        1
    12         0.2653392        1        36         2.1296829        1
    13         0.2656927        1        37         2.2821434        1
    14         0.3640245        1        38         2.3492083        1
    15         0.6281539        1        39         2.3879512        1
    16         0.6430287        1        40         2.4911507        1
    17         0.7246755        1        41         2.7202099        1
    18         0.8017480        1        42         2.7221032        1
    19         0.8537123        1        43         2.7546336        1
    20         0.8882610        1        44         3.3046938        1
    21         0.8923008        1        45         3.3852364        1
    22         1.1132035        1        46         3.4417326        1
    23         1.1471297        1        47         3.5844007        1
    24         1.1647577        1        48         4.0793417        1
------------------------------------------------------------------------
  @CHECKOUT-I, Total execution time (CPU/WALL):        1.17/       0.41 seconds.
--executable xvtran finished with status     0 in        0.62 seconds (walltime).
 --invoking executable--
/opt/vulcan/opt/vulcan/linux-x86_64/intel-13.0.0/cfour-2.0-yhj426etc3g7hslvbmpgvdymp2w76rob/bin/xintprc
 @GETMEM-I,  Allocated    6675 MB of main memory.
  @GMOIAA-I, Processing MO integrals for spin case AA.
  @GMOIAA-I, Generation of integral list completed.
                      TYPE                NUMBER
                      ----               --------
                      PPPP                304590
                      PPPH                273780
                      PPHH                 61776
                      PHPH                 35100
                      PHHH                 15795
                      HHHH                  1035

                     TOTAL                692076

  @FORMT2-I, Second-order MP correlation energies:
            ------------------------------------------------
            E(SCF)                  =   -115.048283402552 a.u.
            E2(AA)                  =     -0.040846925723 a.u.
            E2(AB)                  =     -0.262901651124 a.u.
            E2(TOT)                 =     -0.344595502570 a.u.
            Total MP2 energy        =   -115.392878905122 a.u.
            ------------------------------------------------
   Largest T2 amplitudes for spin case AB:
       _       _                 _       _                 _       _
   i   j   a   b             i   j   a   b             i   j   a   b
-----------------------------------------------------------------------------
[  7   7  17  17]-0.02434 [  7   7  14  14]-0.02006 [  9   9  26  26]-0.01905
[  6   6  19  19]-0.01869 [  9   9  23  23]-0.01838 [  6   6  12  12]-0.01830
[  8   8  22  22]-0.01663 [  8   8  15  15]-0.01621 [  5   5  18  18]-0.01620
[  5   5  14  14]-0.01584 [  6   6  16  16]-0.01540 [  9   9  16  16]-0.01517
[  7   7  25  25]-0.01502 [  8   8  13  13]-0.01487 [  6   6  19  12] 0.01444
-----------------------------------------------------------------------------
   Norm of T2AB vector (   123201 symmetry allowed elements):  0.2738205033.
-----------------------------------------------------------------------------
  @CHECKOUT-I, Total execution time (CPU/WALL):        0.18/       0.07 seconds.
--executable xintprc finished with status     0 in        0.24 seconds (walltime).
  calling xvcc 
 --invoking executable--
/opt/vulcan/opt/vulcan/linux-x86_64/intel-13.0.0/cfour-2.0-yhj426etc3g7hslvbmpgvdymp2w76rob/bin/xvcc
 @GETMEM-I,  Allocated    6675 MB of main memory.
   CCSD(T) energy will be calculated.
   The total correlation energy is -0.344595502570 a.u.
   The total correlation energy is -0.359015780725 a.u.
  Convergence information after     1 iterations: 
  Largest element of residual vector : -0.61012088E-02.
  Largest element of DIIS residual   : -0.61012088E-02.
   The total correlation energy is -0.366630339655 a.u.
  Convergence information after     2 iterations: 
  Largest element of residual vector : -0.16809374E-02.
  Largest element of DIIS residual   : -0.17421239E-02.
   The total correlation energy is -0.368334804979 a.u.
  Convergence information after     3 iterations: 
  Largest element of residual vector : -0.15330808E-02.
  Largest element of DIIS residual   : -0.11163131E-02.
   The total correlation energy is -0.369071425296 a.u.
  Convergence information after     4 iterations: 
  Largest element of residual vector : -0.20845493E-03.
  Largest element of DIIS residual   :  0.16919420E-03.
   The total correlation energy is -0.369138885089 a.u.
  Convergence information after     5 iterations: 
  Largest element of residual vector : -0.17613235E-03.
  Largest element of DIIS residual   : -0.93746322E-04.
   The total correlation energy is -0.369148408763 a.u.
  Convergence information after     6 iterations: 
  Largest element of residual vector :  0.44560200E-04.
  Largest element of DIIS residual   :  0.37299448E-04.
   The total correlation energy is -0.369148883946 a.u.
  Convergence information after     7 iterations: 
  Largest element of residual vector : -0.20073881E-04.
  Largest element of DIIS residual   :  0.10004443E-04.
   The total correlation energy is -0.369148299329 a.u.
  Convergence information after     8 iterations: 
  Largest element of residual vector :  0.75851868E-05.
  Largest element of DIIS residual   :  0.45884722E-05.
   The total correlation energy is -0.369148536120 a.u.
  Convergence information after     9 iterations: 
  Largest element of residual vector :  0.24636052E-05.
  Largest element of DIIS residual   :  0.15966493E-05.
   The total correlation energy is -0.369148684474 a.u.
  Convergence information after    10 iterations: 
  Largest element of residual vector :  0.94965092E-06.
  Largest element of DIIS residual   :  0.30129055E-06.
  Amplitude equations converged in    10iterations.
   The total correlation energy is -0.369148736661 a.u.
   The CC iterations have converged.

   Largest T1 amplitudes for spin case AA:
   i       a                 i       a                 i       a    
-----------------------------------------------------------------------------
[  9      12    ]-0.00830 [  7      14    ]-0.00717 [  6      16    ] 0.00717
[  6      12    ]-0.00670 [  6      19    ] 0.00602 [  5      14    ]-0.00571
[  9      16    ] 0.00565 [  7      33    ] 0.00562 [  7      13    ]-0.00558
[  7      17    ] 0.00555 [  8      11    ]-0.00532 [  8      18    ]-0.00508
[  5      40    ] 0.00487 [  7      15    ] 0.00443 [  8      13    ]-0.00421
-----------------------------------------------------------------------------
   Norm of T1AA vector (      351 symmetry allowed elements):  0.0299666488.
-----------------------------------------------------------------------------
   Largest T2 amplitudes for spin case AB:
       _       _                 _       _                 _       _
   i   j   a   b             i   j   a   b             i   j   a   b
-----------------------------------------------------------------------------
[  7   7  17  17]-0.02647 [  7   7  14  14]-0.02381 [  6   6  19  19]-0.02202
[  6   6  12  12]-0.02127 [  9   9  26  26]-0.02048 [  9   9  23  23]-0.01943
[  8   8  15  15]-0.01856 [  5   5  18  18]-0.01844 [  8   8  13  13]-0.01838
[  5   5  14  14]-0.01813 [  6   6  19  12] 0.01782 [  6   6  12  19] 0.01782
[  6   6  16  16]-0.01748 [  8   8  22  22]-0.01740 [  9   9  16  16]-0.01714
-----------------------------------------------------------------------------
   Norm of T2AB vector (   123201 symmetry allowed elements):  0.3152644323.
-----------------------------------------------------------------------------
       Summary of iterative solution of CC equations 
      -----------------------------------------------------------
                       Correlation           Total
       Iteration         Energy              Energy
      -----------------------------------------------------------
            0        -0.344595502570    -115.392878905122  DIIS 
            1        -0.359015780725    -115.407299183277  DIIS 
            2        -0.366630339655    -115.414913742207  DIIS 
            3        -0.368334804979    -115.416618207531  DIIS 
            4        -0.369071425296    -115.417354827848  DIIS 
            5        -0.369138885089    -115.417422287641  DIIS 
            6        -0.369148408763    -115.417431811315  DIIS 
            7        -0.369148883946    -115.417432286498  DIIS 
            8        -0.369148299329    -115.417431701882  DIIS 
            9        -0.369148536120    -115.417431938673  DIIS 
           10        -0.369148736661    -115.417432139214  DIIS 
      -----------------------------------------------------------
      A miracle has come to pass. The CC iterations have converged.
        E(CCSD)           =    -115.417432139214
        E(CCSD + T(CCSD)) =    -115.425669750118
        E(CCSD(T))        =    -115.425366523672
  @CHECKOUT-I, Total execution time (CPU/WALL):       13.06/       3.29 seconds.
--executable xvcc finished with status     0 in        3.42 seconds (walltime).
 --invoking executable--
/opt/vulcan/opt/vulcan/linux-x86_64/intel-13.0.0/cfour-2.0-yhj426etc3g7hslvbmpgvdymp2w76rob/bin/xlambda
 @GETMEM-I,  Allocated    6675 MB of main memory.
  The Lambda equations are solved for CCSD(T).
  Initial lambda amplitudes: 
  Convergence information after     1 iterations: 
  Largest element of residual vector :  0.41135442E-02.
  Largest element of DIIS residual   :  0.41135442E-02.
  Convergence information after     2 iterations: 
  Largest element of residual vector : -0.14921804E-02.
  Largest element of DIIS residual   : -0.96563395E-03.
  Convergence information after     3 iterations: 
  Largest element of residual vector : -0.24819161E-03.
  Largest element of DIIS residual   :  0.15103285E-03.
  Convergence information after     4 iterations: 
  Largest element of residual vector : -0.11824837E-03.
  Largest element of DIIS residual   : -0.94626408E-04.
  Convergence information after     5 iterations: 
  Largest element of residual vector : -0.40658667E-04.
  Largest element of DIIS residual   : -0.17378567E-04.
  Convergence information after     6 iterations: 
  Largest element of residual vector : -0.15179731E-04.
  Largest element of DIIS residual   : -0.85358161E-05.
  Convergence information after     7 iterations: 
  Largest element of residual vector : -0.45554243E-05.
  Largest element of DIIS residual   :  0.27769783E-05.
  Convergence information after     8 iterations: 
  Largest element of residual vector : -0.16348585E-05.
  Largest element of DIIS residual   :  0.76227233E-06.
  Convergence information after     9 iterations: 
  Largest element of residual vector :  0.60586407E-06.
  Largest element of DIIS residual   :  0.33306973E-06.
  Convergence information after    10 iterations: 
  Largest element of residual vector :  0.20541985E-06.
  Largest element of DIIS residual   :  0.10154143E-06.
  Convergence information after    11 iterations: 
  Largest element of residual vector :  0.74213096E-07.
  Largest element of DIIS residual   :  0.50454531E-07.
  Amplitude equations converged in    11 iterations.
 
  Full Fbar is constructed for CCSD second derivatives
 
      The lambda equations have converged.
  @CHECKOUT-I, Total execution time (CPU/WALL):        3.09/       0.78 seconds.
--executable xlambda finished with status     0 in        0.82 seconds (walltime).
 --invoking executable--
/opt/vulcan/opt/vulcan/linux-x86_64/intel-13.0.0/cfour-2.0-yhj426etc3g7hslvbmpgvdymp2w76rob/bin/xdens
 @GETMEM-I,  Allocated    6675 MB of main memory.
  CCSD(T) density and intermediates are calculated.
  The perturbed orbitals are chosen canonical.
  The iterative expansion of D(ai) converged after  19 iterations.
  ----------------------------------------------------------------------
                 Natural orbital occupation numbers
  ----------------------------------------------------------------------
  1.99992  1.99981  1.98370  1.97120  1.97049  1.96352  1.95610  1.95579
  1.95154  0.03732  0.02863  0.02744  0.02466  0.02103  0.01617  0.01269
  0.00872  0.00856  0.00790  0.00722  0.00688  0.00521  0.00485  0.00472
  0.00326  0.00325  0.00240  0.00220  0.00173  0.00164  0.00159  0.00126
  0.00124  0.00116  0.00088  0.00079  0.00076  0.00067  0.00063  0.00061
  0.00043  0.00040  0.00036  0.00025  0.00012  0.00011  0.00009  0.00007
  Trace of density matrix :  18.0000000000.
  ----------------------------------------------------------------------
  Density calculation successfully completed.
  @CHECKOUT-I, Total execution time (CPU/WALL):        0.85/       0.22 seconds.
--executable xdens finished with status     0 in        0.42 seconds (walltime).
 --invoking executable--
/opt/vulcan/opt/vulcan/linux-x86_64/intel-13.0.0/cfour-2.0-yhj426etc3g7hslvbmpgvdymp2w76rob/bin/xvdint
 @GETMEM-I,  Allocated    6675 MB of main memory.
 One- and two-electron integral derivatives are calculated
 for RHF-CC/MBPT hessians and dipole derivatives.
 Spherical gaussians are used.
  Evaluation of 1e integral derivatives required    0.03 seconds.
  Evaluation of 2el integral derivatives
  Evaluation of 2e integral derivatives required    1.66 seconds.
  @CHECKOUT-I, Total execution time (CPU/WALL):        1.68/       1.08 seconds.
--executable xvdint finished with status     0 in        1.24 seconds (walltime).
 --invoking executable--
/opt/vulcan/opt/vulcan/linux-x86_64/intel-13.0.0/cfour-2.0-yhj426etc3g7hslvbmpgvdymp2w76rob/bin/xcphf
 @GETMEM-I,  Allocated    6675 MB of main memory.
 Coupled-perturbed HF (CPHF) equations 
 are solved for RHF-CC/MBPT hessian and dipole derivatives.
  irreducible representation Nr.                      1
  # geometric perturbations                     18
  # electric field perturbations                      3
  relativistic perturbations from                     22 to
                    21
 number of lists relativistic                    21
  efields on                    19
  efields on                    20
  efields on                    21
 There are 21 perturbations within irrep 1.
 CPHF converged after  26 iterations.
 Calculation of total derivative of f
  range of perturbations from   0 to  21
  Tolerances in treatment of perturbed canonical orbitals:
     Tol1:    0.00001000 Tol2:    1.00000000
   Perturbed canonical restriction dropped for orbital pair   7[1] ;   8[1]
  (U[ij] element of    -0.14949D+01 is above threshold)
   Perturbed canonical restriction dropped for orbital pair   8[1] ;   7[1]
  (U[ij] element of     0.14244D+01 is above threshold)
  Tolerances in treatment of perturbed canonical orbitals:
     Tol1:    0.00001000 Tol2:    1.00000000
   Perturbed canonical restriction dropped for orbital pair   7[1] ;   8[1]
  (U[ij] element of     0.16846D+01 is above threshold)
   Perturbed canonical restriction dropped for orbital pair   8[1] ;   7[1]
  (U[ij] element of    -0.15454D+01 is above threshold)
  Tolerances in treatment of perturbed canonical orbitals:
     Tol1:    0.00001000 Tol2:    1.00000000
   Perturbed canonical restriction dropped for orbital pair   5[1] ;   6[1]
  (U[ij] element of    -0.13730D+01 is above threshold)
   Perturbed canonical restriction dropped for orbital pair   6[1] ;   5[1]
  (U[ij] element of     0.13121D+01 is above threshold)
   Perturbed canonical restriction dropped for orbital pair   8[1] ;   9[1]
  (U[ij] element of     0.18941D+01 is above threshold)
   Perturbed canonical restriction dropped for orbital pair   9[1] ;   8[1]
  (U[ij] element of    -0.17990D+01 is above threshold)
  Tolerances in treatment of perturbed canonical orbitals:
     Tol1:    0.00001000 Tol2:    1.00000000
  Tolerances in treatment of perturbed canonical orbitals:
     Tol1:    0.00001000 Tol2:    1.00000000
  Tolerances in treatment of perturbed canonical orbitals:
     Tol1:    0.00001000 Tol2:    1.00000000
   Perturbed canonical restriction dropped for orbital pair   6[1] ;   7[1]
  (U[ij] element of     0.11645D+01 is above threshold)
   Perturbed canonical restriction dropped for orbital pair   7[1] ;   6[1]
  (U[ij] element of    -0.11319D+01 is above threshold)
  Tolerances in treatment of perturbed canonical orbitals:
     Tol1:    0.00001000 Tol2:    1.00000000
  Tolerances in treatment of perturbed canonical orbitals:
     Tol1:    0.00001000 Tol2:    1.00000000
  Tolerances in treatment of perturbed canonical orbitals:
     Tol1:    0.00001000 Tol2:    1.00000000
   Perturbed canonical restriction dropped for orbital pair   6[1] ;   7[1]
  (U[ij] element of    -0.12626D+01 is above threshold)
   Perturbed canonical restriction dropped for orbital pair   7[1] ;   6[1]
  (U[ij] element of     0.12077D+01 is above threshold)
  Tolerances in treatment of perturbed canonical orbitals:
     Tol1:    0.00001000 Tol2:    1.00000000
  Tolerances in treatment of perturbed canonical orbitals:
     Tol1:    0.00001000 Tol2:    1.00000000
  Tolerances in treatment of perturbed canonical orbitals:
     Tol1:    0.00001000 Tol2:    1.00000000
  Tolerances in treatment of perturbed canonical orbitals:
     Tol1:    0.00001000 Tol2:    1.00000000
  Tolerances in treatment of perturbed canonical orbitals:
     Tol1:    0.00001000 Tol2:    1.00000000
  Tolerances in treatment of perturbed canonical orbitals:
     Tol1:    0.00001000 Tol2:    1.00000000
  Tolerances in treatment of perturbed canonical orbitals:
     Tol1:    0.00001000 Tol2:    1.00000000
  Tolerances in treatment of perturbed canonical orbitals:
     Tol1:    0.00001000 Tol2:    1.00000000
  Tolerances in treatment of perturbed canonical orbitals:
     Tol1:    0.00001000 Tol2:    1.00000000
  Tolerances in treatment of perturbed canonical orbitals:
     Tol1:    0.00001000 Tol2:    1.00000000
   Perturbed canonical restriction dropped for orbital pair   3[1] ;   4[1]
  (U[ij] element of     0.11256D+01 is above threshold)
   Perturbed canonical restriction dropped for orbital pair   4[1] ;   3[1]
  (U[ij] element of    -0.11256D+01 is above threshold)
   Perturbed canonical restriction dropped for orbital pair   4[1] ;   5[1]
  (U[ij] element of     0.23167D+01 is above threshold)
   Perturbed canonical restriction dropped for orbital pair   5[1] ;   4[1]
  (U[ij] element of    -0.23167D+01 is above threshold)
   Perturbed canonical restriction dropped for orbital pair   4[1] ;   7[1]
  (U[ij] element of     0.21694D+01 is above threshold)
   Perturbed canonical restriction dropped for orbital pair   7[1] ;   4[1]
  (U[ij] element of    -0.21694D+01 is above threshold)
   Perturbed canonical restriction dropped for orbital pair   5[1] ;   8[1]
  (U[ij] element of     0.38100D+01 is above threshold)
   Perturbed canonical restriction dropped for orbital pair   8[1] ;   5[1]
  (U[ij] element of    -0.38100D+01 is above threshold)
   Perturbed canonical restriction dropped for orbital pair   7[1] ;   8[1]
  (U[ij] element of    -0.77068D+01 is above threshold)
   Perturbed canonical restriction dropped for orbital pair   8[1] ;   7[1]
  (U[ij] element of     0.77068D+01 is above threshold)
   Perturbed canonical restriction dropped for orbital pair   6[1] ;   9[1]
  (U[ij] element of    -0.54567D+01 is above threshold)
   Perturbed canonical restriction dropped for orbital pair   9[1] ;   6[1]
  (U[ij] element of     0.54567D+01 is above threshold)
  Tolerances in treatment of perturbed canonical orbitals:
     Tol1:    0.00001000 Tol2:    1.00000000
   Perturbed canonical restriction dropped for orbital pair   5[1] ;   7[1]
  (U[ij] element of     0.10471D+01 is above threshold)
   Perturbed canonical restriction dropped for orbital pair   7[1] ;   5[1]
  (U[ij] element of    -0.10471D+01 is above threshold)
   Perturbed canonical restriction dropped for orbital pair   4[1] ;   8[1]
  (U[ij] element of     0.10608D+01 is above threshold)
   Perturbed canonical restriction dropped for orbital pair   8[1] ;   4[1]
  (U[ij] element of    -0.10608D+01 is above threshold)
   Perturbed canonical restriction dropped for orbital pair   7[1] ;   8[1]
  (U[ij] element of     0.16505D+01 is above threshold)
   Perturbed canonical restriction dropped for orbital pair   8[1] ;   7[1]
  (U[ij] element of    -0.16505D+01 is above threshold)
  Tolerances in treatment of perturbed canonical orbitals:
     Tol1:    0.00001000 Tol2:    1.00000000
   Perturbed canonical restriction dropped for orbital pair   4[1] ;   6[1]
  (U[ij] element of    -0.12827D+01 is above threshold)
   Perturbed canonical restriction dropped for orbital pair   6[1] ;   4[1]
  (U[ij] element of     0.12827D+01 is above threshold)
   Perturbed canonical restriction dropped for orbital pair   5[1] ;   6[1]
  (U[ij] element of    -0.19797D+01 is above threshold)
   Perturbed canonical restriction dropped for orbital pair   6[1] ;   5[1]
  (U[ij] element of     0.19797D+01 is above threshold)
   Perturbed canonical restriction dropped for orbital pair   6[1] ;   7[1]
  (U[ij] element of    -0.30603D+01 is above threshold)
   Perturbed canonical restriction dropped for orbital pair   7[1] ;   6[1]
  (U[ij] element of     0.30603D+01 is above threshold)
   Perturbed canonical restriction dropped for orbital pair   6[1] ;   8[1]
  (U[ij] element of    -0.18075D+01 is above threshold)
   Perturbed canonical restriction dropped for orbital pair   8[1] ;   6[1]
  (U[ij] element of     0.18075D+01 is above threshold)
   Perturbed canonical restriction dropped for orbital pair   8[1] ;   9[1]
  (U[ij] element of     0.14350D+01 is above threshold)
   Perturbed canonical restriction dropped for orbital pair   9[1] ;   8[1]
  (U[ij] element of    -0.14350D+01 is above threshold)

                     SCF static dipole polarizability
                     --------------------------------

                         Ex          Ey          Ez

            Ex      17.080342   -0.986432   -0.000107
            Ey      -0.986432   16.190371    0.000053
            Ez      -0.000107    0.000053   14.319689


  There are                     40  special pairs.
  @CHECKOUT-I, Total execution time (CPU/WALL):        0.19/       0.05 seconds.
--executable xcphf finished with status     0 in        0.22 seconds (walltime).
 --invoking executable--
/opt/vulcan/opt/vulcan/linux-x86_64/intel-13.0.0/cfour-2.0-yhj426etc3g7hslvbmpgvdymp2w76rob/bin/xsdcc
 @GETMEM-I,  Allocated    6675 MB of main memory.
 Vibrational frequencies and infrared intensities are calculated
 at the CCSD(T) level within the harmonic approximation.
 Perturbed canonical orbitals are used.
  soterm F
 CPHF coefficients for vrt-vrt block: U^x(a,b) = -1/2 S^x(a,b)
 Transformation of derivative integrals from AO to MO basis:
 RHF transformation
 Transformation of DIIII integral derivatives.
 1 pass through the AO integral derivative file was needed.
    507828 AO integral derivatives were read from file DIIII.
 Transformation of first index required    1.7 seconds.
 Transformation of remaining indices required    0.5 seconds.
   3251907 MO integral derivatives were written to file DERINT.
        MO basis integral derivatives are being calculated
             (Symmetry block 1, perturbation   4)
        First derivative of the wavefunction is calculated
             (Symmetry block 1, perturbation   4)
 Resorts of perturbed amplitudes and integrals required   0.0 seconds.
 Construction of <Phi|(dH_N/dx exp(T))c|0> required   0.3 seconds.
 Starting iterative solution of the perturbed CC equations.
 The DIIS procedure is used to accelerate convergence.
 Convergence criterion is 10**(-7).
 Maximum number of iterations is 100.
 Convergence information after     1 iterations: 
 Largest element of residual vector : -0.11776403E-01.
 Largest element of DIIS residual   : -0.11776403E-01.
 Convergence information after     2 iterations: 
 Largest element of residual vector : -0.32200435E-02.
 Largest element of DIIS residual   : -0.29026157E-02.
 Convergence information after     3 iterations: 
 Largest element of residual vector : -0.21510372E-02.
 Largest element of DIIS residual   : -0.14493020E-02.
 Convergence information after     4 iterations: 
 Largest element of residual vector : -0.91125485E-03.
 Largest element of DIIS residual   : -0.38474539E-03.
 Convergence information after     5 iterations: 
 Largest element of residual vector : -0.24288402E-03.
 Largest element of DIIS residual   :  0.12621831E-03.
 Convergence information after     6 iterations: 
 Largest element of residual vector : -0.78885487E-04.
 Largest element of DIIS residual   : -0.37635327E-04.
 Convergence information after     7 iterations: 
 Largest element of residual vector :  0.28405936E-04.
 Largest element of DIIS residual   :  0.21148627E-04.
 Convergence information after     8 iterations: 
 Largest element of residual vector :  0.12378917E-04.
 Largest element of DIIS residual   :  0.51782855E-05.
 Convergence information after     9 iterations: 
 Largest element of residual vector :  0.35509836E-05.
 Largest element of DIIS residual   :  0.19414930E-05.
 Convergence information after    10 iterations: 
 Largest element of residual vector :  0.11407959E-05.
 Largest element of DIIS residual   :  0.65989092E-06.
 Convergence information after    11 iterations: 
 Largest element of residual vector :  0.40778706E-06.
 Largest element of DIIS residual   :  0.28594436E-06.
 Convergence information after    12 iterations: 
 Largest element of residual vector :  0.18721709E-06.
 Largest element of DIIS residual   : -0.12762824E-06.
 Convergence information after    13 iterations: 
 Largest element of residual vector : -0.76331307E-07.
 Largest element of DIIS residual   :  0.43508423E-07.
 Perturbed amplitude equations converged in    13 iterations.
  Dominant contributions to perturbed wavefunction:
    7    7   14   14  -0.0475545036 ABAB
    7    7   17   14   0.0295771907 ABAB
    7    7   14   17   0.0295771907 ABAB
    8    7   14   14  -0.0231099693 ABAB
    7    8   14   14  -0.0231099693 ABAB
    7    7   17   17  -0.0199715080 ABAB
    9    9   12   12   0.0197187557 ABAB
    8    7   17   14   0.0163877349 ABAB
    7    8   14   17   0.0163877349 ABAB
    8    7   17   17  -0.0158908069 ABAB
    7    8   17   17  -0.0158908069 ABAB
    8    7   14   17   0.0155897445 ABAB
    7    8   17   14   0.0155897445 ABAB
    7    5   14   14  -0.0154440137 ABAB
    5    7   14   14  -0.0154440137 ABAB
    7    0   17    0   0.0144825294 AA  
    8    5   14   14  -0.0139084564 ABAB
    5    8   14   14  -0.0139084564 ABAB
    7    0   25    0   0.0136301434 AA  
    9    7   23   14  -0.0130940905 ABAB
  Total CCSD gradient is   -0.010334497184525.
  norm of converged amps   0.313181384557142     
  special occupied indices: 
   Memory requirement in dtrp1rhfd                 935545
  There are                    156  ijk combinations. 
 PARA: timing for (T) xsdcc               13.92 seconds.
 Starting iterative solution of the perturbed Lambda equations.
 The DIIS procedure is used to accelerate convergence.
 Convergence criterion is 10**(-7).
 Maximum number of iterations is 100.
 Convergence information after     1 iterations: 
 Largest element of residual vector : -0.11443045E-01.
 Largest element of DIIS residual   : -0.11443045E-01.
 Convergence information after     2 iterations: 
 Largest element of residual vector : -0.35751957E-02.
 Largest element of DIIS residual   : -0.32201853E-02.
 Convergence information after     3 iterations: 
 Largest element of residual vector : -0.20842099E-02.
 Largest element of DIIS residual   : -0.14606077E-02.
 Convergence information after     4 iterations: 
 Largest element of residual vector : -0.90703412E-03.
 Largest element of DIIS residual   : -0.42241040E-03.
 Convergence information after     5 iterations: 
 Largest element of residual vector : -0.25718563E-03.
 Largest element of DIIS residual   :  0.13044914E-03.
 Convergence information after     6 iterations: 
 Largest element of residual vector : -0.77035363E-04.
 Largest element of DIIS residual   : -0.37559887E-04.
 Convergence information after     7 iterations: 
 Largest element of residual vector :  0.27369696E-04.
 Largest element of DIIS residual   :  0.20922102E-04.
 Convergence information after     8 iterations: 
 Largest element of residual vector :  0.12469441E-04.
 Largest element of DIIS residual   :  0.55199084E-05.
 Convergence information after     9 iterations: 
 Largest element of residual vector :  0.37188733E-05.
 Largest element of DIIS residual   :  0.21202871E-05.
 Convergence information after    10 iterations: 
 Largest element of residual vector :  0.12518125E-05.
 Largest element of DIIS residual   :  0.61628631E-06.
 Convergence information after    11 iterations: 
 Largest element of residual vector :  0.37939581E-06.
 Largest element of DIIS residual   :  0.28330374E-06.
 Convergence information after    12 iterations: 
 Largest element of residual vector :  0.18455360E-06.
 Largest element of DIIS residual   : -0.13363929E-06.
 Convergence information after    13 iterations: 
 Largest element of residual vector : -0.77947926E-07.
 Largest element of DIIS residual   :  0.42739446E-07.
 Perturbed Lambda equations converged in    13 iterations.
  Dominant contributions to perturbed wavefunction:
    7    7   14   14  -0.0536440981 ABAB
    7    7   17   14   0.0332200999 ABAB
    7    7   14   17   0.0332200999 ABAB
    8    7   14   14  -0.0265480250 ABAB
    7    8   14   14  -0.0265480250 ABAB
    7    7   17   17  -0.0230511364 ABAB
    9    9   12   12   0.0224139889 ABAB
    8    7   17   14   0.0185457998 ABAB
    7    8   14   17   0.0185457998 ABAB
    8    7   17   17  -0.0179771490 ABAB
    7    8   17   17  -0.0179771490 ABAB
    8    7   14   17   0.0176883541 ABAB
    7    8   17   14   0.0176883541 ABAB
    7    5   14   14  -0.0173433646 ABAB
    5    7   14   14  -0.0173433646 ABAB
    8    5   14   14  -0.0155615270 ABAB
    5    8   14   14  -0.0155615270 ABAB
    9    7   23   14  -0.0138903785 ABAB
    7    9   14   23  -0.0138903785 ABAB
    7    7   33   14  -0.0136976966 ABAB
  Total CCSD gradient is   -0.011818443472161.
        The first-order density matrix is being calculated 
             (Symmetry block 1, perturbation   4)
  There are                     40  special pairs.
  dD(i,j)/dB
    0.00000110135781     0.00000000000000     0.00000000000000     0.00000000000000
    0.00000000000000     0.00000000000000     0.00000000000000     0.00000000000000
    0.00000000000000     0.00000000000000     0.00001529692379     0.00000000000000
    0.00000000000000     0.00000000000000     0.00000000000000     0.00000000000000
    0.00000000000000     0.00000000000000     0.00000000000000     0.00000000000000
   -0.00105476144775    -0.00041337014628     0.00000000000000     0.00000000000000
    0.00000000000000     0.00000000000000     0.00000000000000     0.00000000000000
    0.00000000000000    -0.00041337014628    -0.00042391649698    -0.00128030739912
   -0.00000003248045     0.00327451005979     0.00259270665690     0.00000000000000
    0.00000000000000     0.00000000000000     0.00000000000000    -0.00128030739912
    0.00184881891820    -0.00000025004272    -0.00330026351070    -0.00527850985673
    0.00000000000000     0.00000000000000     0.00000000000000     0.00000000000000
   -0.00000003248045    -0.00000025004272    -0.00400423257182    -0.00000033975520
    0.00000010154070     0.00060551980167     0.00000000000000     0.00000000000000
    0.00000000000000     0.00327451005979    -0.00330026351070    -0.00000033975520
   -0.01704025629182    -0.00696234930475     0.00000000000000     0.00000000000000
    0.00000000000000     0.00000000000000     0.00259270665690    -0.00527850985673
    0.00000010154070    -0.00696234930475    -0.00068008219725    -0.00000012766456
    0.00000000000000     0.00000000000000     0.00000000000000     0.00000000000000
    0.00000000000000     0.00060551980167     0.00000000000000    -0.00000012766456
    0.00395791851645
checksum dDij   0.0005409423846     0.0764431611610    -0.0389055374922
 Calculation of the contributions of <pq||rs> to dI(i,j)/dx
 required   0.0 seconds.
 Calculation of the contributions of <pq||rs> to dI(a,b)/dx
 required   0.2 seconds.
  dD(ij)/dx contribution from formdxij
    0.00000110135781     -0.00000113910686      0.00004817172859      0.00002275189561
   -0.00005958798189      0.00000000527298     -0.00004864969093      0.00003069798658
    0.00000000170646     -0.00000113910686      0.00001529692379     -0.00001803025286
    0.00005842418401     -0.00005099753801     -0.00000000180737     -0.00003682521691
   -0.00001280015366      0.00000000225561      0.00004817172859     -0.00001803025286
   -0.00105476144775     -0.00039927907582     -0.00087910568802      0.00000028319386
    0.00109474939931      0.00253826805947      0.00000009971715      0.00002275189561
    0.00005842418401     -0.00039927907582     -0.00042391649698     -0.00131301520133
   -0.00000002947112      0.00335909970173      0.00266256332599     -0.00000005927895
   -0.00005958798189     -0.00005099753801     -0.00087910568802     -0.00131301520133
    0.00184881891820     -0.00000025892096     -0.00339816194041     -0.00540530043102
    0.00000004058680      0.00000000527298     -0.00000000180737      0.00000028319386
   -0.00000002947112     -0.00000025892096     -0.00400423257182     -0.00000035223481
    0.00000010226300      0.00063088228306     -0.00004864969093     -0.00003682521691
    0.00109474939931      0.00335909970173     -0.00339816194041     -0.00000035223481
   -0.01704025629182     -0.00719841876925     -0.00000036680265      0.00003069798658
   -0.00001280015366      0.00253826805947      0.00266256332599     -0.00540530043102
    0.00000010226300     -0.00719841876925     -0.00068008219725     -0.00000012865778
    0.00000000170646      0.00000000225561      0.00000009971715     -0.00000005927895
    0.00000004058680      0.00063088228306     -0.00000036680265     -0.00000012865778
    0.00395791851645
 oo  1.282728140976210E-002
 oo -4.992442158287325E-003
 oo  3.996290882138582E-007
 oo -1.032679974465843E-002
 oo  5.271754260963351E-003
 oo  4.482698008078194E-007
 oo -1.009241083339789E-003
 oo  1.610861203299977E-003
 oo -6.552608773296013E-007
 oo -1.714239211449477E-003
 oo -6.897843425565753E-004
 oo  1.770193113410757E-003
 oo -1.714672436640431E-003
 oo -6.910078508407152E-004
 oo -1.770209512760250E-003
 oo  1.937671066326075E-003
 oo -5.093811125787405E-004
 oo -1.762386621930889E-007
 Calculation of the contributions of <pq||rs> to dI(i,a)/dx
 required   0.1 seconds.
 First-order Z-vector equations are solved for 1 perturbation.
 Convergence reached after  23 iterations.
        U*G(pq,rs) contribution is being calculated
             (Symmetry block 1, perturbation   4)

 CCSD(T) contribution to force constants 

        0.0000000000        0.0000000000        0.0000000000
        0.0000000000        0.0000000000        0.0000000000
        0.0000000000        0.0000000000        0.0000000000
        0.0000000000        0.0000000000        0.0000000000
        0.0000000000        0.0000000000        0.0000000000
        0.0000000000        0.0000000000        0.0000000000
        0.0000000000        0.0000000000        0.0000000000
        0.0000000000        0.0000000000        0.0000000000
        0.0000000000        0.0000000000        0.0000000000
        0.0000000000        0.0000000000        0.0000000000
        0.0000000000        0.0000000000        0.0000000000
        0.0000000000        0.0000000000        0.0000000000
        0.0000000000        0.0000000000        0.0000000000
        0.0000000000        0.0000000000        0.0000000000
        0.0000000000        0.0000000000        0.0000000000
        0.0000000000        0.0000000000        0.0000000000
        0.0000000000        0.0000000000        0.0000000000
        0.0000000000        0.0000000000        0.0000000000
        0.0426783477        0.0057331752       -0.0000005275
       -0.0454584583        0.0062904606        0.0000006751
        0.0004927194        0.0015082722       -0.0000004553
       -0.0017535193       -0.0015711208        0.0028056706
       -0.0017533100       -0.0015730008       -0.0028046364
        0.0057942205       -0.0103877863       -0.0000007264
        0.0000000000        0.0000000000        0.0000000000
        0.0000000000        0.0000000000        0.0000000000
        0.0000000000        0.0000000000        0.0000000000
        0.0000000000        0.0000000000        0.0000000000
        0.0000000000        0.0000000000        0.0000000000
        0.0000000000        0.0000000000        0.0000000000
        0.0000000000        0.0000000000        0.0000000000
        0.0000000000        0.0000000000        0.0000000000
        0.0000000000        0.0000000000        0.0000000000
        0.0000000000        0.0000000000        0.0000000000
        0.0000000000        0.0000000000        0.0000000000
        0.0000000000        0.0000000000        0.0000000000
[...]

 H #4 x   -0.073866   -0.032871    0.061486   -0.030063   -0.017329    0.028905
 H #4 y   -0.036547   -0.107981    0.095615   -0.002833    0.004508   -0.000275
 H #4 z    0.064850    0.096636   -0.223758    0.003313   -0.002782    0.008748

 H #5 x   -0.073865   -0.032906   -0.061461   -0.030061   -0.017347   -0.028897
 H #5 y   -0.036587   -0.108098   -0.095688   -0.002832    0.004507    0.000277
 H #5 z   -0.064824   -0.096709   -0.223643   -0.003310    0.002784    0.008742

 H #6 x   -0.022619    0.047067   -0.000001   -0.089010    0.109296    0.000002
 H #6 y   -0.011018   -0.000474    0.000000    0.169332   -0.475387   -0.000008
 H #6 z   -0.000002    0.000002   -0.000662    0.000005   -0.000010   -0.003794


           H #3 x      H #3 y      H #3 z      H #4 x      H #4 y      H #4 z

 H #3 x    0.093411
 H #3 y   -0.090942    0.314248
 H #3 z    0.000028   -0.000087    0.046477

 H #4 x    0.004704    0.003705   -0.008284    0.091745
 H #4 y   -0.009093   -0.012129    0.026050    0.043907    0.107214
 H #4 z   -0.000660   -0.001345    0.000858   -0.075235   -0.106161    0.235222

 H #5 x    0.004704    0.003711    0.008282    0.005656    0.004429    0.006956
 H #5 y   -0.009093   -0.012144   -0.026042    0.004424    0.007809    0.013715
 H #5 z    0.000666    0.001354    0.000874   -0.006958   -0.013733   -0.021274

 H #6 x   -0.008378   -0.001405    0.000001    0.001823    0.000138    0.000775
 H #6 y    0.000592    0.002741   -0.000000   -0.001836    0.000579   -0.000062
 H #6 z   -0.000003    0.000001    0.000633    0.000086   -0.001496    0.000203


           H #5 x      H #5 y      H #5 z      H #6 x      H #6 y      H #6 z

 H #5 x    0.091740
 H #5 y    0.043950    0.107345
 H #5 z    0.075203    0.106242    0.235097

 H #6 x    0.001826    0.000137   -0.000776    0.116358
 H #6 y   -0.001837    0.000581    0.000062   -0.155233    0.471960
 H #6 z   -0.000084    0.001496    0.000204   -0.000002    0.000007    0.003415




                           Total dipole moment
                           -------------------

                               au             Debye

                    x     -0.31204796     -0.79314694
                    y     -0.55235103     -1.40393652
                    z     -0.00002957     -0.00007517

  Conversion factor used: 1 a.u. =   2.54174691 Debye 



                     Total dipole moment derivatives
                     -------------------------------

                              Ex             Ey             Ez

               C #1 x     0.82501812     0.03477737    -0.00005411
               C #1 y    -0.00455434     0.30948094     0.00001272
               C #1 z    -0.00002160     0.00001328     0.43823941

               O #2 x    -0.87642386    -0.02056387     0.00003506
               O #2 y     0.02965333    -0.24425688     0.00000024
               O #2 z    -0.00000326    -0.00002750    -0.53453312

               H #3 x    -0.01195445     0.04050356    -0.00000766
               H #3 y     0.07857666    -0.13182392     0.00006028
               H #3 z    -0.00002373     0.00007035     0.05338915

               H #4 x    -0.09113645    -0.02214780     0.05793770
               H #4 y    -0.06280552    -0.02026002     0.09657660
               H #4 z     0.08584990     0.09340722    -0.15002974

               H #5 x    -0.09112488    -0.02217347    -0.05790665
               H #5 y    -0.06285469    -0.02036052    -0.09665467
               H #5 z    -0.08579983    -0.09348599    -0.14991370

               H #6 x     0.24562153    -0.01039579    -0.00000434
               H #6 y     0.02198457     0.10722040     0.00000483
               H #6 z    -0.00000147     0.00002265     0.34284800



  @CHECKOUT-I, Total execution time (CPU/WALL):        4.90/       2.67 seconds.
--executable xvdint finished with status     0 in        2.83 seconds (walltime).
 --invoking executable--
/opt/vulcan/opt/vulcan/linux-x86_64/intel-13.0.0/cfour-2.0-yhj426etc3g7hslvbmpgvdymp2w76rob/bin/xjoda
 @GETREC: requested length of vector OCCUPYA0 is longer than actual
 Actual --                      1  Requested --                      8
 @GETREC: requested length of vector OCCUPYA0 is longer than actual
 Actual --                      1  Requested --                      8
  igrd and ihes are                      0                     0
  fetching hessian                    324
  masses used (in AMU) in vibrational analysis: 
  12.000000000     15.994914630      1.007825035
   1.007825035      1.007825035      1.007825035
                     Normal Coordinate Analysis
  ----------------------------------------------------------------
    Irreducible         Harmonic       Infrared        Type 
   Representation       Frequency      Intensity 
  ----------------------------------------------------------------
                       (cm-1)         (km/mol)
  ----------------------------------------------------------------
      ----                 1.7403i        4.4854       ROTATION  
      ----                 0.7292i        5.1333       ROTATION  
      ----                 0.0384         0.0638      TRANSLATION
      ----                 0.2866         0.0349      TRANSLATION
      ----                 0.3660         0.0114      TRANSLATION
      ----                 2.1212        17.3998       ROTATION  
         A               347.7397       110.4838       VIBRATION 
         A              1075.2063        86.6448       VIBRATION 
         A              1101.8077        17.0523       VIBRATION 
         A              1173.2585         1.6805       VIBRATION 
         A              1406.5182        28.0722       VIBRATION 
         A              1485.5642         9.7905       VIBRATION 
         A              1491.8270         1.2436       VIBRATION 
         A              1509.9127         3.1453       VIBRATION 
         A              3004.3912        60.0438       VIBRATION 
         A              3061.0605        82.1802       VIBRATION 
         A              3141.0416        36.1771       VIBRATION 
         A              3841.3710        18.7531       VIBRATION 
  ----------------------------------------------------------------
 
 
                                   Normal Coordinates 

                 A                         A                         A
               347.74                   1075.21                   1101.81 
             VIBRATION                 VIBRATION                 VIBRATION 
 C      0.000-0.0000  0.0076    0.3145 -0.2106 -0.0000    0.5925  0.1720  0.0000
 O     -0.000 0.0000 -0.2434   -0.4358  0.0101  0.0000   -0.5385 -0.0605 -0.0000
 H      0.000 0.0001  0.2866    0.5381  0.1068  0.0000   -0.1569 -0.0707 -0.0000
 H      0.051-0.2171 -0.1013   -0.1653  0.1869  0.0307    0.2880 -0.1051 -0.0264
 H     -0.051 0.2170 -0.1014   -0.1655  0.1868 -0.0307    0.2883 -0.1050  0.0264
 H     -0.000-0.0000  0.8594    0.4437  0.2060 -0.0001   -0.3185 -0.0714  0.0000

                 A                         A                         A
              1173.26                   1406.52                   1485.56 
             VIBRATION                 VIBRATION                 VIBRATION 
 C      0.000 0.0000 -0.4258    0.0711 -0.3730  0.0000    0.3530 -0.0575  0.0002
 O     -0.000 0.0000  0.2212    0.0841  0.2784  0.0000    0.0374 -0.0168  0.0000
 H     -0.000 0.0000  0.2445    0.3305  0.0037  0.0000   -0.5874 -0.2518 -0.0006
 H      0.564 0.0807  0.1722   -0.1011  0.1893  0.1138   -0.4012  0.2578 -0.0544
 H     -0.564-0.0808  0.1722   -0.1012  0.1892 -0.1139   -0.4017  0.2585  0.0541
 H     -0.000-0.0000 -0.0010   -0.7087 -0.2042 -0.0000    0.0230  0.0009  0.0000

                 A                         A                         A
              1491.83                   1509.91                   3004.39 
             VIBRATION                 VIBRATION                 VIBRATION 
 C      0.000-0.0001 -0.1969    0.1429  0.1241 -0.0000    0.1494  0.0941 -0.0000
 O      0.000-0.0000 -0.0347    0.0306  0.0849 -0.0000    0.0064 -0.0004  0.0000
 H     -0.000 0.0000  0.7097    0.2202  0.0821 -0.0002   -0.0957  0.2787 -0.0001
 H     -0.292 0.3736  0.0577   -0.3450 -0.4059 -0.3942   -0.2247 -0.2993  0.5486
 H      0.291-0.3733  0.0582   -0.3452 -0.4055  0.3945   -0.2247 -0.2996 -0.5483
 H      0.000-0.0000 -0.0076   -0.1449 -0.0374 -0.0000    0.0040 -0.0026 -0.0000

                 A                         A                         A
              3061.06                   3141.04                   3841.37 
             VIBRATION                 VIBRATION                 VIBRATION 
 C      0.000 0.0001  0.3097    0.0530 -0.2949  0.0001    0.0041  0.0090 -0.0000
 O     -0.000-0.0000 -0.0013   -0.0015  0.0058 -0.0000   -0.0899  0.2245  0.0000
 H     -0.000 0.0000  0.0243   -0.3043  0.8638 -0.0003    0.0015 -0.0138  0.0000
 H      0.230 0.3231 -0.5423    0.0646  0.0728 -0.1617    0.0036 -0.0005  0.0008
 H     -0.230-0.3234 -0.5421    0.0646  0.0729  0.1617    0.0036 -0.0005 -0.0008
 H      0.000 0.0000 -0.0034   -0.0018 -0.0152  0.0000    0.3351 -0.9104 -0.0000
            Gradient vector in normal coordinate representation
         ----------------------------------------------------------
   i    W(I)     dE/dQ(i)     dE/dq      dE/dq     [dE/dQ(i)]/w(i)
                              (cm-1)      (eV)        (relative)
         ----------------------------------------------------------
    7   347.74 -0.0000022561     -0.29136     -0.00004   0.0000000000
    8  1075.21  0.0000006821      0.05009      0.00001   0.0000000000
    9  1101.81  0.0000004363      0.03165      0.00000   0.0000000000
   10  1173.26 -0.0000003868     -0.02719     -0.00000   0.0000000000
   11  1406.52  0.0000002439      0.01566      0.00000   0.0000000000
   12  1485.56  0.0000003281      0.02050      0.00000   0.0000000000
   13  1491.83 -0.0000015912     -0.09921     -0.00001   0.0000000000
   14  1509.91  0.0000003352      0.02077      0.00000   0.0000000000
   15  3004.39 -0.0000012978     -0.05702     -0.00001   0.0000000000
   16  3061.06  0.0000003909      0.01701      0.00000   0.0000000000
   17  3141.04 -0.0000012646     -0.05434     -0.00001   0.0000000000
   18  3841.37  0.0000054115      0.21027      0.00003   0.0000000000
         ----------------------------------------------------------
 
                      Normal modes in internal coordinates 
---------------------------------------------------------------------------
              1.740         0.729         0.038         0.287         0.366
---------------------------------------------------------------------------
R1         0.000000     -0.000001      0.000000      0.000000      0.000000
R2        -0.000000      0.000000     -0.000000      0.000000      0.000000
A2         0.000003     -0.000003      0.000000      0.000000      0.000000
R3         0.000000      0.000000     -0.000000     -0.000000     -0.000000
A3         0.000000      0.000001     -0.000000     -0.000000      0.000000
D3        -0.000001      0.000000     -0.000000     -0.000000     -0.000000
R3        -0.000000     -0.000000      0.000000      0.000000     -0.000000
A3        -0.000001      0.000001     -0.000000     -0.000000     -0.000000
D4         0.000001     -0.000001      0.000000      0.000000     -0.000000
R5         0.000000     -0.000000      0.000000      0.000000     -0.000000
A5        -0.000003      0.000006     -0.000001     -0.000001     -0.000000
D5        -0.000011      0.000025     -0.000003     -0.000002      0.000003
---------------------------------------------------------------------------
              2.121       347.740      1075.206      1101.808      1173.259
---------------------------------------------------------------------------
R1        -0.000000     -0.000015     -0.380792     -0.770123     -0.000055
R2         0.000001     -0.000007      0.007361     -0.000275     -0.000002
A2        -0.000001     -0.000046     -0.496639      0.462124      0.000195
R3         0.000001     -0.004000      0.007921      0.018747     -0.004380
A3        -0.000000      0.001278      0.266786     -0.163628     -0.514064
D3        -0.000002      0.008176      0.264211     -0.214617      0.458979
R3        -0.000001      0.004011      0.007916      0.018736      0.004378
A3         0.000001     -0.001247      0.267047     -0.164057      0.513880
D4        -0.000003      0.008142     -0.263948      0.214237      0.459183
R5        -0.000001      0.000005     -0.016046     -0.019489     -0.000002
A5         0.000001     -0.000004      0.570916     -0.215922     -0.000035
D5         0.000201     -0.999916     -0.000010      0.000108     -0.223868
---------------------------------------------------------------------------
           1406.518      1485.564      1491.827      1509.913      3004.391
---------------------------------------------------------------------------
R1         0.016280     -0.172076     -0.000098     -0.066442     -0.042243
R2        -0.002657      0.030863      0.000010     -0.035103      0.278224
A2        -0.363210      0.640781      0.000334     -0.160809      0.029847
R3        -0.000567      0.023802      0.029136      0.046755      0.678107
A3         0.139650      0.472473      0.126146      0.394645      0.004157
D3         0.308511      0.234343      0.632759     -0.559575     -0.009638
R3        -0.000563      0.023899     -0.029099      0.046778      0.678055
A3         0.139815      0.472898     -0.125556      0.394782      0.004162
D4        -0.308288     -0.236455      0.632655      0.559110      0.009642
R5         0.026281     -0.000590     -0.000001      0.009059      0.003072
A5        -0.798651      0.002782     -0.000010     -0.163435      0.009932
D5        -0.000032      0.000663     -0.407419      0.000161      0.000002
---------------------------------------------------------------------------
           3061.060      3141.042      3841.371
---------------------------------------------------------------------------
R1        -0.000002     -0.010504     -0.020218
R2         0.000013      0.950310     -0.015020
A2         0.000001     -0.043049     -0.017384
R3        -0.702428     -0.210467      0.001117
A3         0.047735      0.028688      0.008113
D3        -0.061138      0.040631      0.006098
R3         0.702473     -0.210471      0.001125
A3        -0.047734      0.028687      0.008124
D4        -0.061137     -0.040628     -0.006091
R5        -0.000006      0.014432      0.999365
A5         0.000012     -0.034598     -0.011149
D5         0.033087     -0.000008      0.000000
---------------------------------------------------------------------------
 
  ----------------------------------------------------------------
                    Dipole Moment Function
                   (Normal Coordinate Basis)
  ----------------------------------------------------------------
    Mode     Symmetry    d(Mu(x))/dQ   d(Mu(y))/dQ   d(Mu(z))/dQ
  ----------------------------------------------------------------
     Q7           A        0.000008      0.000029      0.336648
     Q8           A        0.297667      0.016515     -0.000025
     Q9           A        0.131615      0.013017     -0.000006
     Q10          A        0.000001     -0.000001     -0.041519
     Q11          A       -0.166318     -0.033677     -0.000009
     Q12          A        0.100055      0.005649     -0.000043
     Q13          A        0.000111      0.000014      0.035716
     Q14          A        0.041320     -0.038975     -0.000005
     Q15          A        0.229989      0.093257     -0.000046
     Q16          A       -0.000005      0.000083      0.290342
     Q17          A        0.035340     -0.189370      0.000062
     Q18          A        0.082837     -0.111241     -0.000011
  ----------------------------------------------------------------
---------------------------------------------------------------------------
------------------------------------------------------------
        Parameter                (MHz)                 (CM-1)
------------------------------------------------------------
 
           R6                0.947278E-03           0.315978E-07
           R5                -.991120E-03           -.330602E-07
           SI                            0.226158E+03
 
  A-reduced centrifugal distortion parameters (Ir representation) 
 
           DJ                0.492788E-01           0.164376E-05
           DK                0.103764E+01           0.346120E-04
           DJK               0.258256E+00           0.861448E-05
           DELJ              0.473842E-01           0.158057E-05
           DELK              0.102817E+01           0.342960E-04
           DELJK             0.269623E+00           0.899365E-05
           delJ              0.158829E-02           0.529797E-07
           delK              -.854956E+00           -.285183E-04
 
  S-reduced centrifugal distortion parameters (Ir representation) 
 
           DJ                0.492744E-01           0.164362E-05
           DK                0.103762E+01           0.346113E-04
           DJK               0.258282E+00           0.861535E-05
           D1                -.158829E-02           -.529797E-07
           D2                0.945087E-03           0.315247E-07
------------------------------------------------------------
  ierr and ierr2                      1                     1
   Vibrational frequencies after rotational projection  of 
   Cartesian force constants: 
            1               0.4861i
            2               0.2242i
            3               0.1335i
            4               0.1449 
            5               0.2881 
            6               0.3845 
            7             347.7399 
            8            1075.2064 
            9            1101.8077 
           10            1173.2585 
           11            1406.5182 
           12            1485.5642 
           13            1491.8270 
           14            1509.9127 
           15            3004.3912 
           16            3061.0605 
           17            3141.0416 
           18            3841.3710 
  Zero-point energy:   32.3662 kcal/mol =  135.4204 kJ/mol =   11320.258 cm-1 
 
  Finite temperature thermodynamic corrections:
=======================================================
Temperature     Entropy       Enthalpy     Gibbs Energy
    (K)        (J/(mol K))    (kJ/mol)      (kJ/mol) 
=======================================================
    298.15      237.5328       11.1156      -59.7048
    100.00      195.6517        3.3539      -16.2113
    200.00      221.0202        7.0382      -37.1659
    300.00      237.8092       11.1983      -60.1445
    400.00      251.7654       16.0690      -84.6371
    500.00      264.4828       21.7840     -110.4574
    600.00      276.3664       28.3137     -137.5061
    700.00      287.5407       35.5714     -165.7071
    800.00      298.0767       43.4683     -194.9930
    900.00      308.0337       51.9272     -225.3031
   1000.00      317.4636       60.8814     -256.5822
   1100.00      326.4116       70.2730     -288.7798
   1200.00      334.9172       80.0509     -321.8497
   1300.00      343.0150       90.1698     -355.7496
   1400.00      350.7358      100.5899     -390.4402
   1500.00      358.1074      111.2760     -425.8851
   1600.00      365.1550      122.1971     -462.0509
   1700.00      371.9015      133.3264     -498.9061
   1800.00      378.3679      144.6403     -536.4218
   1900.00      384.5733      156.1183     -574.5710
   2000.00      390.5354      167.7424     -613.3284
=======================================================
  @CHECKOUT-I, Total execution time (CPU/WALL):        0.01/       0.04 seconds.
--executable xjoda finished with status     0 in        0.05 seconds (walltime).
  The final electronic energy is      -115.425366523672182 a.u. 
  This computation required                          139.42 seconds (walltime).
