
 Primary working directories    : /tmp/795519.92.gen6.q
 Secondary working directories  : /tmp/795519.92.gen6.q
 Wavefunction directory         : /home/vulcan/mel64643/wfu/
 Main file repository           : /tmp/795519.92.gen6.q/

 ARCHNAME  : Linux/x86_64
 FC        : /opt/intel/compilers_and_libraries_2016.1.150/linux/bin/intel64/ifort
 FCVERSION : 16.0.1
 BLASLIB   : -mkl
 id        : ccgc

 Nodes     nprocs
 n083         1
 ga_uses_ma=false, calling ma_init with nominal heap.
 GA-space will be limited to   8.0 MW (determined by -G option)

 Using customized tuning parameters: mindgm=10; mindgv=16; mindgc=4; mindgr=1; noblas=0; mincuda=1000; minvec=7
 default implementation of scratch files=df  

 ***,Optimization of min3
 memory,1000,m
 gthresh,energy=1.0d-12,orbital=1.0d-10,oneint=1.0d-16,twoint=1.0d-16,optgrad=1.0d-6,compress=1.0d-13
 geomtyp=xyz
 
  bohr
  geometry = {
  6
  arbitrary comment
  C   -1.3752525019   -0.0216982463    0.0000004751
  O    1.3053182928    0.1256875210    0.0000001986
  H   -2.0760727105    1.9032501515   -0.0000796956
  H   -2.1098892589   -0.9780237534    1.6857390435
  H   -2.1098821450   -0.9781553068   -1.6856671026
  H    1.9420541635   -1.5811924859   -0.0000013291
 }
 
 basis=cc-pvdz
 {rhf;maxit,200}
 {ccsd(t);maxit,200}

 Variables initialized (661), CPU time= 0.00 sec
 Commands  initialized (458), CPU time= 0.01 sec, 486 directives.
 Default parameters read. Elapsed time= 0.05 sec

 Checking input...
 Passed
1


                                         ***  PROGRAM SYSTEM MOLPRO  ***
                         Copyright, University College Cardiff Consultants Limited, 2008

                                    Version 2010.1 linked May 16 2016 07:17:05


 **********************************************************************************************************************************
 LABEL *   Optimization of min3                                                          
 Linux-4.4.3/n083(x86_64) 64 bit mpp version                                             DATE: 24-Oct-22          TIME: 15:42:51  
 **********************************************************************************************************************************

 SHA1:             9e8077add272b0f3cad6f7df79ec5211205f459d
 **********************************************************************************************************************************

 THRESHOLDS:

 ZERO    =  1.00D-12  ONEINT  =  1.00D-16  TWOINT  =  1.00D-16  PREFAC  =  1.00D-14  LOCALI  =  1.00D-09  EORDER  =  1.00D-04
 ENERGY  =  1.00D-12  ETEST   =  0.00D+00  EDENS   =  0.00D+00  THRDEDEF=  1.00D-06  GRADIENT=  1.00D-02  STEP    =  1.00D-03
 ORBITAL =  1.00D-10  CIVEC   =  1.00D-05  COEFF   =  1.00D-04  PRINTCI =  5.00D-02  PUNCHCI =  9.90D+01  OPTGRAD =  1.00D-06
 OPTENERG=  1.00D-06  OPTSTEP =  3.00D-04  THRGRAD =  1.00D-10  COMPRESS=  1.00D-13  VARMIN  =  1.00D-07  VARMAX  =  1.00D-03
 THRDOUB =  0.00D+00  THRDIV  =  1.00D-05  THRRED  =  1.00D-07  THRPSP  =  1.00D+00  THRDC   =  1.00D-10  THRCS   =  1.00D-10
 THRNRM  =  1.00D-08  THREQ   =  0.00D+00  THRDE   =  1.00D+00  THRREF  =  1.00D-05  SPARFAC =  1.00D+00  THRDLP  =  1.00D-07
 THRDIA  =  1.00D-10  THRDLS  =  1.00D-07  THRGPS  =  0.00D+00  THRKEX  =  0.00D+00  THRDIS  =  2.00D-01  THRVAR  =  1.00D-10
 THRLOC  =  1.00D-06  THRGAP  =  1.00D-06  THRLOCT = -1.00D+00  THRGAPT = -1.00D+00  THRORB  =  1.00D-06  THRMLTP =  0.00D+00
 THRCPQCI=  1.00D-10  KEXTA   =  0.00D+00  THRCOARS=  0.00D+00  SYMTOL  =  1.00D-06  GRADTOL =  1.00D-06  THROVL  =  1.00D-08
 THRORTH =  1.00D-08  GRID    =  1.00D-06  GRIDMAX =  1.00D-03  DTMAX   =  0.00D+00

 SETTING GEOMTYP        =    XYZ
 ZUNIT=BOHR
 

 Variable memory set to 1000000000 words,  buffer space   230000 words

 SETTING BASIS          =    CC-PVDZ


 Recomputing integrals since basis changed


 Using spherical harmonics

 Library entry C      S cc-pVDZ              selected for orbital group  1
 Library entry C      P cc-pVDZ              selected for orbital group  1
 Library entry C      D cc-pVDZ              selected for orbital group  1
 Library entry O      S cc-pVDZ              selected for orbital group  2
 Library entry O      P cc-pVDZ              selected for orbital group  2
 Library entry O      D cc-pVDZ              selected for orbital group  2
 Library entry H      S cc-pVDZ              selected for orbital group  3
 Library entry H      P cc-pVDZ              selected for orbital group  3

1PROGRAM * SEWARD (Integral evaluation for generally contracted gaussian basis sets)     Author: Roland Lindh, 1990

 Geometry written to block  1 of record 700


 Point group  C1  



 ATOMIC COORDINATES

 NR  ATOM    CHARGE       X              Y              Z

   1  C       6.00   -1.375252502   -0.021698246    0.000000475
   2  O       8.00    1.305318293    0.125687521    0.000000199
   3  H       1.00   -2.076072711    1.903250151   -0.000079696
   4  H       1.00   -2.109889259   -0.978023753    1.685739043
   5  H       1.00   -2.109882145   -0.978155307   -1.685667103
   6  H       1.00    1.942054163   -1.581192486   -0.000001329

 Bond lengths in Bohr (Angstrom)

 1-2  2.684619591  1-3  2.048554443  1-4  2.072670780  1-5  2.072671224  2-6  1.821777134
     ( 1.420639503)     ( 1.084048323)     ( 1.096810138)     ( 1.096810374)     ( 0.964042939)

 Bond angles

  1-2-6  107.31044334   2-1-3  106.85803509   2-1-4  112.28636498   2-1-5  112.28635313

  3-1-4  108.19995213   3-1-5  108.19977665   4-1-5  108.83920589

 NUCLEAR CHARGE:                   18
 NUMBER OF PRIMITIVE AOS:          82
 NUMBER OF SYMMETRY AOS:           80
 NUMBER OF CONTRACTIONS:           48   (  48A   )
 NUMBER OF CORE ORBITALS:           2   (   2A   )
 NUMBER OF VALENCE ORBITALS:       12   (  12A   )


 NUCLEAR REPULSION ENERGY   40.29069444


 Eigenvalues of metric

         1 0.966E-02 0.177E-01 0.366E-01 0.376E-01 0.383E-01 0.476E-01 0.479E-01 0.516E-01


 Contracted 2-electron integrals neglected if value below      1.0D-16
 AO integral compression algorithm  1   Integral accuracy      1.0D-16

     6.554 MB (compressed) written to integral file ( 94.6%)

     Node minimum: 6.554 MB, node maximum: 6.554 MB


 NUMBER OF SORTED TWO-ELECTRON INTEGRALS:     692076.     BUFFER LENGTH:  32768
 NUMBER OF SEGMENTS:   1  SEGMENT LENGTH:     692076      RECORD LENGTH: 524288

 Memory used in sort:       1.25 MW

 SORT1 READ      832256. AND WROTE      682147. INTEGRALS IN      2 RECORDS. CPU TIME:     0.01 SEC, REAL TIME:     0.01 SEC
 SORT2 READ      682147. AND WROTE      692076. INTEGRALS IN     25 RECORDS. CPU TIME:     0.02 SEC, REAL TIME:     0.02 SEC

 FILE SIZES:   FILE 1:     8.0 MBYTE,  FILE 4:     8.4 MBYTE,   TOTAL:     16.4 MBYTE

 OPERATOR DM      FOR CENTER  0  COORDINATES:    0.000000    0.000000    0.000000


 **********************************************************************************************************************************
 DATASETS  * FILE   NREC   LENGTH (MB)   RECORD NAMES
              1      19        8.03       500      610      700      900      950      970     1000      129      960     1100   
                                          VAR    BASINP    GEOM    SYMINP    ZMAT    AOBASIS   BASIS     P2S    ABASIS      S 
                                         1400     1410     1200     1210     1080     1600     1650     1300     1700   
                                           T        V       H0       H01     AOSYM     SMH    MOLCAS    ERIS     OPER   

 PROGRAMS   *        TOTAL       INT
 CPU TIMES  *         0.18      0.14
 REAL TIME  *         0.39 SEC
 DISK USED  *        23.61 MB      
 GA USED    *         0.00 MB       (max)       0.00 MB       (current)
 **********************************************************************************************************************************

1PROGRAM * RHF-SCF (CLOSED SHELL)       Authors: W. Meyer, H.-J. Werner


 NUMBER OF ELECTRONS:       9+    9-    SPACE SYMMETRY=1    SPIN SYMMETRY: Singlet 
 CONVERGENCE THRESHOLDS:    1.00E-10 (Density)    1.00E-13 (Energy)
 MAX. NUMBER OF ITERATIONS:      200
 INTERPOLATION TYPE:            DIIS
 INTERPOLATION STEPS:              2 (START)      1 (STEP)
 LEVEL SHIFTS:                  0.00 (CLOSED)  0.00 (OPEN) 



 Orbital guess generated from atomic densities. Full valence occupancy:   14

 Molecular orbital dump at record        2100.2

 ITERATION    DDIFF          GRAD             ENERGY        2-EL.EN.            DIPOLE MOMENTS         DIIS
    1      0.000D+00      0.000D+00      -115.01395425    164.367507   -0.49138   -0.90803   -0.00000    0
    2      0.000D+00      0.110D-01      -115.04237823    162.138807   -0.31466   -0.53601   -0.00000    1
    3      0.205D-01      0.531D-02      -115.04843898    163.168917   -0.39864   -0.61162   -0.00000    2
    4      0.640D-02      0.113D-02      -115.04890619    163.011725   -0.38882   -0.59977   -0.00000    3
    5      0.204D-02      0.204D-03      -115.04892764    163.018238   -0.39181   -0.59525   -0.00000    4
    6      0.436D-03      0.360D-04      -115.04892847    163.018421   -0.39216   -0.59500   -0.00000    5
    7      0.941D-04      0.752D-05      -115.04892850    163.017212   -0.39231   -0.59482   -0.00000    6
    8      0.154D-04      0.243D-05      -115.04892850    163.017604   -0.39236   -0.59479   -0.00000    7
    9      0.517D-05      0.502D-06      -115.04892850    163.017563   -0.39237   -0.59479   -0.00000    6
   10      0.144D-05      0.915D-07      -115.04892850    163.017562   -0.39237   -0.59479   -0.00000    6
   11      0.243D-06      0.340D-07      -115.04892850    163.017568   -0.39237   -0.59479   -0.00000    6
   12      0.617D-07      0.145D-07      -115.04892850    163.017566   -0.39237   -0.59479   -0.00000    7
   13      0.272D-07      0.316D-08      -115.04892850    163.017566   -0.39237   -0.59479   -0.00000    7
   14      0.792D-08      0.665D-09      -115.04892850    163.017566   -0.39237   -0.59479   -0.00000    7
   15      0.169D-08      0.156D-09      -115.04892850    163.017566   -0.39237   -0.59479   -0.00000    7
   16      0.347D-09      0.470D-10      -115.04892850    163.017566   -0.39237   -0.59479   -0.00000    7
   17      0.904D-10      0.170D-10      -115.04892850    163.017566   -0.39237   -0.59479   -0.00000    7
   18      0.434D-10      0.306D-11      -115.04892850    163.017566   -0.39237   -0.59479   -0.00000    7
   19      0.714D-11      0.630D-12      -115.04892850    163.017566   -0.39237   -0.59479   -0.00000    0

 Final occupancy:   9

 !RHF STATE 1.1 Energy               -115.048928501808
 Nuclear energy                        40.29069444
 One-electron energy                 -236.84840591
 Two-electron energy                   81.50878297
 Virial quotient                       -1.00098499
 !RHF STATE 1.1 Dipole moment          -0.39237441    -0.59479262    -0.00000272
 Dipole moment /Debye                  -0.99725095    -1.51171303    -0.00000691

 Orbital energies:

         1.1          2.1          3.1          4.1          5.1          6.1          7.1          8.1          9.1         10.1
    -20.550448   -11.274576    -1.349024    -0.920974    -0.681811    -0.613258    -0.585364    -0.497143    -0.442821     0.184238

        11.1
      0.224079


 **********************************************************************************************************************************
 DATASETS  * FILE   NREC   LENGTH (MB)   RECORD NAMES
              1      19        8.03       500      610      700      900      950      970     1000      129      960     1100   
                                          VAR    BASINP    GEOM    SYMINP    ZMAT    AOBASIS   BASIS     P2S    ABASIS      S 
                                         1400     1410     1200     1210     1080     1600     1650     1300     1700   
                                           T        V       H0       H01     AOSYM     SMH    MOLCAS    ERIS     OPER   

              2       3        0.39       700     1000     2100   
                                         GEOM     BASIS     RHF  

 PROGRAMS   *        TOTAL       RHF       INT
 CPU TIMES  *         0.26      0.08      0.14
 REAL TIME  *         0.51 SEC
 DISK USED  *        23.61 MB      
 GA USED    *         0.00 MB       (max)       0.00 MB       (current)
 **********************************************************************************************************************************


1PROGRAM * CCSD (Closed-shell coupled cluster)     Authors: C. Hampel, H.-J. Werner, 1991, M. Deegan, P.J. Knowles, 1992


 Convergence thresholds:  THRVAR = 1.00D-08  THRDEN = 1.00D-12

 CCSD(T)     terms to be evaluated (factor= 1.000)


 Number of core orbitals:           2 (   2 )
 Number of closed-shell orbitals:   7 (   7 )
 Number of external orbitals:      39 (  39 )

 Molecular orbitals read from record     2100.2  Type=RHF/CANONICAL (state 1.1)

 Number of N-1 electron functions:               7
 Number of N-2 electron functions:              28
 Number of singly external CSFs:               273
 Number of doubly external CSFs:             37401
 Total number of CSFs:                       37675

 Length of J-op  integral file:               0.00 MB
 Length of K-op  integral file:               0.19 MB
 Length of 3-ext integral record:             0.00 MB

 Memory could be reduced to 0.96 Mwords without degradation in triples

 Integral transformation finished. Total CPU:   0.01 sec, npass=  1  Memory used:   0.66 MW

 Reference energy:                   -115.04892850

 MP2 singlet pair energy:              -0.21877740
 MP2 triplet pair energy:              -0.11990083
 MP2 correlation energy:               -0.33867823
 MP2 total energy:                   -115.38760674

 SCS-MP2 correlation energy:           -0.33713785   (PS=  1.200000  PT=  0.333333)
 SCS-MP2 total energy:               -115.38606635

 ITER.      SQ.NORM     CORR.ENERGY   TOTAL ENERGY   ENERGY CHANGE        DEN1      VAR(S)    VAR(P)  DIIS     TIME
   1      1.10746375    -0.36145874  -115.41038724    -0.02278051    -0.01407910  0.92D-03  0.17D-02  1  1     0.04
   2      1.11601488    -0.36340943  -115.41233793    -0.00195069    -0.00926813  0.20D-04  0.16D-03  2  2     0.07
   3      1.11791044    -0.36353739  -115.41246590    -0.00012797    -0.00121182  0.96D-05  0.87D-05  3  3     0.11
   4      1.11843009    -0.36353612  -115.41246462     0.00000127    -0.00025671  0.34D-06  0.68D-06  4  4     0.14
   5      1.11852941    -0.36353654  -115.41246504    -0.00000042    -0.00003639  0.10D-06  0.50D-07  5  5     0.17
   6      1.11854886    -0.36353516  -115.41246366     0.00000138    -0.00000443  0.16D-07  0.42D-08  6  6     0.20
   7      1.11855374    -0.36353474  -115.41246324     0.00000043    -0.00000036  0.21D-08  0.74D-09  6  1     0.23
   8      1.11855504    -0.36353484  -115.41246334    -0.00000010     0.00000076  0.26D-09  0.75D-10  6  3     0.27
   9      1.11855613    -0.36353472  -115.41246322     0.00000013    -0.00000039  0.13D-10  0.11D-10  6  2     0.30
  10      1.11855605    -0.36353472  -115.41246322    -0.00000000     0.00000007  0.11D-11  0.90D-12  6  5     0.33
  11      1.11855608    -0.36353472  -115.41246322     0.00000000    -0.00000000  0.20D-12  0.52D-13  6  4     0.36
  12      1.11855607    -0.36353472  -115.41246322    -0.00000000     0.00000001  0.19D-13  0.11D-13  6  1     0.39
  13      1.11855607    -0.36353472  -115.41246322    -0.00000000    -0.00000000  0.24D-14  0.97D-15  6  6     0.43
  14      1.11855607    -0.36353472  -115.41246322     0.00000000    -0.00000000  0.22D-15  0.13D-15  6  3     0.46
  15      1.11855607    -0.36353472  -115.41246322    -0.00000000    -0.00000000  0.26D-16  0.17D-16  6  2     0.49
  16      1.11855607    -0.36353472  -115.41246322    -0.00000000    -0.00000000  0.58D-17  0.17D-17  6  5     0.53
  17      1.11855607    -0.36353472  -115.41246322    -0.00000000    -0.00000000  0.55D-18  0.26D-18  6  4     0.56
  18      1.11855607    -0.36353472  -115.41246322     0.00000000    -0.00000000  0.85D-19  0.44D-19  6  1     0.59
  19      1.11855607    -0.36353472  -115.41246322    -0.00000000    -0.00000000  0.98D-20  0.44D-20  6  6     0.62
  20      1.11855607    -0.36353472  -115.41246322     0.00000000     0.00000000  0.14D-20  0.57D-21  6  3     0.66

 Norm of t1 vector:      0.04181236      S-energy:    -0.00000000      T1 diagnostic:  0.00790179
                                                                       D1 diagnostic:  0.01754391


 Total CPU time for triples:      0.16 sec


 RESULTS
 =======

  Reference energy                   -115.048928501808
  CCSD singlet pair energy             -0.254763946704
  CCSD triplet pair energy             -0.108770770951
  CCSD correlation energy              -0.363534717655

  Triples (T) contribution             -0.007754488935
  Total correlation energy             -0.371289206590

  CCSD total energy                  -115.412463219463
  CCSD[T] energy                     -115.420508914284
  CCSD-T energy                      -115.420067189880
 !CCSD(T) total energy               -115.420217708398

 Timing summary (sec):

 STEP                 CPU(USER)    SYS     CPU(TOT)    WALL
 Transformation          0.01      0.00      0.01      0.03
 CCSD iterations         0.65      0.04      0.69      0.72
 Triples                 0.16      0.00      0.16      0.17

 Program statistics:

 Available memory in ccsd:               999999704
 Min. memory needed in ccsd:                136801
 Max. memory used in ccsd:                  163198
 Max. memory used in cckext:                182024 (20 integral passes)



 **********************************************************************************************************************************
 DATASETS  * FILE   NREC   LENGTH (MB)   RECORD NAMES
              1      20       10.57       500      610      700      900      950      970     1000      129      960     1100   
                                          VAR    BASINP    GEOM    SYMINP    ZMAT    AOBASIS   BASIS     P2S    ABASIS      S 
                                         1400     1410     1200     1210     1080     1600     1650     1300     1700     1380   
                                           T        V       H0       H01     AOSYM     SMH    MOLCAS    ERIS     OPER     JKOP   

              2       3        0.39       700     1000     2100   
                                         GEOM     BASIS     RHF  

 PROGRAMS   *        TOTAL   CCSD(T)       RHF       INT
 CPU TIMES  *         1.10      0.84      0.08      0.14
 REAL TIME  *         1.45 SEC
 DISK USED  *        25.03 MB      
 GA USED    *         0.00 MB       (max)       0.00 MB       (current)
 **********************************************************************************************************************************

        CCSD(T)         RHF-SCF 
   -115.42021771   -115.04892850
 **********************************************************************************************************************************
 Variable memory released
