
 Primary working directories    : /tmp/601555.53.gen4.q
 Secondary working directories  : /tmp/601555.53.gen4.q
 Wavefunction directory         : /home/vulcan/mel64643/wfu/
 Main file repository           : /tmp/601555.53.gen4.q/

 ARCHNAME  : Linux/x86_64
 FC        : /opt/intel/compilers_and_libraries_2016.1.150/linux/bin/intel64/ifort
 FCVERSION : 16.0.1
 BLASLIB   : -mkl
 id        : ccgc

 Nodes     nprocs
 n058         1
 ga_uses_ma=false, calling ma_init with nominal heap.
 GA-space will be limited to   8.0 MW (determined by -G option)

 Using customized tuning parameters: mindgm=10; mindgv=16; mindgc=4; mindgr=1; noblas=0; mincuda=1000; minvec=7
 default implementation of scratch files=df  

 ***,Optimization of min3
 memory,1000,m
 gthresh,energy=1.0d-12,orbital=1.0d-10,oneint=1.0d-16,twoint=1.0d-16,optgrad=1.0d-6,compress=1.0d-13
 geomtyp=xyz
 
  bohr
  geometry = {
  6
  arbitrary comment
  C   -1.3751233831   -0.0253463316    0.0027237465
  O    1.3077434846    0.1160888035   -0.0009002684
  H   -2.0792199563    1.9099368471   -0.0010093988
  H   -2.1087536210   -0.9788095435    1.6815520528
  H   -2.1085513145   -0.9782334399   -1.6825651552
  H    1.9401806303   -1.5737684557    0.0001906130
 }
 
 basis=cc-pvdz
 {rhf;maxit,200}
 {ccsd(t);maxit,200}

 Variables initialized (661), CPU time= 0.01 sec
 Commands  initialized (458), CPU time= 0.00 sec, 486 directives.
 Default parameters read. Elapsed time= 0.04 sec

 Checking input...
 Passed
1


                                         ***  PROGRAM SYSTEM MOLPRO  ***
                         Copyright, University College Cardiff Consultants Limited, 2008

                                    Version 2010.1 linked May 16 2016 07:17:05


 **********************************************************************************************************************************
 LABEL *   Optimization of min3                                                          
 Linux-4.4.3/n058(x86_64) 64 bit mpp version                                             DATE: 06-Nov-21          TIME: 15:39:16  
 **********************************************************************************************************************************

 SHA1:             9e8077add272b0f3cad6f7df79ec5211205f459d
 **********************************************************************************************************************************

 THRESHOLDS:

 ZERO    =  1.00D-12  ONEINT  =  1.00D-16  TWOINT  =  1.00D-16  PREFAC  =  1.00D-14  LOCALI  =  1.00D-09  EORDER  =  1.00D-04
 ENERGY  =  1.00D-12  ETEST   =  0.00D+00  EDENS   =  0.00D+00  THRDEDEF=  1.00D-06  GRADIENT=  1.00D-02  STEP    =  1.00D-03
 ORBITAL =  1.00D-10  CIVEC   =  1.00D-05  COEFF   =  1.00D-04  PRINTCI =  5.00D-02  PUNCHCI =  9.90D+01  OPTGRAD =  1.00D-06
 OPTENERG=  1.00D-06  OPTSTEP =  3.00D-04  THRGRAD =  1.00D-10  COMPRESS=  1.00D-13  VARMIN  =  1.00D-07  VARMAX  =  1.00D-03
 THRDOUB =  0.00D+00  THRDIV  =  1.00D-05  THRRED  =  1.00D-07  THRPSP  =  1.00D+00  THRDC   =  1.00D-10  THRCS   =  1.00D-10
 THRNRM  =  1.00D-08  THREQ   =  0.00D+00  THRDE   =  1.00D+00  THRREF  =  1.00D-05  SPARFAC =  1.00D+00  THRDLP  =  1.00D-07
 THRDIA  =  1.00D-10  THRDLS  =  1.00D-07  THRGPS  =  0.00D+00  THRKEX  =  0.00D+00  THRDIS  =  2.00D-01  THRVAR  =  1.00D-10
 THRLOC  =  1.00D-06  THRGAP  =  1.00D-06  THRLOCT = -1.00D+00  THRGAPT = -1.00D+00  THRORB  =  1.00D-06  THRMLTP =  0.00D+00
 THRCPQCI=  1.00D-10  KEXTA   =  0.00D+00  THRCOARS=  0.00D+00  SYMTOL  =  1.00D-06  GRADTOL =  1.00D-06  THROVL  =  1.00D-08
 THRORTH =  1.00D-08  GRID    =  1.00D-06  GRIDMAX =  1.00D-03  DTMAX   =  0.00D+00

 SETTING GEOMTYP        =    XYZ
 ZUNIT=BOHR
 

 Variable memory set to 1000000000 words,  buffer space   230000 words

 SETTING BASIS          =    CC-PVDZ


 Recomputing integrals since basis changed


 Using spherical harmonics

 Library entry C      S cc-pVDZ              selected for orbital group  1
 Library entry C      P cc-pVDZ              selected for orbital group  1
 Library entry C      D cc-pVDZ              selected for orbital group  1
 Library entry O      S cc-pVDZ              selected for orbital group  2
 Library entry O      P cc-pVDZ              selected for orbital group  2
 Library entry O      D cc-pVDZ              selected for orbital group  2
 Library entry H      S cc-pVDZ              selected for orbital group  3
 Library entry H      P cc-pVDZ              selected for orbital group  3

1PROGRAM * SEWARD (Integral evaluation for generally contracted gaussian basis sets)     Author: Roland Lindh, 1990

 Geometry written to block  1 of record 700


 Point group  C1  



 ATOMIC COORDINATES

 NR  ATOM    CHARGE       X              Y              Z

   1  C       6.00   -1.375123383   -0.025346332    0.002723747
   2  O       8.00    1.307743485    0.116088804   -0.000900268
   3  H       1.00   -2.079219956    1.909936847   -0.001009399
   4  H       1.00   -2.108753621   -0.978809544    1.681552053
   5  H       1.00   -2.108551315   -0.978233440   -1.682565155
   6  H       1.00    1.940180630   -1.573768456    0.000190613

 Bond lengths in Bohr (Angstrom)

 1-2  2.686594808  1-3  2.059389935  1-4  2.065374035  1-5  2.070292021  2-6  1.804326880
     ( 1.421684742)     ( 1.089782218)     ( 1.092948867)     ( 1.095551354)     ( 0.954808662)

 Bond angles

  1-2-6  107.50081291   2-1-3  106.97453568   2-1-4  112.34056775   2-1-5  112.14204245

  3-1-4  108.29153388   3-1-5  108.05518683   4-1-5  108.86679964

 NUCLEAR CHARGE:                   18
 NUMBER OF PRIMITIVE AOS:          82
 NUMBER OF SYMMETRY AOS:           80
 NUMBER OF CONTRACTIONS:           48   (  48A   )
 NUMBER OF CORE ORBITALS:           2   (   2A   )
 NUMBER OF VALENCE ORBITALS:       12   (  12A   )


 NUCLEAR REPULSION ENERGY   40.31774929


 Eigenvalues of metric

         1 0.966E-02 0.176E-01 0.368E-01 0.374E-01 0.379E-01 0.473E-01 0.478E-01 0.516E-01


 Contracted 2-electron integrals neglected if value below      1.0D-16
 AO integral compression algorithm  1   Integral accuracy      1.0D-16

     6.816 MB (compressed) written to integral file (100.0%)

     Node minimum: 6.816 MB, node maximum: 6.816 MB


 NUMBER OF SORTED TWO-ELECTRON INTEGRALS:     692076.     BUFFER LENGTH:  32768
 NUMBER OF SEGMENTS:   1  SEGMENT LENGTH:     692076      RECORD LENGTH: 524288

 Memory used in sort:       1.25 MW

 SORT1 READ      832256. AND WROTE      682150. INTEGRALS IN      2 RECORDS. CPU TIME:     0.01 SEC, REAL TIME:     0.01 SEC
 SORT2 READ      682150. AND WROTE      692076. INTEGRALS IN     26 RECORDS. CPU TIME:     0.02 SEC, REAL TIME:     0.02 SEC

 FILE SIZES:   FILE 1:     8.4 MBYTE,  FILE 4:     8.4 MBYTE,   TOTAL:     16.8 MBYTE

 OPERATOR DM      FOR CENTER  0  COORDINATES:    0.000000    0.000000    0.000000


 **********************************************************************************************************************************
 DATASETS  * FILE   NREC   LENGTH (MB)   RECORD NAMES
              1      19        8.40       500      610      700      900      950      970     1000      129      960     1100   
                                          VAR    BASINP    GEOM    SYMINP    ZMAT    AOBASIS   BASIS     P2S    ABASIS      S 
                                         1400     1410     1200     1210     1080     1600     1650     1300     1700   
                                           T        V       H0       H01     AOSYM     SMH    MOLCAS    ERIS     OPER   

 PROGRAMS   *        TOTAL       INT
 CPU TIMES  *         0.22      0.18
 REAL TIME  *         0.40 SEC
 DISK USED  *        24.23 MB      
 GA USED    *         0.00 MB       (max)       0.00 MB       (current)
 **********************************************************************************************************************************

1PROGRAM * RHF-SCF (CLOSED SHELL)       Authors: W. Meyer, H.-J. Werner


 NUMBER OF ELECTRONS:       9+    9-    SPACE SYMMETRY=1    SPIN SYMMETRY: Singlet 
 CONVERGENCE THRESHOLDS:    1.00E-10 (Density)    1.00E-13 (Energy)
 MAX. NUMBER OF ITERATIONS:      200
 INTERPOLATION TYPE:            DIIS
 INTERPOLATION STEPS:              2 (START)      1 (STEP)
 LEVEL SHIFTS:                  0.00 (CLOSED)  0.00 (OPEN) 



 Orbital guess generated from atomic densities. Full valence occupancy:   14

 Molecular orbital dump at record        2100.2

 ITERATION    DDIFF          GRAD             ENERGY        2-EL.EN.            DIPOLE MOMENTS         DIIS
    1      0.000D+00      0.000D+00      -115.01441402    164.394752   -0.50043   -0.89377    0.00088    0
    2      0.000D+00      0.110D-01      -115.04271668    162.186478   -0.31939   -0.53393    0.00129    1
    3      0.205D-01      0.529D-02      -115.04872475    163.205860   -0.40297   -0.60828    0.00171    2
    4      0.638D-02      0.112D-02      -115.04918477    163.050872   -0.39247   -0.59765    0.00186    3
    5      0.204D-02      0.200D-03      -115.04920533    163.057172   -0.39512   -0.59349    0.00193    4
    6      0.430D-03      0.349D-04      -115.04920610    163.057308   -0.39537   -0.59331    0.00194    5
    7      0.918D-04      0.719D-05      -115.04920613    163.056135   -0.39549   -0.59315    0.00195    6
    8      0.146D-04      0.231D-05      -115.04920613    163.056506   -0.39552   -0.59313    0.00195    7
    9      0.491D-05      0.477D-06      -115.04920613    163.056466   -0.39553   -0.59313    0.00195    6
   10      0.137D-05      0.823D-07      -115.04920613    163.056465   -0.39554   -0.59313    0.00195    6
   11      0.224D-06      0.308D-07      -115.04920613    163.056470   -0.39554   -0.59313    0.00195    6
   12      0.556D-07      0.124D-07      -115.04920613    163.056468   -0.39554   -0.59313    0.00195    7
   13      0.229D-07      0.281D-08      -115.04920613    163.056468   -0.39554   -0.59313    0.00195    7
   14      0.696D-08      0.622D-09      -115.04920613    163.056468   -0.39554   -0.59313    0.00195    7
   15      0.160D-08      0.142D-09      -115.04920613    163.056468   -0.39554   -0.59313    0.00195    7
   16      0.314D-09      0.423D-10      -115.04920613    163.056468   -0.39554   -0.59313    0.00195    7
   17      0.822D-10      0.152D-10      -115.04920613    163.056468   -0.39554   -0.59313    0.00195    7
   18      0.390D-10      0.265D-11      -115.04920613    163.056468   -0.39554   -0.59313    0.00195    0

 Final occupancy:   9

 !RHF STATE 1.1 Energy               -115.049206128449
 Nuclear energy                        40.31774929
 One-electron energy                 -236.89518958
 Two-electron energy                   81.52823416
 Virial quotient                       -1.00086638
 !RHF STATE 1.1 Dipole moment          -0.39553617    -0.59312710     0.00194757
 Dipole moment /Debye                  -1.00528683    -1.50747998     0.00494991

 Orbital energies:

         1.1          2.1          3.1          4.1          5.1          6.1          7.1          8.1          9.1         10.1
    -20.549437   -11.274835    -1.350553    -0.921813    -0.683421    -0.613858    -0.584898    -0.497189    -0.443356     0.184900

        11.1
      0.224744


 **********************************************************************************************************************************
 DATASETS  * FILE   NREC   LENGTH (MB)   RECORD NAMES
              1      19        8.40       500      610      700      900      950      970     1000      129      960     1100   
                                          VAR    BASINP    GEOM    SYMINP    ZMAT    AOBASIS   BASIS     P2S    ABASIS      S 
                                         1400     1410     1200     1210     1080     1600     1650     1300     1700   
                                           T        V       H0       H01     AOSYM     SMH    MOLCAS    ERIS     OPER   

              2       3        0.39       700     1000     2100   
                                         GEOM     BASIS     RHF  

 PROGRAMS   *        TOTAL       RHF       INT
 CPU TIMES  *         0.30      0.08      0.18
 REAL TIME  *         0.51 SEC
 DISK USED  *        24.23 MB      
 GA USED    *         0.00 MB       (max)       0.00 MB       (current)
 **********************************************************************************************************************************


1PROGRAM * CCSD (Closed-shell coupled cluster)     Authors: C. Hampel, H.-J. Werner, 1991, M. Deegan, P.J. Knowles, 1992


 Convergence thresholds:  THRVAR = 1.00D-08  THRDEN = 1.00D-12

 CCSD(T)     terms to be evaluated (factor= 1.000)


 Number of core orbitals:           2 (   2 )
 Number of closed-shell orbitals:   7 (   7 )
 Number of external orbitals:      39 (  39 )

 Molecular orbitals read from record     2100.2  Type=RHF/CANONICAL (state 1.1)

 Number of N-1 electron functions:               7
 Number of N-2 electron functions:              28
 Number of singly external CSFs:               273
 Number of doubly external CSFs:             37401
 Total number of CSFs:                       37675

 Length of J-op  integral file:               0.00 MB
 Length of K-op  integral file:               0.19 MB
 Length of 3-ext integral record:             0.00 MB

 Memory could be reduced to 0.96 Mwords without degradation in triples

 Integral transformation finished. Total CPU:   0.02 sec, npass=  1  Memory used:   0.66 MW

 Reference energy:                   -115.04920613

 MP2 singlet pair energy:              -0.21852562
 MP2 triplet pair energy:              -0.11977417
 MP2 correlation energy:               -0.33829979
 MP2 total energy:                   -115.38750591

 SCS-MP2 correlation energy:           -0.33675689   (PS=  1.200000  PT=  0.333333)
 SCS-MP2 total energy:               -115.38596302

 ITER.      SQ.NORM     CORR.ENERGY   TOTAL ENERGY   ENERGY CHANGE        DEN1      VAR(S)    VAR(P)  DIIS     TIME
   1      1.10721652    -0.36111570  -115.41032183    -0.02281591    -0.01415194  0.91D-03  0.17D-02  1  1     0.05
   2      1.11572231    -0.36305579  -115.41226192    -0.00194009    -0.00923575  0.20D-04  0.16D-03  2  2     0.09
   3      1.11759367    -0.36318273  -115.41238886    -0.00012694    -0.00119846  0.94D-05  0.86D-05  3  3     0.13
   4      1.11810595    -0.36318126  -115.41238739     0.00000147    -0.00025379  0.33D-06  0.67D-06  4  4     0.17
   5      1.11820347    -0.36318165  -115.41238778    -0.00000039    -0.00003590  0.98D-07  0.49D-07  5  5     0.21
   6      1.11822232    -0.36318030  -115.41238643     0.00000134    -0.00000433  0.16D-07  0.41D-08  6  6     0.25
   7      1.11822700    -0.36317989  -115.41238602     0.00000042    -0.00000035  0.20D-08  0.71D-09  6  1     0.28
   8      1.11822824    -0.36317999  -115.41238612    -0.00000010     0.00000074  0.25D-09  0.71D-10  6  3     0.32
   9      1.11822929    -0.36317987  -115.41238600     0.00000012    -0.00000038  0.12D-10  0.10D-10  6  2     0.36
  10      1.11822922    -0.36317987  -115.41238600    -0.00000000     0.00000007  0.11D-11  0.86D-12  6  5     0.40
  11      1.11822925    -0.36317987  -115.41238600     0.00000000    -0.00000000  0.18D-12  0.49D-13  6  4     0.44
  12      1.11822924    -0.36317987  -115.41238600    -0.00000000     0.00000001  0.18D-13  0.98D-14  6  1     0.47
  13      1.11822924    -0.36317987  -115.41238600    -0.00000000    -0.00000000  0.23D-14  0.91D-15  6  6     0.51
  14      1.11822924    -0.36317987  -115.41238600     0.00000000    -0.00000000  0.22D-15  0.12D-15  6  3     0.55
  15      1.11822924    -0.36317987  -115.41238600    -0.00000000    -0.00000000  0.24D-16  0.16D-16  6  2     0.59
  16      1.11822924    -0.36317987  -115.41238600    -0.00000000    -0.00000000  0.55D-17  0.16D-17  6  5     0.63
  17      1.11822924    -0.36317987  -115.41238600    -0.00000000    -0.00000000  0.53D-18  0.25D-18  6  4     0.66
  18      1.11822924    -0.36317987  -115.41238600     0.00000000    -0.00000000  0.84D-19  0.42D-19  6  1     0.70
  19      1.11822924    -0.36317987  -115.41238600    -0.00000000    -0.00000000  0.98D-20  0.43D-20  6  6     0.74
  20      1.11822924    -0.36317987  -115.41238600     0.00000000     0.00000000  0.15D-20  0.57D-21  6  3     0.78

 Norm of t1 vector:      0.04156203      S-energy:    -0.00000000      T1 diagnostic:  0.00785449
                                                                       D1 diagnostic:  0.01751622


 Total CPU time for triples:      0.21 sec


 RESULTS
 =======

  Reference energy                   -115.049206128449
  CCSD singlet pair energy             -0.254451164173
  CCSD triplet pair energy             -0.108728704612
  CCSD correlation energy              -0.363179868785

  Triples (T) contribution             -0.007724996472
  Total correlation energy             -0.370904865257

  CCSD total energy                  -115.412385997234
  CCSD[T] energy                     -115.420400260658
  CCSD-T energy                      -115.419961333363
 !CCSD(T) total energy               -115.420110993706

 Timing summary (sec):

 STEP                 CPU(USER)    SYS     CPU(TOT)    WALL
 Transformation          0.02      0.00      0.02      0.03
 CCSD iterations         0.76      0.05      0.81      0.84
 Triples                 0.21      0.00      0.21      0.21

 Program statistics:

 Available memory in ccsd:               999999704
 Min. memory needed in ccsd:                136801
 Max. memory used in ccsd:                  163198
 Max. memory used in cckext:                182024 (20 integral passes)



 **********************************************************************************************************************************
 DATASETS  * FILE   NREC   LENGTH (MB)   RECORD NAMES
              1      20       10.93       500      610      700      900      950      970     1000      129      960     1100   
                                          VAR    BASINP    GEOM    SYMINP    ZMAT    AOBASIS   BASIS     P2S    ABASIS      S 
                                         1400     1410     1200     1210     1080     1600     1650     1300     1700     1380   
                                           T        V       H0       H01     AOSYM     SMH    MOLCAS    ERIS     OPER     JKOP   

              2       3        0.39       700     1000     2100   
                                         GEOM     BASIS     RHF  

 PROGRAMS   *        TOTAL   CCSD(T)       RHF       INT
 CPU TIMES  *         1.31      1.00      0.08      0.18
 REAL TIME  *         1.61 SEC
 DISK USED  *        25.66 MB      
 GA USED    *         0.00 MB       (max)       0.00 MB       (current)
 **********************************************************************************************************************************

        CCSD(T)         RHF-SCF 
   -115.42011099   -115.04920613
 **********************************************************************************************************************************
 Variable memory released
