
 Primary working directories    : /tmp/795519.18.gen4.q
 Secondary working directories  : /tmp/795519.18.gen4.q
 Wavefunction directory         : /home/vulcan/mel64643/wfu/
 Main file repository           : /tmp/795519.18.gen4.q/

 ARCHNAME  : Linux/x86_64
 FC        : /opt/intel/compilers_and_libraries_2016.1.150/linux/bin/intel64/ifort
 FCVERSION : 16.0.1
 BLASLIB   : -mkl
 id        : ccgc

 Nodes     nprocs
 n058         1
 ga_uses_ma=false, calling ma_init with nominal heap.
 GA-space will be limited to   8.0 MW (determined by -G option)

 Using customized tuning parameters: mindgm=10; mindgv=16; mindgc=4; mindgr=1; noblas=0; mincuda=1000; minvec=7
 default implementation of scratch files=df  

 ***,Optimization of min3
 memory,1000,m
 gthresh,energy=1.0d-12,orbital=1.0d-10,oneint=1.0d-16,twoint=1.0d-16,optgrad=1.0d-6,compress=1.0d-13
 geomtyp=xyz
 
  bohr
  geometry = {
  6
  arbitrary comment
  C   -1.3733872709   -0.0267338761    0.0000003759
  O    1.3073970405    0.1219626989    0.0000003422
  H   -2.0776871561    1.9146568720   -0.0000800747
  H   -2.1101150555   -0.9813946616    1.6871129954
  H   -2.1101081724   -0.9815263905   -1.6870407465
  H    1.9401764544   -1.5770967627   -0.0000013023
 }
 
 basis=cc-pvdz
 {rhf;maxit,200}
 {ccsd(t);maxit,200}

 Variables initialized (661), CPU time= 0.01 sec
 Commands  initialized (458), CPU time= 0.00 sec, 486 directives.
 Default parameters read. Elapsed time= 0.04 sec

 Checking input...
 Passed
1


                                         ***  PROGRAM SYSTEM MOLPRO  ***
                         Copyright, University College Cardiff Consultants Limited, 2008

                                    Version 2010.1 linked May 16 2016 07:17:05


 **********************************************************************************************************************************
 LABEL *   Optimization of min3                                                          
 Linux-4.4.3/n058(x86_64) 64 bit mpp version                                             DATE: 24-Oct-22          TIME: 15:40:51  
 **********************************************************************************************************************************

 SHA1:             9e8077add272b0f3cad6f7df79ec5211205f459d
 **********************************************************************************************************************************

 THRESHOLDS:

 ZERO    =  1.00D-12  ONEINT  =  1.00D-16  TWOINT  =  1.00D-16  PREFAC  =  1.00D-14  LOCALI  =  1.00D-09  EORDER  =  1.00D-04
 ENERGY  =  1.00D-12  ETEST   =  0.00D+00  EDENS   =  0.00D+00  THRDEDEF=  1.00D-06  GRADIENT=  1.00D-02  STEP    =  1.00D-03
 ORBITAL =  1.00D-10  CIVEC   =  1.00D-05  COEFF   =  1.00D-04  PRINTCI =  5.00D-02  PUNCHCI =  9.90D+01  OPTGRAD =  1.00D-06
 OPTENERG=  1.00D-06  OPTSTEP =  3.00D-04  THRGRAD =  1.00D-10  COMPRESS=  1.00D-13  VARMIN  =  1.00D-07  VARMAX  =  1.00D-03
 THRDOUB =  0.00D+00  THRDIV  =  1.00D-05  THRRED  =  1.00D-07  THRPSP  =  1.00D+00  THRDC   =  1.00D-10  THRCS   =  1.00D-10
 THRNRM  =  1.00D-08  THREQ   =  0.00D+00  THRDE   =  1.00D+00  THRREF  =  1.00D-05  SPARFAC =  1.00D+00  THRDLP  =  1.00D-07
 THRDIA  =  1.00D-10  THRDLS  =  1.00D-07  THRGPS  =  0.00D+00  THRKEX  =  0.00D+00  THRDIS  =  2.00D-01  THRVAR  =  1.00D-10
 THRLOC  =  1.00D-06  THRGAP  =  1.00D-06  THRLOCT = -1.00D+00  THRGAPT = -1.00D+00  THRORB  =  1.00D-06  THRMLTP =  0.00D+00
 THRCPQCI=  1.00D-10  KEXTA   =  0.00D+00  THRCOARS=  0.00D+00  SYMTOL  =  1.00D-06  GRADTOL =  1.00D-06  THROVL  =  1.00D-08
 THRORTH =  1.00D-08  GRID    =  1.00D-06  GRIDMAX =  1.00D-03  DTMAX   =  0.00D+00

 SETTING GEOMTYP        =    XYZ
 ZUNIT=BOHR
 

 Variable memory set to 1000000000 words,  buffer space   230000 words

 SETTING BASIS          =    CC-PVDZ


 Recomputing integrals since basis changed


 Using spherical harmonics

 Library entry C      S cc-pVDZ              selected for orbital group  1
 Library entry C      P cc-pVDZ              selected for orbital group  1
 Library entry C      D cc-pVDZ              selected for orbital group  1
 Library entry O      S cc-pVDZ              selected for orbital group  2
 Library entry O      P cc-pVDZ              selected for orbital group  2
 Library entry O      D cc-pVDZ              selected for orbital group  2
 Library entry H      S cc-pVDZ              selected for orbital group  3
 Library entry H      P cc-pVDZ              selected for orbital group  3

1PROGRAM * SEWARD (Integral evaluation for generally contracted gaussian basis sets)     Author: Roland Lindh, 1990

 Geometry written to block  1 of record 700


 Point group  C1  



 ATOMIC COORDINATES

 NR  ATOM    CHARGE       X              Y              Z

   1  C       6.00   -1.373387271   -0.026733876    0.000000376
   2  O       8.00    1.307397040    0.121962699    0.000000342
   3  H       1.00   -2.077687156    1.914656872   -0.000080075
   4  H       1.00   -2.110115056   -0.981394662    1.687112995
   5  H       1.00   -2.110108172   -0.981526391   -1.687040746
   6  H       1.00    1.940176454   -1.577096763   -0.000001302

 Bond lengths in Bohr (Angstrom)

 1-2  2.684905063  1-3  2.065196449  1-4  2.073763254  1-5  2.073763290  2-6  1.813067247
     ( 1.420790568)     ( 1.092854893)     ( 1.097388251)     ( 1.097388270)     ( 0.959433865)

 Bond angles

  1-2-6  107.25199765   2-1-3  106.76501092   2-1-4  112.34678068   2-1-5  112.34679165

  3-1-4  108.15750859   3-1-5  108.15735526   4-1-5  108.88532250

 NUCLEAR CHARGE:                   18
 NUMBER OF PRIMITIVE AOS:          82
 NUMBER OF SYMMETRY AOS:           80
 NUMBER OF CONTRACTIONS:           48   (  48A   )
 NUMBER OF CORE ORBITALS:           2   (   2A   )
 NUMBER OF VALENCE ORBITALS:       12   (  12A   )


 NUCLEAR REPULSION ENERGY   40.27572764


 Eigenvalues of metric

         1 0.968E-02 0.177E-01 0.372E-01 0.377E-01 0.383E-01 0.476E-01 0.483E-01 0.521E-01


 Contracted 2-electron integrals neglected if value below      1.0D-16
 AO integral compression algorithm  1   Integral accuracy      1.0D-16

     6.291 MB (compressed) written to integral file ( 98.2%)

     Node minimum: 6.291 MB, node maximum: 6.291 MB


 NUMBER OF SORTED TWO-ELECTRON INTEGRALS:     692076.     BUFFER LENGTH:  32768
 NUMBER OF SEGMENTS:   1  SEGMENT LENGTH:     692076      RECORD LENGTH: 524288

 Memory used in sort:       1.25 MW

 SORT1 READ      832256. AND WROTE      682147. INTEGRALS IN      2 RECORDS. CPU TIME:     0.01 SEC, REAL TIME:     0.02 SEC
 SORT2 READ      682147. AND WROTE      692076. INTEGRALS IN     24 RECORDS. CPU TIME:     0.01 SEC, REAL TIME:     0.02 SEC

 FILE SIZES:   FILE 1:     8.0 MBYTE,  FILE 4:     8.4 MBYTE,   TOTAL:     16.4 MBYTE

 OPERATOR DM      FOR CENTER  0  COORDINATES:    0.000000    0.000000    0.000000


 **********************************************************************************************************************************
 DATASETS  * FILE   NREC   LENGTH (MB)   RECORD NAMES
              1      19        8.03       500      610      700      900      950      970     1000      129      960     1100   
                                          VAR    BASINP    GEOM    SYMINP    ZMAT    AOBASIS   BASIS     P2S    ABASIS      S 
                                         1400     1410     1200     1210     1080     1600     1650     1300     1700   
                                           T        V       H0       H01     AOSYM     SMH    MOLCAS    ERIS     OPER   

 PROGRAMS   *        TOTAL       INT
 CPU TIMES  *         0.23      0.18
 REAL TIME  *         0.41 SEC
 DISK USED  *        23.34 MB      
 GA USED    *         0.00 MB       (max)       0.00 MB       (current)
 **********************************************************************************************************************************

1PROGRAM * RHF-SCF (CLOSED SHELL)       Authors: W. Meyer, H.-J. Werner


 NUMBER OF ELECTRONS:       9+    9-    SPACE SYMMETRY=1    SPIN SYMMETRY: Singlet 
 CONVERGENCE THRESHOLDS:    1.00E-10 (Density)    1.00E-13 (Energy)
 MAX. NUMBER OF ITERATIONS:      200
 INTERPOLATION TYPE:            DIIS
 INTERPOLATION STEPS:              2 (START)      1 (STEP)
 LEVEL SHIFTS:                  0.00 (CLOSED)  0.00 (OPEN) 



 Orbital guess generated from atomic densities. Full valence occupancy:   14

 Molecular orbital dump at record        2100.2

 ITERATION    DDIFF          GRAD             ENERGY        2-EL.EN.            DIPOLE MOMENTS         DIIS
    1      0.000D+00      0.000D+00      -115.01415766    164.320429   -0.49538   -0.90111   -0.00000    0
    2      0.000D+00      0.110D-01      -115.04252120    162.109787   -0.31480   -0.53563   -0.00000    1
    3      0.205D-01      0.531D-02      -115.04858206    163.131916   -0.39878   -0.61135   -0.00000    2
    4      0.640D-02      0.112D-02      -115.04904573    162.976040   -0.38845   -0.60036   -0.00000    3
    5      0.204D-02      0.202D-03      -115.04906678    162.982691   -0.39121   -0.59613   -0.00000    4
    6      0.434D-03      0.354D-04      -115.04906758    162.982676   -0.39150   -0.59594   -0.00000    5
    7      0.927D-04      0.723D-05      -115.04906761    162.981549   -0.39163   -0.59577   -0.00000    6
    8      0.150D-04      0.231D-05      -115.04906761    162.981928   -0.39166   -0.59575   -0.00000    7
    9      0.488D-05      0.489D-06      -115.04906761    162.981885   -0.39167   -0.59575   -0.00000    6
   10      0.140D-05      0.856D-07      -115.04906761    162.981884   -0.39168   -0.59575   -0.00000    6
   11      0.230D-06      0.321D-07      -115.04906761    162.981889   -0.39168   -0.59575   -0.00000    6
   12      0.583D-07      0.132D-07      -115.04906761    162.981887   -0.39168   -0.59575   -0.00000    7
   13      0.244D-07      0.296D-08      -115.04906761    162.981888   -0.39168   -0.59575   -0.00000    7
   14      0.737D-08      0.644D-09      -115.04906761    162.981888   -0.39168   -0.59575   -0.00000    7
   15      0.165D-08      0.148D-09      -115.04906761    162.981888   -0.39168   -0.59575   -0.00000    7
   16      0.328D-09      0.437D-10      -115.04906761    162.981888   -0.39168   -0.59575   -0.00000    7
   17      0.855D-10      0.157D-10      -115.04906761    162.981888   -0.39168   -0.59575   -0.00000    7
   18      0.403D-10      0.265D-11      -115.04906761    162.981888   -0.39168   -0.59575   -0.00000    0

 Final occupancy:   9

 !RHF STATE 1.1 Energy               -115.049067611671
 Nuclear energy                        40.27572764
 One-electron energy                 -236.81573901
 Two-electron energy                   81.49094376
 Virial quotient                       -1.00103759
 !RHF STATE 1.1 Dipole moment          -0.39167704    -0.59574904    -0.00000279
 Dipole moment /Debye                  -0.99547853    -1.51414385    -0.00000708

 Orbital energies:

         1.1          2.1          3.1          4.1          5.1          6.1          7.1          8.1          9.1         10.1
    -20.550311   -11.275759    -1.350228    -0.920258    -0.682717    -0.613410    -0.584333    -0.496746    -0.443164     0.184382

        11.1
      0.224229


 **********************************************************************************************************************************
 DATASETS  * FILE   NREC   LENGTH (MB)   RECORD NAMES
              1      19        8.03       500      610      700      900      950      970     1000      129      960     1100   
                                          VAR    BASINP    GEOM    SYMINP    ZMAT    AOBASIS   BASIS     P2S    ABASIS      S 
                                         1400     1410     1200     1210     1080     1600     1650     1300     1700   
                                           T        V       H0       H01     AOSYM     SMH    MOLCAS    ERIS     OPER   

              2       3        0.39       700     1000     2100   
                                         GEOM     BASIS     RHF  

 PROGRAMS   *        TOTAL       RHF       INT
 CPU TIMES  *         0.31      0.08      0.18
 REAL TIME  *         0.53 SEC
 DISK USED  *        23.34 MB      
 GA USED    *         0.00 MB       (max)       0.00 MB       (current)
 **********************************************************************************************************************************


1PROGRAM * CCSD (Closed-shell coupled cluster)     Authors: C. Hampel, H.-J. Werner, 1991, M. Deegan, P.J. Knowles, 1992


 Convergence thresholds:  THRVAR = 1.00D-08  THRDEN = 1.00D-12

 CCSD(T)     terms to be evaluated (factor= 1.000)


 Number of core orbitals:           2 (   2 )
 Number of closed-shell orbitals:   7 (   7 )
 Number of external orbitals:      39 (  39 )

 Molecular orbitals read from record     2100.2  Type=RHF/CANONICAL (state 1.1)

 Number of N-1 electron functions:               7
 Number of N-2 electron functions:              28
 Number of singly external CSFs:               273
 Number of doubly external CSFs:             37401
 Total number of CSFs:                       37675

 Length of J-op  integral file:               0.00 MB
 Length of K-op  integral file:               0.19 MB
 Length of 3-ext integral record:             0.00 MB

 Memory could be reduced to 0.96 Mwords without degradation in triples

 Integral transformation finished. Total CPU:   0.02 sec, npass=  1  Memory used:   0.66 MW

 Reference energy:                   -115.04906761

 MP2 singlet pair energy:              -0.21879040
 MP2 triplet pair energy:              -0.11987197
 MP2 correlation energy:               -0.33866238
 MP2 total energy:                   -115.38772999

 SCS-MP2 correlation energy:           -0.33713549   (PS=  1.200000  PT=  0.333333)
 SCS-MP2 total energy:               -115.38620310

 ITER.      SQ.NORM     CORR.ENERGY   TOTAL ENERGY   ENERGY CHANGE        DEN1      VAR(S)    VAR(P)  DIIS     TIME
   1      1.10753684    -0.36147674  -115.41054435    -0.02281436    -0.01410978  0.92D-03  0.17D-02  1  1     0.06
   2      1.11610371    -0.36342938  -115.41249699    -0.00195265    -0.00927319  0.20D-04  0.16D-03  2  2     0.10
   3      1.11800248    -0.36355817  -115.41262579    -0.00012879    -0.00121247  0.96D-05  0.87D-05  3  3     0.14
   4      1.11852265    -0.36355686  -115.41262447     0.00000131    -0.00025697  0.33D-06  0.68D-06  4  4     0.18
   5      1.11862184    -0.36355729  -115.41262490    -0.00000043    -0.00003637  0.10D-06  0.50D-07  5  5     0.22
   6      1.11864110    -0.36355593  -115.41262354     0.00000136    -0.00000442  0.16D-07  0.42D-08  6  6     0.25
   7      1.11864585    -0.36355551  -115.41262312     0.00000042    -0.00000035  0.20D-08  0.72D-09  6  1     0.29
   8      1.11864712    -0.36355561  -115.41262322    -0.00000010     0.00000075  0.26D-09  0.72D-10  6  3     0.33
   9      1.11864819    -0.36355549  -115.41262310     0.00000012    -0.00000038  0.13D-10  0.11D-10  6  2     0.37
  10      1.11864812    -0.36355549  -115.41262310    -0.00000000     0.00000007  0.11D-11  0.89D-12  6  5     0.41
  11      1.11864815    -0.36355549  -115.41262310     0.00000000    -0.00000000  0.19D-12  0.51D-13  6  4     0.44
  12      1.11864814    -0.36355549  -115.41262310    -0.00000000     0.00000001  0.19D-13  0.10D-13  6  1     0.48
  13      1.11864814    -0.36355549  -115.41262310    -0.00000000    -0.00000000  0.24D-14  0.94D-15  6  6     0.52
  14      1.11864814    -0.36355549  -115.41262310     0.00000000    -0.00000000  0.23D-15  0.12D-15  6  3     0.56
  15      1.11864814    -0.36355549  -115.41262310    -0.00000000    -0.00000000  0.25D-16  0.17D-16  6  2     0.60
  16      1.11864814    -0.36355549  -115.41262310    -0.00000000    -0.00000000  0.56D-17  0.16D-17  6  5     0.64
  17      1.11864814    -0.36355549  -115.41262310    -0.00000000    -0.00000000  0.54D-18  0.25D-18  6  4     0.68
  18      1.11864814    -0.36355549  -115.41262310     0.00000000    -0.00000000  0.84D-19  0.43D-19  6  1     0.72
  19      1.11864814    -0.36355549  -115.41262310    -0.00000000    -0.00000000  0.93D-20  0.43D-20  6  6     0.75
  20      1.11864814    -0.36355549  -115.41262310     0.00000000     0.00000000  0.13D-20  0.56D-21  6  3     0.79

 Norm of t1 vector:      0.04175076      S-energy:    -0.00000000      T1 diagnostic:  0.00789015
                                                                       D1 diagnostic:  0.01749453


 Total CPU time for triples:      0.20 sec


 RESULTS
 =======

  Reference energy                   -115.049067611671
  CCSD singlet pair energy             -0.254805007335
  CCSD triplet pair energy             -0.108750481992
  CCSD correlation energy              -0.363555489327

  Triples (T) contribution             -0.007758951769
  Total correlation energy             -0.371314441096

  CCSD total energy                  -115.412623100998
  CCSD[T] energy                     -115.420673976949
  CCSD-T energy                      -115.420231093378
 !CCSD(T) total energy               -115.420382052767

 Timing summary (sec):

 STEP                 CPU(USER)    SYS     CPU(TOT)    WALL
 Transformation          0.02      0.00      0.02      0.02
 CCSD iterations         0.78      0.05      0.83      0.85
 Triples                 0.20      0.00      0.20      0.22

 Program statistics:

 Available memory in ccsd:               999999704
 Min. memory needed in ccsd:                136801
 Max. memory used in ccsd:                  163198
 Max. memory used in cckext:                182024 (20 integral passes)



 **********************************************************************************************************************************
 DATASETS  * FILE   NREC   LENGTH (MB)   RECORD NAMES
              1      20       10.56       500      610      700      900      950      970     1000      129      960     1100   
                                          VAR    BASINP    GEOM    SYMINP    ZMAT    AOBASIS   BASIS     P2S    ABASIS      S 
                                         1400     1410     1200     1210     1080     1600     1650     1300     1700     1380   
                                           T        V       H0       H01     AOSYM     SMH    MOLCAS    ERIS     OPER     JKOP   

              2       3        0.39       700     1000     2100   
                                         GEOM     BASIS     RHF  

 PROGRAMS   *        TOTAL   CCSD(T)       RHF       INT
 CPU TIMES  *         1.32      1.01      0.08      0.18
 REAL TIME  *         1.65 SEC
 DISK USED  *        24.76 MB      
 GA USED    *         0.00 MB       (max)       0.00 MB       (current)
 **********************************************************************************************************************************

        CCSD(T)         RHF-SCF 
   -115.42038205   -115.04906761
 **********************************************************************************************************************************
 Variable memory released
