
 Primary working directories    : /tmp/333988.34.gen4.q
 Secondary working directories  : /tmp/333988.34.gen4.q
 Wavefunction directory         : /home/vulcan/mel64643/wfu/
 Main file repository           : /tmp/333988.34.gen4.q/

 ARCHNAME  : Linux/x86_64
 FC        : /opt/intel/compilers_and_libraries_2016.1.150/linux/bin/intel64/ifort
 FCVERSION : 16.0.1
 BLASLIB   : -mkl
 id        : ccgc

 Nodes     nprocs
 n049         3
 Number of processes for MPI-2 version of Molpro:   nprocs(total)=    4   nprocs(compute)=    3   nprocs(helper)=    1
 ga_uses_ma=false, calling ma_init with nominal heap.
 GA-space will be limited to   8.0 MW (determined by -G option)

 Using customized tuning parameters: mindgm=10; mindgv=16; mindgc=4; mindgr=1; noblas=0; mincuda=1000; minvec=7
 default implementation of scratch files=sf  

 ***,Optimization of min3
 memory,1000,m
 gthresh,energy=1.0d-10,orbital=1.0d-10,oneint=1.0d-16,twoint=1.0d-16,optgrad=1.0d-6,compress=1.0d-13
 geomtyp=xyz
 
  bohr
  geometry = {
  12
  arbitrary comment
  C         -3.1030616999          1.5860154813          0.0216913769
  C         -0.8656117656         -0.0658480060         -0.6559146864
  C         -1.1169745411         -2.7787240267          0.2437070963
  O          1.3115685631          1.1045443662          0.5890879253
  O          3.4493766446          0.1201124796         -0.2517424658
  H         -4.7985418291          0.8418904737         -0.8848927725
  H         -2.7955411808          3.5186973573         -0.6231922494
  H         -3.3847561142          1.5962031067          2.0652345556
  H         -0.4560267953         -0.0326863080         -2.6769442220
  H         -2.6981618520         -3.7024491713         -0.7076106234
  H         -1.4738130707         -2.8303774051          2.2764600344
  H          0.6011250240         -3.8420536553         -0.1531623329
 }
 
 basis=cc-pvtz
 {rhf;maxit,200}
 {uccsd(t);maxit,200}

 Variables initialized (661), CPU time= 0.00 sec
 Commands  initialized (458), CPU time= 0.01 sec, 486 directives.
 Default parameters read. Elapsed time= 0.06 sec

 Checking input...
 Passed
1


                                         ***  PROGRAM SYSTEM MOLPRO  ***
                         Copyright, University College Cardiff Consultants Limited, 2008

                                    Version 2010.1 linked May 16 2016 07:17:05


 **********************************************************************************************************************************
 LABEL *   Optimization of min3                                                          
 Linux-4.4.3/n049(x86_64) 64 bit mpp version                                             DATE: 15-Jul-20          TIME: 13:22:23  
 **********************************************************************************************************************************

 SHA1:             9e8077add272b0f3cad6f7df79ec5211205f459d
 **********************************************************************************************************************************

 THRESHOLDS:

 ZERO    =  1.00D-12  ONEINT  =  1.00D-16  TWOINT  =  1.00D-16  PREFAC  =  1.00D-14  LOCALI  =  1.00D-09  EORDER  =  1.00D-04
 ENERGY  =  1.00D-10  ETEST   =  0.00D+00  EDENS   =  0.00D+00  THRDEDEF=  1.00D-06  GRADIENT=  1.00D-02  STEP    =  1.00D-03
 ORBITAL =  1.00D-10  CIVEC   =  1.00D-05  COEFF   =  1.00D-04  PRINTCI =  5.00D-02  PUNCHCI =  9.90D+01  OPTGRAD =  1.00D-06
 OPTENERG=  1.00D-06  OPTSTEP =  3.00D-04  THRGRAD =  1.00D-10  COMPRESS=  1.00D-13  VARMIN  =  1.00D-07  VARMAX  =  1.00D-03
 THRDOUB =  0.00D+00  THRDIV  =  1.00D-05  THRRED  =  1.00D-07  THRPSP  =  1.00D+00  THRDC   =  1.00D-10  THRCS   =  1.00D-10
 THRNRM  =  1.00D-08  THREQ   =  0.00D+00  THRDE   =  1.00D+00  THRREF  =  1.00D-05  SPARFAC =  1.00D+00  THRDLP  =  1.00D-07
 THRDIA  =  1.00D-10  THRDLS  =  1.00D-07  THRGPS  =  0.00D+00  THRKEX  =  0.00D+00  THRDIS  =  2.00D-01  THRVAR  =  1.00D-10
 THRLOC  =  1.00D-06  THRGAP  =  1.00D-06  THRLOCT = -1.00D+00  THRGAPT = -1.00D+00  THRORB  =  1.00D-06  THRMLTP =  0.00D+00
 THRCPQCI=  1.00D-10  KEXTA   =  0.00D+00  THRCOARS=  0.00D+00  SYMTOL  =  1.00D-06  GRADTOL =  1.00D-06  THROVL  =  1.00D-08
 THRORTH =  1.00D-08  GRID    =  1.00D-06  GRIDMAX =  1.00D-03  DTMAX   =  0.00D+00

 SETTING GEOMTYP        =    XYZ
 ZUNIT=BOHR
 

 Variable memory set to 1000000000 words,  buffer space   230000 words

 SETTING BASIS          =    CC-PVTZ


 Recomputing integrals since basis changed


 Using spherical harmonics

 Library entry C      S cc-pVTZ              selected for orbital group  1
 Library entry C      P cc-pVTZ              selected for orbital group  1
 Library entry C      D cc-pVTZ              selected for orbital group  1
 Library entry C      F cc-pVTZ              selected for orbital group  1
 Library entry O      S cc-pVTZ              selected for orbital group  2
 Library entry O      P cc-pVTZ              selected for orbital group  2
 Library entry O      D cc-pVTZ              selected for orbital group  2
 Library entry O      F cc-pVTZ              selected for orbital group  2
 Library entry H      S cc-pVTZ              selected for orbital group  3
 Library entry H      P cc-pVTZ              selected for orbital group  3
 Library entry H      D cc-pVTZ              selected for orbital group  3

1PROGRAM * SEWARD (Integral evaluation for generally contracted gaussian basis sets)     Author: Roland Lindh, 1990

 Geometry written to block  1 of record 700


 Point group  C1  



 ATOMIC COORDINATES

 NR  ATOM    CHARGE       X              Y              Z

   1  C       6.00   -3.103061700    1.586015481    0.021691377
   2  C       6.00   -0.865611766   -0.065848006   -0.655914686
   3  C       6.00   -1.116974541   -2.778724027    0.243707096
   4  O       8.00    1.311568563    1.104544366    0.589087925
   5  O       8.00    3.449376645    0.120112480   -0.251742466
   6  H       1.00   -4.798541829    0.841890474   -0.884892772
   7  H       1.00   -2.795541181    3.518697357   -0.623192249
   8  H       1.00   -3.384756114    1.596203107    2.065234556
   9  H       1.00   -0.456026795   -0.032686308   -2.676944222
  10  H       1.00   -2.698161852   -3.702449171   -0.707610623
  11  H       1.00   -1.473813071   -2.830377405    2.276460034
  12  H       1.00    0.601125024   -3.842053655   -0.153162333

 Bond lengths in Bohr (Angstrom)

 1-2  2.862513784  1-6  2.061618227  1-7  2.060510372  1-8  2.062892206  2-3  2.869180876
     ( 1.514777055)     ( 1.090961380)     ( 1.090375128)     ( 1.091635540)     ( 1.518305128)

  2- 4  2.767663995   2- 9  2.062382101   3-10  2.063595614   3-11  2.064482094   3-12  2.059136071
       ( 1.464584709)       ( 1.091365604)       ( 1.092007768)       ( 1.092476872)       ( 1.089647879)

 4-5  2.499264948
     ( 1.322554050)

 Bond angles

  1-2-3  113.76153483   1-2-4  105.32890034   1-2-9  112.20512934   2-1-6  109.29538039

  2- 1- 7  110.51950716   2- 1- 8  110.12575750   2- 3-10  110.23223271   2- 3-11  110.33615111

  2- 3-12  110.77716678   2- 4- 5  110.79172998   3- 2- 4  109.13013318   3- 2- 9  109.86845322

  4-2-9  106.12850129   6-1-7  108.88451825   6-1-8  108.97164629   7-1-8  109.01313610

 10- 3-11  108.07581564  10- 3-12  108.62183105  11- 3-12  108.72782525

 NUCLEAR CHARGE:                   41
 NUMBER OF PRIMITIVE AOS:         354
 NUMBER OF SYMMETRY AOS:          322
 NUMBER OF CONTRACTIONS:          248   ( 248A   )
 NUMBER OF CORE ORBITALS:           5   (   5A   )
 NUMBER OF VALENCE ORBITALS:       27   (  27A   )


 NUCLEAR REPULSION ENERGY  186.63091541


 Eigenvalues of metric

         1 0.807E-03 0.954E-03 0.110E-02 0.124E-02 0.137E-02 0.150E-02 0.160E-02 0.164E-02


 Contracted 2-electron integrals neglected if value below      1.0D-16
 AO integral compression algorithm  1   Integral accuracy      1.0D-16

     3371.958 MB (compressed) written to integral file ( 82.1%)

     Node minimum: 916.718 MB, node maximum: 1495.269 MB


 NUMBER OF SORTED TWO-ELECTRON INTEGRALS:  158903334.     BUFFER LENGTH:  32768
 NUMBER OF SEGMENTS:  10  SEGMENT LENGTH:   15997437      RECORD LENGTH: 524288

 Memory used in sort:      16.55 MW

 SORT1 READ   513539147. AND WROTE   152635335. INTEGRALS IN    442 RECORDS. CPU TIME:    16.87 SEC, REAL TIME:    18.54 SEC
 SORT2 READ   459398629. AND WROTE   476679126. INTEGRALS IN  10986 RECORDS. CPU TIME:     2.95 SEC, REAL TIME:    12.81 SEC

 Node minimum:   158882750.  Node maximum:   158903334. integrals

 OPERATOR DM      FOR CENTER  0  COORDINATES:    0.000000    0.000000    0.000000


 **********************************************************************************************************************************
 DATASETS  * FILE   NREC   LENGTH (MB)   RECORD NAMES
              1      18        5.04       500      610      700      900      950      970     1000      129      960     1100   
                                          VAR    BASINP    GEOM    SYMINP    ZMAT    AOBASIS   BASIS     P2S    ABASIS      S 
                                         1400     1410     1200     1210     1080     1600     1650     1700   
                                           T        V       H0       H01     AOSYM     SMH    MOLCAS    OPER   

 PROGRAMS   *        TOTAL       INT
 CPU TIMES  *        29.10     29.02
 REAL TIME  *        41.50 SEC
 DISK USED  *         9.14 GB      
 GA USED    *         0.01 MB       (max)       0.00 MB       (current)
 **********************************************************************************************************************************

1PROGRAM * RHF-SCF (OPEN SHELL)       Authors: W. Meyer, H.-J. Werner


 NUMBER OF ELECTRONS:      21+   20-    SPACE SYMMETRY=1    SPIN SYMMETRY: Doublet 
 CONVERGENCE THRESHOLDS:    1.00E-10 (Density)    1.00E-11 (Energy)
 MAX. NUMBER OF ITERATIONS:      200
 INTERPOLATION TYPE:            DIIS
 INTERPOLATION STEPS:              2 (START)      1 (STEP)
 LEVEL SHIFTS:                 -0.30 (CLOSED)  0.00 (OPEN) 



 Orbital guess generated from atomic densities. Full valence occupancy:   32

 Molecular orbital dump at record        2100.2

 ITERATION    DDIFF          GRAD             ENERGY        2-EL.EN.            DIPOLE MOMENTS         DIIS
    1      0.000D+00      0.000D+00      -267.26083513    559.804567   -1.77511   -0.06921   -0.09701    0
    2      0.000D+00      0.326D-02      -267.33450217    562.653710   -1.01367   -0.43136   -0.35905    1
    3      0.471D-02      0.230D-02      -267.36109568    561.605741   -1.18775   -0.24233   -0.21676    2
    4      0.212D-02      0.546D-03      -267.36934446    561.792434   -0.97633   -0.31465   -0.29783    3
    5      0.927D-03      0.485D-03      -267.37357551    561.834711   -0.92084   -0.31649   -0.30213    4
    6      0.583D-03      0.272D-03      -267.37550379    561.801579   -0.87950   -0.30957   -0.30004    5
    7      0.486D-03      0.133D-03      -267.37584019    561.787370   -0.88952   -0.29795   -0.29198    6
    8      0.258D-03      0.358D-04      -267.37586234    561.784630   -0.88907   -0.29466   -0.29047    7
    9      0.857D-04      0.191D-04      -267.37587358    561.784837   -0.89160   -0.29519   -0.29053    8
   10      0.453D-04      0.825D-05      -267.37587541    561.784736   -0.89278   -0.29456   -0.29024    9
   11      0.200D-04      0.323D-05      -267.37587566    561.784683   -0.89341   -0.29440   -0.29008    9
   12      0.787D-05      0.148D-05      -267.37587573    561.784909   -0.89356   -0.29449   -0.29012    9
   13      0.371D-05      0.529D-06      -267.37587573    561.784961   -0.89357   -0.29455   -0.29015    9
   14      0.149D-05      0.299D-06      -267.37587574    561.784960   -0.89356   -0.29457   -0.29015    9
   15      0.810D-06      0.145D-06      -267.37587574    561.784967   -0.89355   -0.29457   -0.29015    9
   16      0.410D-06      0.712D-07      -267.37587574    561.784969   -0.89355   -0.29458   -0.29015    9
   17      0.165D-06      0.319D-07      -267.37587574    561.784964   -0.89355   -0.29458   -0.29015    9
   18      0.970D-07      0.170D-07      -267.37587574    561.784961   -0.89355   -0.29457   -0.29015    9
   19      0.499D-07      0.760D-08      -267.37587574    561.784963   -0.89355   -0.29457   -0.29015    9
   20      0.200D-07      0.300D-08      -267.37587574    561.784962   -0.89355   -0.29457   -0.29015    9
   21      0.108D-07      0.220D-08      -267.37587574    561.784962   -0.89355   -0.29457   -0.29015    9
   22      0.884D-08      0.182D-08      -267.37587574    561.784962   -0.89355   -0.29457   -0.29015    9
   23      0.948D-08      0.147D-08      -267.37587574    561.784962   -0.89355   -0.29457   -0.29015    9
   24      0.118D-07      0.122D-08      -267.37587574    561.784962   -0.89355   -0.29457   -0.29015    9
   25      0.191D-07      0.798D-09      -267.37587574    561.784962   -0.89355   -0.29457   -0.29015    9
   26      0.171D-07      0.433D-09      -267.37587574    561.784962   -0.89355   -0.29457   -0.29015    9
   27      0.977D-08      0.180D-09      -267.37587574    561.784962   -0.89355   -0.29457   -0.29015    9
   28      0.213D-08      0.845D-10      -267.37587574    561.784962   -0.89355   -0.29457   -0.29015    9
   29      0.264D-09      0.398D-10      -267.37587574    561.784962   -0.89355   -0.29457   -0.29015    9
   30      0.294D-09      0.174D-10      -267.37587574    561.784962   -0.89355   -0.29457   -0.29015    9
   31      0.422D-10      0.123D-10      -267.37587574    561.784962   -0.89355   -0.29457   -0.29015    0

 Final alpha occupancy:  21
 Final beta  occupancy:  20

 !RHF STATE 1.1 Energy               -267.375875736215
 Nuclear energy                       186.63091541
 One-electron energy                 -734.89927196
 Two-electron energy                  280.89248082
 Virial quotient                       -1.00116612
 !RHF STATE 1.1 Dipole moment          -0.89354720    -0.29457392    -0.29015317
 Dipole moment /Debye                  -2.27102170    -0.74868318    -0.73744750

 Orbital energies:

         1.1          2.1          3.1          4.1          5.1          6.1          7.1          8.1          9.1         10.1
    -20.648861   -20.640548   -11.297464   -11.229367   -11.225055    -1.523747    -1.171127    -1.034525    -0.952871    -0.819453

        11.1         12.1         13.1         14.1         15.1         16.1         17.1         18.1         19.1         20.1
     -0.695493    -0.667789    -0.652958    -0.595237    -0.562610    -0.558437    -0.544137    -0.501844    -0.488659    -0.465456

        21.1         22.1         23.1
     -0.563034     0.137685     0.174916


 **********************************************************************************************************************************
 DATASETS  * FILE   NREC   LENGTH (MB)   RECORD NAMES
              1      18        5.04       500      610      700      900      950      970     1000      129      960     1100   
                                          VAR    BASINP    GEOM    SYMINP    ZMAT    AOBASIS   BASIS     P2S    ABASIS      S 
                                         1400     1410     1200     1210     1080     1600     1650     1700   
                                           T        V       H0       H01     AOSYM     SMH    MOLCAS    OPER   

              2       3        2.21       700     1000     2100   
                                         GEOM     BASIS     RHF  

 PROGRAMS   *        TOTAL       RHF       INT
 CPU TIMES  *        79.10     50.00     29.02
 REAL TIME  *        95.46 SEC
 DISK USED  *         9.18 GB      
 SF USED    *         0.25 MB      
 GA USED    *         0.01 MB       (max)       0.00 MB       (current)
 **********************************************************************************************************************************


1PROGRAM * CCSD (Unrestricted open-shell coupled cluster)     Authors: C. Hampel, H.-J. Werner, 1991, M. Deegan, P.J. Knowles, 1992


 Convergence thresholds:  THRVAR = 1.00D-08  THRDEN = 1.00D-10

 CCSD(T)     terms to be evaluated (factor= 1.000)


 Number of core orbitals:           5 (   5 )
 Number of closed-shell orbitals:  15 (  15 )
 Number of active  orbitals:        1 (   1 )
 Number of external orbitals:     227 ( 227 )

 Memory could be reduced to 332.02 Mwords without degradation in triples

 Number of N-1 electron functions:              31
 Number of N-2 electron functions:             465
 Number of singly external CSFs:              7068
 Number of doubly external CSFs:          18353430
 Total number of CSFs:                    18360498

 Molecular orbitals read from record     2100.2  Type=RHF/CANONICAL (state 1.1)

 Integral transformation finished. Total CPU:  37.72 sec, npass=  1  Memory used: 145.25 MW

 Starting RMP2 calculation

 ITER.      SQ.NORM     CORR.ENERGY   TOTAL ENERGY   ENERGY CHANGE        DEN1      VAR(S)    VAR(P)  DIIS     TIME
   1      1.26534798    -0.96758087  -268.34345661    -0.96758087    -0.00323609  0.26D-04  0.11D-02  1  1    43.33
   2      1.26813230    -0.97107002  -268.34694575    -0.00348914    -0.00000666  0.10D-05  0.23D-05  2  2    47.11
   3      1.26821220    -0.97112292  -268.34699865    -0.00005290    -0.00000008  0.54D-07  0.11D-07  3  3    50.88
   4      1.26821392    -0.97112273  -268.34699847     0.00000018    -0.00000000  0.16D-08  0.12D-09  4  4    54.64
   5      1.26821417    -0.97112282  -268.34699855    -0.00000008    -0.00000000  0.19D-10  0.46D-11  5  5    58.62
   6      1.26821423    -0.97112285  -268.34699859    -0.00000003    -0.00000000  0.51D-13  0.56D-13  6  6    62.71
   7      1.26821423    -0.97112285  -268.34699859     0.00000000    -0.00000000  0.15D-14  0.86D-15  6  1    66.88
   8      1.26821423    -0.97112285  -268.34699859     0.00000000    -0.00000000  0.16D-16  0.80D-17  6  2    71.01
   9      1.26821423    -0.97112285  -268.34699859    -0.00000000    -0.00000000  0.32D-18  0.10D-18  6  3    75.09

 Norm of t1 vector:      0.04588573      S-energy:    -0.00446709      T1 diagnostic:  0.00074411
 Norm of t2 vector:      0.51585728      P-energy:    -0.96665577
                                         Alpha-Beta:  -0.73706441
                                         Alpha-Alpha: -0.11898810
                                         Beta-Beta:   -0.11060325

 Spin contamination <S**2-Sz**2-Sz>     0.00145357
  Reference energy                   -267.375875736216
  RHF-RMP2 correlation energy          -0.971122851205
 !RHF-RMP2 energy                    -268.346998587421

 Starting UCCSD calculation

 ITER.      SQ.NORM     CORR.ENERGY   TOTAL ENERGY   ENERGY CHANGE        DEN1      VAR(S)    VAR(P)  DIIS     TIME
   1      1.27982649    -0.97925108  -268.35512681    -0.97925108    -0.02932869  0.65D-02  0.54D-02  1  1   193.16
   2      1.30622329    -1.00587181  -268.38174755    -0.02662074    -0.00363479  0.62D-03  0.97D-03  2  2   274.67
   3      1.32286540    -1.01269382  -268.38856955    -0.00682200    -0.00091201  0.75D-03  0.76D-04  3  3   356.66
   4      1.33409522    -1.01535130  -268.39122704    -0.00265749    -0.00038536  0.31D-03  0.33D-04  4  4   438.82
   5      1.34916658    -1.01734831  -268.39322405    -0.00199700    -0.00011815  0.10D-03  0.90D-05  5  5   520.71
   6      1.36070232    -1.01837126  -268.39424700    -0.00102295    -0.00001822  0.93D-05  0.32D-05  6  6   602.91
   7      1.36441280    -1.01861319  -268.39448893    -0.00024193    -0.00000318  0.16D-05  0.61D-06  6  1   684.98
   8      1.36502121    -1.01865565  -268.39453139    -0.00004246    -0.00000068  0.27D-06  0.15D-06  6  2   767.31
   9      1.36534417    -1.01867424  -268.39454998    -0.00001859    -0.00000015  0.67D-07  0.32D-07  6  4   849.33
  10      1.36533086    -1.01867299  -268.39454873     0.00000125    -0.00000002  0.11D-07  0.43D-08  6  3   931.38
  11      1.36539385    -1.01867811  -268.39455385    -0.00000512    -0.00000000  0.24D-08  0.95D-09  6  5  1013.54
  12      1.36537331    -1.01867402  -268.39454975     0.00000410    -0.00000000  0.81D-09  0.17D-09  6  2  1095.66
  13      1.36536897    -1.01867320  -268.39454894     0.00000082    -0.00000000  0.50D-09  0.48D-10  6  6  1177.78
  14      1.36536267    -1.01867233  -268.39454807     0.00000087    -0.00000000  0.38D-09  0.22D-10  6  1  1259.96
  15      1.36536052    -1.01867201  -268.39454774     0.00000033    -0.00000000  0.31D-09  0.15D-10  6  4  1341.99
  16      1.36536316    -1.01867235  -268.39454808    -0.00000034    -0.00000000  0.22D-09  0.13D-10  6  3  1424.18
  17      1.36536698    -1.01867279  -268.39454852    -0.00000044    -0.00000000  0.10D-09  0.12D-10  6  5  1506.57
  18      1.36536845    -1.01867281  -268.39454855    -0.00000002    -0.00000000  0.33D-10  0.47D-11  6  2  1588.82
  19      1.36536839    -1.01867287  -268.39454861    -0.00000006    -0.00000000  0.73D-11  0.14D-11  6  1  1671.23
  20      1.36536633    -1.01867260  -268.39454833     0.00000027    -0.00000000  0.12D-11  0.54D-12  6  6  1753.75
  21      1.36536548    -1.01867254  -268.39454828     0.00000006    -0.00000000  0.25D-12  0.54D-13  6  1  1835.87
  22      1.36536512    -1.01867250  -268.39454823     0.00000005    -0.00000000  0.43D-13  0.19D-13  6  5  1918.19
  23      1.36536507    -1.01867249  -268.39454823     0.00000000    -0.00000000  0.20D-13  0.49D-14  6  4  1999.96
  24      1.36536500    -1.01867249  -268.39454822     0.00000001    -0.00000000  0.50D-14  0.11D-14  6  3  2081.83
  25      1.36536497    -1.01867248  -268.39454822     0.00000000    -0.00000000  0.95D-15  0.36D-15  6  2  2163.67
  26      1.36536496    -1.01867248  -268.39454822     0.00000000    -0.00000000  0.31D-15  0.92D-16  6  5  2245.40

 Norm of t1 vector:      0.23122430      S-energy:    -0.00501438      T1 diagnostic:  0.02849297
                                                                       D1 diagnostic:  0.14603683
 Norm of t2 vector:      0.55848034      P-energy:    -1.01365810
                                         Alpha-Beta:  -0.80136000
                                         Alpha-Alpha: -0.10868405
                                         Beta-Beta:   -0.10361405

 Singles amplitudes (print threshold =  0.500E-01):

         I         SYM. A    A   T(IA) [Beta-Beta]

         8         1         1     -0.09681669
         9         1         1      0.09975275
        11         1         1     -0.05178821
        12         1         1     -0.07553585
        14         1         1     -0.11176681

 Spin contamination <S**2-Sz**2-Sz>     0.00176084

 Memory could be reduced to 360.52 Mwords without degradation in triples
 

 RESULTS
 =======

  Reference energy                   -267.375875736216
  UCCSD singles energy                 -0.005014384370
  UCCSD pair energy                    -1.013658098084
  UCCSD correlation energy             -1.018672482454
  Triples (T) contribution             -0.040831440960
  Total correlation energy             -1.059503923414
 
  RHF-UCCSD energy                   -268.394548218670
  RHF-UCCSD[T] energy                -268.438700751018
  RHF-UCCSD-T energy                 -268.434882277647
 !RHF-UCCSD(T) energy                -268.435379659630

 Program statistics:

 Available memory in ccsd:               999997692
 Min. memory needed in ccsd:              51505734
 Max. memory used in ccsd:                74803578
 Max. memory used in cckext:              59475747 (26 integral passes)
 Max. memory used in cckint:             145249478 ( 1 integral passes)



 **********************************************************************************************************************************
 DATASETS  * FILE   NREC   LENGTH (MB)   RECORD NAMES
              1      18        5.04       500      610      700      900      950      970     1000      129      960     1100   
                                          VAR    BASINP    GEOM    SYMINP    ZMAT    AOBASIS   BASIS     P2S    ABASIS      S 
                                         1400     1410     1200     1210     1080     1600     1650     1700   
                                           T        V       H0       H01     AOSYM     SMH    MOLCAS    OPER   

              2       3        2.21       700     1000     2100   
                                         GEOM     BASIS     RHF  

 PROGRAMS   *        TOTAL  UCCSD(T)       RHF       INT
 CPU TIMES  *      3916.04   3836.94     50.00     29.02
 REAL TIME  *      4032.97 SEC
 DISK USED  *        16.16 GB      
 SF USED    *         6.57 GB      
 GA USED    *         0.01 MB       (max)       0.00 MB       (current)
 **********************************************************************************************************************************

        UCCSD(T)        RHF-SCF 
   -268.43537966   -267.37587574
 **********************************************************************************************************************************
 Variable memory released
