
    -----------------------------------------------------------------------
          Psi4: An Open-Source Ab Initio Electronic Structure Package
                               Psi4 1.4a2.dev629 

                         Git: Rev {master} 2938fc2 dirty


    D. G. A. Smith, L. A. Burns, A. C. Simmonett, R. M. Parrish,
    M. C. Schieber, R. Galvelis, P. Kraus, H. Kruse, R. Di Remigio,
    A. Alenaizan, A. M. James, S. Lehtola, J. P. Misiewicz, M. Scheurer,
    R. A. Shaw, J. B. Schriber, Y. Xie, Z. L. Glick, D. A. Sirianni,
    J. S. O'Brien, J. M. Waldrop, A. Kumar, E. G. Hohenstein,
    B. P. Pritchard, B. R. Brooks, H. F. Schaefer III, A. Yu. Sokolov,
    K. Patkowski, A. E. DePrince III, U. Bozkaya, R. A. King,
    F. A. Evangelista, J. M. Turney, T. D. Crawford, C. D. Sherrill,
    J. Chem. Phys. 152(18) 184108 (2020). https://doi.org/10.1063/5.0006002

                            Additional Code Authors
    E. T. Seidl, C. L. Janssen, E. F. Valeev, M. L. Leininger,
    J. F. Gonthier, R. M. Richard, H. R. McAlexander, M. Saitow, X. Wang,
    P. Verma, and M. H. Lechner

             Previous Authors, Complete List of Code Contributors,
                       and Citations for Specific Modules
    https://github.com/psi4/psi4/blob/master/codemeta.json
    https://github.com/psi4/psi4/graphs/contributors
    http://psicode.org/psi4manual/master/introduction.html#citing-psifour

    -----------------------------------------------------------------------


    Psi4 started on: Saturday, 19 September 2020 05:49PM

    Process ID: 1900
    Host:       n030
    PSIDATADIR: /opt/psi/4/master/share/psi4
    Memory:     500.0 MiB
    Threads:    1
    
  ==> Input File <==

--------------------------------------------------------------------------
# o-Benzyne preliminary computations

memory 14 gb

molecule {
  0 1
  C   -1.3747423836   -0.0256692815    0.0000023247
  O    1.3074530978    0.1208154881    0.0000044751
  H   -2.0716512176    1.9032760356   -0.0009182893
  H   -2.1073904906   -0.9746450461    1.6773488778
  H   -2.1073163675   -0.9761582632   -1.6765197867
  H    1.9467831215   -1.5727573929   -0.0000105916
  units bohr
}

set {
  basis=cc-pVTZ
  reference rhf
  e_convergence 10 
  d_convergence 10
  r_convergence 8
  maxiter 300
}

energy('ccsd(t)')
--------------------------------------------------------------------------

  Memory set to  13.039 GiB by Python driver.

Scratch directory: /tmp/

*** tstart() called on n030
*** at Sat Sep 19 17:49:55 2020

   => Loading Basis Set <=

    Name: CC-PVTZ
    Role: ORBITAL
    Keyword: BASIS
    atoms 1   entry C          line   186 file /opt/psi/4/master/share/psi4/basis/cc-pvtz.gbs 
    atoms 2   entry O          line   262 file /opt/psi/4/master/share/psi4/basis/cc-pvtz.gbs 
    atoms 3-6 entry H          line    23 file /opt/psi/4/master/share/psi4/basis/cc-pvtz.gbs 


         ---------------------------------------------------------
                                   SCF
               by Justin Turney, Rob Parrish, Andy Simmonett
                          and Daniel G. A. Smith
                              RHF Reference
                        1 Threads,  13351 MiB Core
         ---------------------------------------------------------

  ==> Geometry <==

    Molecular point group: c1
    Full point group: C1

    Geometry (in Bohr), charge = 0, multiplicity = 1:

       Center              X                  Y                   Z               Mass       
    ------------   -----------------  -----------------  -----------------  -----------------
         C           -1.376058798838    -0.025401956513     0.000002358904    12.000000000000
         O            1.306136682562     0.121082813087     0.000004509304    15.994914619570
         H           -2.072967632838     1.903543360587    -0.000918255096     1.007825032230
         H           -2.108706905838    -0.974377721113     1.677348912004     1.007825032230
         H           -2.108632782738    -0.975890938213    -1.676519752496     1.007825032230
         H            1.945466706262    -1.572490067913    -0.000010557396     1.007825032230

  Running in c1 symmetry.

  Rotational constants: A =      4.30890  B =      0.82708  C =      0.79819 [cm^-1]
  Rotational constants: A = 129177.51808  B =  24795.25224  C =  23929.11206 [MHz]
  Nuclear repulsion =   40.345373904746481

  Charge       = 0
  Multiplicity = 1
  Electrons    = 18
  Nalpha       = 9
  Nbeta        = 9

  ==> Algorithm <==

  SCF Algorithm Type is PK.
  DIIS enabled.
  MOM disabled.
  Fractional occupation disabled.
  Guess Type is SAD.
  Energy threshold   = 1.00e-10
  Density threshold  = 1.00e-10
  Integral threshold = 0.00e+00

  ==> Primary Basis <==

  Basis Set: CC-PVTZ
    Blend: CC-PVTZ
    Number of shells: 44
    Number of basis function: 116
    Number of Cartesian functions: 130
    Spherical Harmonics?: true
    Max angular momentum: 3

  ==> Integral Setup <==

  Using in-core PK algorithm.
   Calculation information:
      Number of atoms:                   6
      Number of AO shells:              44
      Number of primitives:             84
      Number of atomic orbitals:       130
      Number of basis functions:       116

      Integral cutoff                 1.00e-12
      Number of threads:                 1

  Performing in-core PK
  Using 46056582 doubles for integral storage.
  We computed 490487 shell quartets total.
  Whereas there are 490545 unique shell quartets.

  ==> DiskJK: Disk-Based J/K Matrices <==

    J tasked:                  Yes
    K tasked:                  Yes
    wK tasked:                  No
    Memory [MiB]:            10013
    Schwarz Cutoff:          1E-12

    OpenMP threads:              1

  Minimum eigenvalue in the overlap matrix is 1.8325262975E-03.
  Reciprocal condition number of the overlap matrix is 2.7659105108E-04.
    Using symmetric orthogonalization.

  ==> Pre-Iterations <==

  SCF Guess: Superposition of Atomic Densities via on-the-fly atomic UHF (no occupation information).

   -------------------------
    Irrep   Nso     Nmo    
   -------------------------
     A        116     116 
   -------------------------
    Total     116     116
   -------------------------

  ==> Iterations <==

                        Total Energy        Delta E     RMS |[F,P]|

   @RHF iter SAD:  -114.41871907082053   -1.14419e+02   0.00000e+00 
   @RHF iter   1:  -115.01466280162327   -5.95944e-01   3.41417e-03 DIIS
   @RHF iter   2:  -115.07156392742415   -5.69011e-02   1.94970e-03 DIIS
   @RHF iter   3:  -115.08830797933288   -1.67441e-02   3.01465e-04 DIIS
   @RHF iter   4:  -115.08919030597403   -8.82327e-04   8.79879e-05 DIIS
   @RHF iter   5:  -115.08926397048343   -7.36645e-05   2.13583e-05 DIIS
   @RHF iter   6:  -115.08926879800914   -4.82753e-06   4.71253e-06 DIIS
   @RHF iter   7:  -115.08926916161676   -3.63608e-07   1.09144e-06 DIIS
   @RHF iter   8:  -115.08926918289164   -2.12749e-08   2.25521e-07 DIIS
   @RHF iter   9:  -115.08926918379109   -8.99448e-10   4.18552e-08 DIIS
   @RHF iter  10:  -115.08926918382048   -2.93880e-11   1.07633e-08 DIIS
   @RHF iter  11:  -115.08926918382241   -1.93268e-12   2.20578e-09 DIIS
   @RHF iter  12:  -115.08926918382294   -5.25802e-13   3.95405e-10 DIIS
   @RHF iter  13:  -115.08926918382249    4.40536e-13   7.27086e-11 DIIS
  Energy and wave function converged.


  ==> Post-Iterations <==

    Orbital Energies [Eh]
    ---------------------

    Doubly Occupied:                                                      

       1A    -20.552176     2A    -11.268434     3A     -1.353958  
       4A     -0.924474     5A     -0.688250     6A     -0.618294  
       7A     -0.590119     8A     -0.502514     9A     -0.449526  

    Virtual:                                                              

      10A      0.138623    11A      0.178824    12A      0.220377  
      13A      0.223981    14A      0.290569    15A      0.386193  
      16A      0.404538    17A      0.545144    18A      0.583540  
      19A      0.624515    20A      0.625610    21A      0.639349  
      22A      0.690734    23A      0.704282    24A      0.721668  
      25A      0.833784    26A      0.865260    27A      0.872270  
      28A      0.928337    29A      1.069533    30A      1.100891  
      31A      1.177879    32A      1.189947    33A      1.262428  
      34A      1.271669    35A      1.282807    36A      1.364342  
      37A      1.447376    38A      1.491980    39A      1.523791  
      40A      1.545786    41A      1.584069    42A      1.621304  
      43A      1.778585    44A      2.093047    45A      2.179861  
      46A      2.198371    47A      2.299131    48A      2.322677  
      49A      2.487204    50A      2.509893    51A      2.575651  
      52A      2.807190    53A      2.950791    54A      3.055697  
      55A      3.111180    56A      3.116654    57A      3.144288  
      58A      3.223927    59A      3.243244    60A      3.314564  
      61A      3.315592    62A      3.342266    63A      3.384305  
      64A      3.500066    65A      3.615016    66A      3.635529  
      67A      3.702236    68A      3.708540    69A      3.746457  
      70A      3.760504    71A      3.815254    72A      3.841847  
      73A      3.907106    74A      4.012437    75A      4.028805  
      76A      4.118692    77A      4.161521    78A      4.172570  
      79A      4.249505    80A      4.256570    81A      4.289838  
      82A      4.402853    83A      4.439976    84A      4.469299  
      85A      4.561581    86A      4.583399    87A      4.712335  
      88A      4.787427    89A      4.998954    90A      5.037273  
      91A      5.059107    92A      5.201336    93A      5.273516  
      94A      5.318278    95A      5.374666    96A      5.444473  
      97A      5.550028    98A      5.552633    99A      5.568734  
     100A      5.787450   101A      5.943372   102A      6.191560  
     103A      6.207693   104A      6.248125   105A      6.427702  
     106A      6.639190   107A      6.999386   108A      7.127100  
     109A      7.183265   110A      7.235301   111A      7.353183  
     112A      7.429488   113A      7.594725   114A      7.912039  
     115A     12.144092   116A     13.743304  

    Final Occupation by Irrep:
              A 
    DOCC [     9 ]

  @RHF Final Energy:  -115.08926918382249

   => Energetics <=

    Nuclear Repulsion Energy =             40.3453739047464808
    One-Electron Energy =                -236.9737991278386744
    Two-Electron Energy =                  81.5391560392696988
    Total Energy =                       -115.0892691838224948

Computation Completed


Properties will be evaluated at   0.000000,   0.000000,   0.000000 [a0]

Properties computed using the SCF density matrix

  Nuclear Dipole Moment: [e a0]
     X:    -2.1521      Y:    -0.8030      Z:    -0.0000

  Electronic Dipole Moment: [e a0]
     X:     1.7630      Y:     0.2149      Z:     0.0000

  Dipole Moment: [e a0]
     X:    -0.3891      Y:    -0.5881      Z:    -0.0000     Total:     0.7051

  Dipole Moment: [D]
     X:    -0.9890      Y:    -1.4947      Z:    -0.0001     Total:     1.7923


*** tstop() called on n030 at Sat Sep 19 17:49:58 2020
Module time:
	user time   =       3.53 seconds =       0.06 minutes
	system time =       0.01 seconds =       0.00 minutes
	total time  =          3 seconds =       0.05 minutes
Total time:
	user time   =       3.53 seconds =       0.06 minutes
	system time =       0.01 seconds =       0.00 minutes
	total time  =          3 seconds =       0.05 minutes
 MINTS: Wrapper to libmints.
   by Justin Turney

   Calculation information:
      Number of threads:                 1
      Number of atoms:                   6
      Number of AO shells:              44
      Number of SO shells:              44
      Number of primitives:             84
      Number of atomic orbitals:       130
      Number of basis functions:       116

      Number of irreps:                  1
      Integral cutoff                 0.00e+00
      Number of functions per irrep: [ 116 ]

 OEINTS: Overlap, kinetic, potential, dipole, and quadrupole integrals
         stored in file 35.

      Computing two-electron integrals...done
      Computed 22871357 non-zero two-electron integrals.
        Stored in file 33.


*** tstart() called on n030
*** at Sat Sep 19 17:50:00 2020


	Wfn Parameters:
	--------------------
	Wavefunction         = CCSD_T
	Number of irreps     = 1
	Number of MOs        = 116
	Number of active MOs = 116
	AO-Basis             = NONE
	Semicanonical        = false
	Reference            = RHF
	Print Level          = 1

	IRREP	# MOs	# FZDC	# DOCC	# SOCC	# VIRT	# FZVR
	-----	-----	------	------	------	------	------
	 A	   116	    0	    9	    0	    107	    0
	Transforming integrals...
	IWL integrals will be deleted.
	(OO|OO)...
	Presorting SO-basis two-electron integrals.
	Sorting File: SO Ints (nn|nn) nbuckets = 1
	Transforming the one-electron integrals and constructing Fock matrices
	Starting first half-transformation.
	Sorting half-transformed integrals.
	First half integral transformation complete.
	Starting second half-transformation.
	Two-electron integral transformation complete.
	(OO|OV)...
	Starting second half-transformation.
	Two-electron integral transformation complete.
	(OO|VV)...
	Starting second half-transformation.
	Two-electron integral transformation complete.
	(OV|OO)...
	Starting first half-transformation.
	Sorting half-transformed integrals.
	First half integral transformation complete.
	Starting second half-transformation.
	Two-electron integral transformation complete.
	(OV|OV)...
	Starting second half-transformation.
	Two-electron integral transformation complete.
	(OV|VV)...
	Starting second half-transformation.
	Two-electron integral transformation complete.
	(VV|OO)...
	Starting first half-transformation.
	Sorting half-transformed integrals.
	First half integral transformation complete.
	Starting second half-transformation.
	Two-electron integral transformation complete.
	(VV|OV)...
	Starting second half-transformation.
	Two-electron integral transformation complete.
	(VV|VV)...
	Starting second half-transformation.
	Two-electron integral transformation complete.
	Frozen core energy     =      0.00000000000000

	Size of irrep 0 of <ab|cd> integrals:    131.080 (MW) /   1048.637 (MB)
	Total:                                   131.080 (MW) /   1048.637 (MB)

	Size of irrep 0 of <ia|bc> integrals:     11.025 (MW) /     88.203 (MB)
	Total:                                    11.025 (MW) /     88.203 (MB)

	Size of irrep 0 of tijab amplitudes:       0.927 (MW) /      7.419 (MB)
	Total:                                     0.927 (MW) /      7.419 (MB)

	Nuclear Rep. energy          =     40.34537390474648
	SCF energy                   =   -115.08926918382249
	One-electron energy          =   -236.97379915976279
	Two-electron energy          =     81.53915607119386
	Reference energy             =   -115.08926918382244

*** tstop() called on n030 at Sat Sep 19 17:50:16 2020
Module time:
	user time   =      10.22 seconds =       0.17 minutes
	system time =       2.73 seconds =       0.05 minutes
	total time  =         16 seconds =       0.27 minutes
Total time:
	user time   =      15.50 seconds =       0.26 minutes
	system time =       2.94 seconds =       0.05 minutes
	total time  =         21 seconds =       0.35 minutes
            **************************
            *                        *
            *        CCENERGY        *
            *                        *
            **************************

    Nuclear Rep. energy (wfn)     =   40.345373904746481
    SCF energy          (wfn)     = -115.089269183822495
    Reference energy    (file100) = -115.089269183822438

    Input parameters:
    -----------------
    Wave function   =     CCSD_T
    Reference wfn   =     RHF
    Brueckner       =     No
    Memory (Mbytes) =     14000.0
    Maxiter         =    300
    R_Convergence   =     1.0e-08
    E_Convergence   =     1.0e-10
    Restart         =     Yes
    DIIS            =     Yes
    AO Basis        =     NONE
    ABCD            =     NEW
    Cache Level     =     2
    Cache Type      =     LOW
    Print Level     =     1
    Num. of threads =     1
    # Amps to Print =     10
    Print MP2 Amps? =     No
    Analyze T2 Amps =     No
    Print Pair Ener =     No
    Local CC        =     No
    SCS-MP2         =     False
    SCSN-MP2        =     False
    SCS-CCSD        =     False

MP2 correlation energy -0.4575418386662929
                Solving CC Amplitude Equations
                ------------------------------
  Iter             Energy              RMS        T1Diag      D1Diag    New D1Diag    D2Diag
  ----     ---------------------    ---------   ----------  ----------  ----------   --------
     0        -0.457541838666293    0.000e+00    0.000000    0.000000    0.000000    0.128477
     1        -0.465017482096141    4.772e-02    0.006503    0.014913    0.014913    0.129552
     2        -0.474991735430231    1.567e-02    0.006608    0.014876    0.014876    0.135328
     3        -0.476476600438801    5.503e-03    0.007408    0.016977    0.016977    0.136767
     4        -0.476372754369019    1.210e-03    0.007461    0.017126    0.017126    0.137002
     5        -0.476413176364472    4.387e-04    0.007494    0.017263    0.017263    0.137103
     6        -0.476421823948420    1.241e-04    0.007503    0.017316    0.017316    0.137112
     7        -0.476419604418747    4.607e-05    0.007505    0.017332    0.017332    0.137109
     8        -0.476419467569882    1.710e-05    0.007506    0.017340    0.017340    0.137109
     9        -0.476419572196574    4.943e-06    0.007507    0.017342    0.017342    0.137109
    10        -0.476419322952805    1.577e-06    0.007507    0.017343    0.017343    0.137109
    11        -0.476419391118861    4.854e-07    0.007507    0.017343    0.017343    0.137109
    12        -0.476419376469072    1.195e-07    0.007507    0.017343    0.017343    0.137109
    13        -0.476419379575376    4.285e-08    0.007507    0.017343    0.017343    0.137109
    14        -0.476419380750925    1.222e-08    0.007507    0.017343    0.017343    0.137109
    15        -0.476419380792937    5.041e-09    0.007507    0.017343    0.017343    0.137109
    16        -0.476419380822658    1.570e-09    0.007507    0.017343    0.017343    0.137109

    Iterations converged.


    Largest TIA Amplitudes:
              5   6        -0.0080137173
              5  14         0.0075561596
              5   9         0.0070522662
              8  14        -0.0064102474
              6   7         0.0061628963
              6   3        -0.0059182678
              7   8         0.0058504390
              5   2         0.0056567486
              8   6         0.0053905299
              6   5        -0.0050659227

    Largest TIjAb Amplitudes:
      5   5   9   9        -0.0231769622
      6   6   7   7        -0.0219506822
      8   8  14  14        -0.0210689103
      7   7  12  12        -0.0204793731
      4   4   7   7        -0.0187940543
      6   6   8   8        -0.0157764742
      5   5  14  14        -0.0151836840
      5   5   2   9        -0.0150594450
      5   5   9   2        -0.0150594450
      7   7   7   7        -0.0149283330

    SCF energy       (wfn)                    = -115.089269183822495
    Reference energy (file100)                = -115.089269183822438

    Opposite-spin MP2 correlation energy      =   -0.353956631556173
    Same-spin MP2 correlation energy          =   -0.103585207110120
    Singles MP2 correlation energy            =   -0.000000000000000
    MP2 correlation energy                    =   -0.457541838666293
      * MP2 total energy                      = -115.546811022488725

    Opposite-spin CCSD correlation energy     =   -0.381929829583897
    Same-spin CCSD correlation energy         =   -0.094489551238762
    Singles CCSD correlation energy           =    0.000000000000000
    CCSD correlation energy                   =   -0.476419380822658
      * CCSD total energy                     = -115.565688564645100

            **************************
            *                        *
            *        CCTRIPLES       *
            *                        *
            **************************


    Wave function   =    CCSD_T
    Reference wfn   =      RHF

    Nuclear Rep. energy (wfn)                =   40.345373904746481
    SCF energy          (wfn)                = -115.089269183822495
    Reference energy    (file100)            = -115.089269183822438
    CCSD energy         (file100)            =   -0.476419380822658
    Total CCSD energy   (file100)            = -115.565688564645100

    Number of ijk index combinations:              165
    Memory available in words        :      1750000000
    ~Words needed per explicit thread:         4900172
    Number of threads for explicit ijk threading:    1

    MKL num_threads set to 1 for explicit threading.

    (T) energy                                =   -0.015077509475413
      * CCSD(T) total energy                  = -115.580766074120504


    Psi4 stopped on: Saturday, 19 September 2020 05:51PM
    Psi4 wall time for execution: 0:01:21.69

*** Psi4 exiting successfully. Buy a developer a beer!
