
 Primary working directories    : /tmp/795519.100.gen4.q
 Secondary working directories  : /tmp/795519.100.gen4.q
 Wavefunction directory         : /home/vulcan/mel64643/wfu/
 Main file repository           : /tmp/795519.100.gen4.q/

 ARCHNAME  : Linux/x86_64
 FC        : /opt/intel/compilers_and_libraries_2016.1.150/linux/bin/intel64/ifort
 FCVERSION : 16.0.1
 BLASLIB   : -mkl
 id        : ccgc

 Nodes     nprocs
 n049         1
 ga_uses_ma=false, calling ma_init with nominal heap.
 GA-space will be limited to   8.0 MW (determined by -G option)

 Using customized tuning parameters: mindgm=10; mindgv=16; mindgc=4; mindgr=1; noblas=0; mincuda=1000; minvec=7
 default implementation of scratch files=df  

 ***,Optimization of min3
 memory,1000,m
 gthresh,energy=1.0d-12,orbital=1.0d-10,oneint=1.0d-16,twoint=1.0d-16,optgrad=1.0d-6,compress=1.0d-13
 geomtyp=xyz
 
  bohr
  geometry = {
  6
  arbitrary comment
  C   -1.3715440060   -0.0230368580    0.0000004403
  O    1.3024068103    0.1280804290    0.0000002491
  H   -2.0766214098    1.9076163743   -0.0000799240
  H   -2.1030297510   -0.9807074664    1.6818215379
  H   -2.1030224249   -0.9808386545   -1.6817493925
  H    1.9280866214   -1.5812459445   -0.0000013209
 }
 
 basis=cc-pvdz
 {rhf;maxit,200}
 {ccsd(t);maxit,200}

 Variables initialized (661), CPU time= 0.01 sec
 Commands  initialized (458), CPU time= 0.00 sec, 486 directives.
 Default parameters read. Elapsed time= 0.04 sec

 Checking input...
 Passed
1


                                         ***  PROGRAM SYSTEM MOLPRO  ***
                         Copyright, University College Cardiff Consultants Limited, 2008

                                    Version 2010.1 linked May 16 2016 07:17:05


 **********************************************************************************************************************************
 LABEL *   Optimization of min3                                                          
 Linux-4.4.3/n049(x86_64) 64 bit mpp version                                             DATE: 24-Oct-22          TIME: 15:42:51  
 **********************************************************************************************************************************

 SHA1:             9e8077add272b0f3cad6f7df79ec5211205f459d
 **********************************************************************************************************************************

 THRESHOLDS:

 ZERO    =  1.00D-12  ONEINT  =  1.00D-16  TWOINT  =  1.00D-16  PREFAC  =  1.00D-14  LOCALI  =  1.00D-09  EORDER  =  1.00D-04
 ENERGY  =  1.00D-12  ETEST   =  0.00D+00  EDENS   =  0.00D+00  THRDEDEF=  1.00D-06  GRADIENT=  1.00D-02  STEP    =  1.00D-03
 ORBITAL =  1.00D-10  CIVEC   =  1.00D-05  COEFF   =  1.00D-04  PRINTCI =  5.00D-02  PUNCHCI =  9.90D+01  OPTGRAD =  1.00D-06
 OPTENERG=  1.00D-06  OPTSTEP =  3.00D-04  THRGRAD =  1.00D-10  COMPRESS=  1.00D-13  VARMIN  =  1.00D-07  VARMAX  =  1.00D-03
 THRDOUB =  0.00D+00  THRDIV  =  1.00D-05  THRRED  =  1.00D-07  THRPSP  =  1.00D+00  THRDC   =  1.00D-10  THRCS   =  1.00D-10
 THRNRM  =  1.00D-08  THREQ   =  0.00D+00  THRDE   =  1.00D+00  THRREF  =  1.00D-05  SPARFAC =  1.00D+00  THRDLP  =  1.00D-07
 THRDIA  =  1.00D-10  THRDLS  =  1.00D-07  THRGPS  =  0.00D+00  THRKEX  =  0.00D+00  THRDIS  =  2.00D-01  THRVAR  =  1.00D-10
 THRLOC  =  1.00D-06  THRGAP  =  1.00D-06  THRLOCT = -1.00D+00  THRGAPT = -1.00D+00  THRORB  =  1.00D-06  THRMLTP =  0.00D+00
 THRCPQCI=  1.00D-10  KEXTA   =  0.00D+00  THRCOARS=  0.00D+00  SYMTOL  =  1.00D-06  GRADTOL =  1.00D-06  THROVL  =  1.00D-08
 THRORTH =  1.00D-08  GRID    =  1.00D-06  GRIDMAX =  1.00D-03  DTMAX   =  0.00D+00

 SETTING GEOMTYP        =    XYZ
 ZUNIT=BOHR
 

 Variable memory set to 1000000000 words,  buffer space   230000 words

 SETTING BASIS          =    CC-PVDZ


 Recomputing integrals since basis changed


 Using spherical harmonics

 Library entry C      S cc-pVDZ              selected for orbital group  1
 Library entry C      P cc-pVDZ              selected for orbital group  1
 Library entry C      D cc-pVDZ              selected for orbital group  1
 Library entry O      S cc-pVDZ              selected for orbital group  2
 Library entry O      P cc-pVDZ              selected for orbital group  2
 Library entry O      D cc-pVDZ              selected for orbital group  2
 Library entry H      S cc-pVDZ              selected for orbital group  3
 Library entry H      P cc-pVDZ              selected for orbital group  3

1PROGRAM * SEWARD (Integral evaluation for generally contracted gaussian basis sets)     Author: Roland Lindh, 1990

 Geometry written to block  1 of record 700


 Point group  C1  



 ATOMIC COORDINATES

 NR  ATOM    CHARGE       X              Y              Z

   1  C       6.00   -1.371544006   -0.023036858    0.000000440
   2  O       8.00    1.302406810    0.128080429    0.000000249
   3  H       1.00   -2.076621410    1.907616374   -0.000079924
   4  H       1.00   -2.103029751   -0.980707466    1.681821538
   5  H       1.00   -2.103022425   -0.980838654   -1.681749392
   6  H       1.00    1.928086621   -1.581245945   -0.000001321

 Bond lengths in Bohr (Angstrom)

 1-2  2.678217579  1-3  2.055372486  1-4  2.068991685  1-5  2.068991894  2-6  1.820239511
     ( 1.417251704)     ( 1.087656275)     ( 1.094863245)     ( 1.094863356)     ( 0.963229264)

 Bond angles

  1-2-6  106.86997942   2-1-3  106.82766004   2-1-4  112.27800312   2-1-5  112.27799619

  3-1-4  108.27222721   3-1-5  108.27205692   4-1-5  108.75117429

 NUCLEAR CHARGE:                   18
 NUMBER OF PRIMITIVE AOS:          82
 NUMBER OF SYMMETRY AOS:           80
 NUMBER OF CONTRACTIONS:           48   (  48A   )
 NUMBER OF CORE ORBITALS:           2   (   2A   )
 NUMBER OF VALENCE ORBITALS:       12   (  12A   )


 NUCLEAR REPULSION ENERGY   40.35697739


 Eigenvalues of metric

         1 0.964E-02 0.176E-01 0.368E-01 0.374E-01 0.384E-01 0.474E-01 0.477E-01 0.517E-01


 Contracted 2-electron integrals neglected if value below      1.0D-16
 AO integral compression algorithm  1   Integral accuracy      1.0D-16

     6.554 MB (compressed) written to integral file ( 94.6%)

     Node minimum: 6.554 MB, node maximum: 6.554 MB


 NUMBER OF SORTED TWO-ELECTRON INTEGRALS:     692076.     BUFFER LENGTH:  32768
 NUMBER OF SEGMENTS:   1  SEGMENT LENGTH:     692076      RECORD LENGTH: 524288

 Memory used in sort:       1.25 MW

 SORT1 READ      832256. AND WROTE      682148. INTEGRALS IN      2 RECORDS. CPU TIME:     0.00 SEC, REAL TIME:     0.02 SEC
 SORT2 READ      682148. AND WROTE      692076. INTEGRALS IN     25 RECORDS. CPU TIME:     0.02 SEC, REAL TIME:     0.02 SEC

 FILE SIZES:   FILE 1:     8.0 MBYTE,  FILE 4:     8.4 MBYTE,   TOTAL:     16.4 MBYTE

 OPERATOR DM      FOR CENTER  0  COORDINATES:    0.000000    0.000000    0.000000


 **********************************************************************************************************************************
 DATASETS  * FILE   NREC   LENGTH (MB)   RECORD NAMES
              1      19        8.03       500      610      700      900      950      970     1000      129      960     1100   
                                          VAR    BASINP    GEOM    SYMINP    ZMAT    AOBASIS   BASIS     P2S    ABASIS      S 
                                         1400     1410     1200     1210     1080     1600     1650     1300     1700   
                                           T        V       H0       H01     AOSYM     SMH    MOLCAS    ERIS     OPER   

 PROGRAMS   *        TOTAL       INT
 CPU TIMES  *         0.22      0.17
 REAL TIME  *         0.41 SEC
 DISK USED  *        23.61 MB      
 GA USED    *         0.00 MB       (max)       0.00 MB       (current)
 **********************************************************************************************************************************

1PROGRAM * RHF-SCF (CLOSED SHELL)       Authors: W. Meyer, H.-J. Werner


 NUMBER OF ELECTRONS:       9+    9-    SPACE SYMMETRY=1    SPIN SYMMETRY: Singlet 
 CONVERGENCE THRESHOLDS:    1.00E-10 (Density)    1.00E-13 (Energy)
 MAX. NUMBER OF ITERATIONS:      200
 INTERPOLATION TYPE:            DIIS
 INTERPOLATION STEPS:              2 (START)      1 (STEP)
 LEVEL SHIFTS:                  0.00 (CLOSED)  0.00 (OPEN) 



 Orbital guess generated from atomic densities. Full valence occupancy:   14

 Molecular orbital dump at record        2100.2

 ITERATION    DDIFF          GRAD             ENERGY        2-EL.EN.            DIPOLE MOMENTS         DIIS
    1      0.000D+00      0.000D+00      -115.01404707    164.487043   -0.48972   -0.90854   -0.00000    0
    2      0.000D+00      0.110D-01      -115.04250358    162.259129   -0.31318   -0.53728   -0.00000    1
    3      0.205D-01      0.530D-02      -115.04854139    163.287658   -0.39688   -0.61365   -0.00000    2
    4      0.639D-02      0.113D-02      -115.04900851    163.130324   -0.38709   -0.60205   -0.00000    3
    5      0.204D-02      0.204D-03      -115.04903000    163.136935   -0.39010   -0.59765   -0.00000    4
    6      0.437D-03      0.361D-04      -115.04903083    163.137086   -0.39047   -0.59743   -0.00000    5
    7      0.942D-04      0.755D-05      -115.04903086    163.135888   -0.39063   -0.59726   -0.00000    6
    8      0.155D-04      0.244D-05      -115.04903086    163.136281   -0.39067   -0.59723   -0.00000    7
    9      0.517D-05      0.506D-06      -115.04903086    163.136239   -0.39068   -0.59723   -0.00000    6
   10      0.145D-05      0.928D-07      -115.04903086    163.136238   -0.39069   -0.59723   -0.00000    6
   11      0.246D-06      0.345D-07      -115.04903086    163.136244   -0.39069   -0.59723   -0.00000    6
   12      0.623D-07      0.147D-07      -115.04903086    163.136242   -0.39069   -0.59723   -0.00000    7
   13      0.278D-07      0.317D-08      -115.04903086    163.136242   -0.39069   -0.59723   -0.00000    7
   14      0.794D-08      0.669D-09      -115.04903086    163.136242   -0.39069   -0.59723   -0.00000    7
   15      0.170D-08      0.156D-09      -115.04903086    163.136242   -0.39069   -0.59723   -0.00000    7
   16      0.348D-09      0.473D-10      -115.04903086    163.136242   -0.39069   -0.59723   -0.00000    7
   17      0.912D-10      0.157D-10      -115.04903086    163.136242   -0.39069   -0.59723   -0.00000    0

 Final occupancy:   9

 !RHF STATE 1.1 Energy               -115.049030863389
 Nuclear energy                        40.35697739
 One-electron energy                 -236.97412931
 Two-electron energy                   81.56812105
 Virial quotient                       -1.00089435
 !RHF STATE 1.1 Dipole moment          -0.39068728    -0.59722989    -0.00000273
 Dipole moment /Debye                  -0.99296298    -1.51790754    -0.00000695

 Orbital energies:

         1.1          2.1          3.1          4.1          5.1          6.1          7.1          8.1          9.1         10.1
    -20.550537   -11.274183    -1.350787    -0.920670    -0.683028    -0.614284    -0.585423    -0.497267    -0.442764     0.184124

        11.1
      0.224478


 **********************************************************************************************************************************
 DATASETS  * FILE   NREC   LENGTH (MB)   RECORD NAMES
              1      19        8.03       500      610      700      900      950      970     1000      129      960     1100   
                                          VAR    BASINP    GEOM    SYMINP    ZMAT    AOBASIS   BASIS     P2S    ABASIS      S 
                                         1400     1410     1200     1210     1080     1600     1650     1300     1700   
                                           T        V       H0       H01     AOSYM     SMH    MOLCAS    ERIS     OPER   

              2       3        0.39       700     1000     2100   
                                         GEOM     BASIS     RHF  

 PROGRAMS   *        TOTAL       RHF       INT
 CPU TIMES  *         0.31      0.09      0.17
 REAL TIME  *         0.52 SEC
 DISK USED  *        23.61 MB      
 GA USED    *         0.00 MB       (max)       0.00 MB       (current)
 **********************************************************************************************************************************


1PROGRAM * CCSD (Closed-shell coupled cluster)     Authors: C. Hampel, H.-J. Werner, 1991, M. Deegan, P.J. Knowles, 1992


 Convergence thresholds:  THRVAR = 1.00D-08  THRDEN = 1.00D-12

 CCSD(T)     terms to be evaluated (factor= 1.000)


 Number of core orbitals:           2 (   2 )
 Number of closed-shell orbitals:   7 (   7 )
 Number of external orbitals:      39 (  39 )

 Molecular orbitals read from record     2100.2  Type=RHF/CANONICAL (state 1.1)

 Number of N-1 electron functions:               7
 Number of N-2 electron functions:              28
 Number of singly external CSFs:               273
 Number of doubly external CSFs:             37401
 Total number of CSFs:                       37675

 Length of J-op  integral file:               0.00 MB
 Length of K-op  integral file:               0.19 MB
 Length of 3-ext integral record:             0.00 MB

 Memory could be reduced to 0.96 Mwords without degradation in triples

 Integral transformation finished. Total CPU:   0.01 sec, npass=  1  Memory used:   0.66 MW

 Reference energy:                   -115.04903086

 MP2 singlet pair energy:              -0.21869903
 MP2 triplet pair energy:              -0.11990554
 MP2 correlation energy:               -0.33860457
 MP2 total energy:                   -115.38763544

 SCS-MP2 correlation energy:           -0.33704673   (PS=  1.200000  PT=  0.333333)
 SCS-MP2 total energy:               -115.38607760

 ITER.      SQ.NORM     CORR.ENERGY   TOTAL ENERGY   ENERGY CHANGE        DEN1      VAR(S)    VAR(P)  DIIS     TIME
   1      1.10735251    -0.36138301  -115.41041387    -0.02277843    -0.01409496  0.91D-03  0.17D-02  1  1     0.05
   2      1.11587847    -0.36332853  -115.41235939    -0.00194552    -0.00925282  0.20D-04  0.16D-03  2  2     0.09
   3      1.11776093    -0.36345545  -115.41248631    -0.00012692    -0.00120529  0.95D-05  0.86D-05  3  3     0.12
   4      1.11827592    -0.36345419  -115.41248505     0.00000126    -0.00025499  0.33D-06  0.67D-06  4  4     0.16
   5      1.11837366    -0.36345462  -115.41248549    -0.00000044    -0.00003594  0.99D-07  0.49D-07  5  5     0.20
   6      1.11839260    -0.36345327  -115.41248414     0.00000135    -0.00000435  0.16D-07  0.41D-08  6  6     0.24
   7      1.11839734    -0.36345286  -115.41248372     0.00000041    -0.00000035  0.20D-08  0.72D-09  6  1     0.28
   8      1.11839860    -0.36345296  -115.41248382    -0.00000010     0.00000075  0.25D-09  0.71D-10  6  3     0.32
   9      1.11839966    -0.36345284  -115.41248370     0.00000012    -0.00000038  0.12D-10  0.10D-10  6  2     0.36
  10      1.11839959    -0.36345284  -115.41248370    -0.00000000     0.00000007  0.11D-11  0.87D-12  6  5     0.40
  11      1.11839962    -0.36345284  -115.41248370     0.00000000    -0.00000000  0.19D-12  0.50D-13  6  4     0.43
  12      1.11839960    -0.36345284  -115.41248370    -0.00000000     0.00000001  0.18D-13  0.10D-13  6  1     0.47
  13      1.11839961    -0.36345284  -115.41248370    -0.00000000    -0.00000000  0.23D-14  0.93D-15  6  6     0.51
  14      1.11839961    -0.36345284  -115.41248370     0.00000000    -0.00000000  0.22D-15  0.12D-15  6  3     0.55
  15      1.11839961    -0.36345284  -115.41248370    -0.00000000    -0.00000000  0.25D-16  0.16D-16  6  2     0.58
  16      1.11839961    -0.36345284  -115.41248370    -0.00000000    -0.00000000  0.55D-17  0.16D-17  6  5     0.62
  17      1.11839961    -0.36345284  -115.41248370    -0.00000000    -0.00000000  0.52D-18  0.25D-18  6  4     0.66
  18      1.11839961    -0.36345284  -115.41248370     0.00000000    -0.00000000  0.80D-19  0.42D-19  6  1     0.70
  19      1.11839961    -0.36345284  -115.41248370    -0.00000000    -0.00000000  0.91D-20  0.42D-20  6  6     0.74
  20      1.11839961    -0.36345284  -115.41248370     0.00000000     0.00000000  0.13D-20  0.54D-21  6  3     0.78

 Norm of t1 vector:      0.04165730      S-energy:    -0.00000000      T1 diagnostic:  0.00787249
                                                                       D1 diagnostic:  0.01738398


 Total CPU time for triples:      0.20 sec


 RESULTS
 =======

  Reference energy                   -115.049030863389
  CCSD singlet pair energy             -0.254647911002
  CCSD triplet pair energy             -0.108804929305
  CCSD correlation energy              -0.363452840308

  Triples (T) contribution             -0.007742085037
  Total correlation energy             -0.371194925345

  CCSD total energy                  -115.412483703697
  CCSD[T] energy                     -115.420515454407
  CCSD-T energy                      -115.420076045373
 !CCSD(T) total energy               -115.420225788735

 Timing summary (sec):

 STEP                 CPU(USER)    SYS     CPU(TOT)    WALL
 Transformation          0.01      0.00      0.01      0.02
 CCSD iterations         0.77      0.06      0.83      0.84
 Triples                 0.20      0.00      0.20      0.22

 Program statistics:

 Available memory in ccsd:               999999704
 Min. memory needed in ccsd:                136801
 Max. memory used in ccsd:                  163198
 Max. memory used in cckext:                182024 (20 integral passes)



 **********************************************************************************************************************************
 DATASETS  * FILE   NREC   LENGTH (MB)   RECORD NAMES
              1      20       10.57       500      610      700      900      950      970     1000      129      960     1100   
                                          VAR    BASINP    GEOM    SYMINP    ZMAT    AOBASIS   BASIS     P2S    ABASIS      S 
                                         1400     1410     1200     1210     1080     1600     1650     1300     1700     1380   
                                           T        V       H0       H01     AOSYM     SMH    MOLCAS    ERIS     OPER     JKOP   

              2       3        0.39       700     1000     2100   
                                         GEOM     BASIS     RHF  

 PROGRAMS   *        TOTAL   CCSD(T)       RHF       INT
 CPU TIMES  *         1.30      0.99      0.09      0.17
 REAL TIME  *         1.62 SEC
 DISK USED  *        25.03 MB      
 GA USED    *         0.00 MB       (max)       0.00 MB       (current)
 **********************************************************************************************************************************

        CCSD(T)         RHF-SCF 
   -115.42022579   -115.04903086
 **********************************************************************************************************************************
 Variable memory released
