
 Primary working directories    : /tmp/795519.40.gen4.q
 Secondary working directories  : /tmp/795519.40.gen4.q
 Wavefunction directory         : /home/vulcan/mel64643/wfu/
 Main file repository           : /tmp/795519.40.gen4.q/

 ARCHNAME  : Linux/x86_64
 FC        : /opt/intel/compilers_and_libraries_2016.1.150/linux/bin/intel64/ifort
 FCVERSION : 16.0.1
 BLASLIB   : -mkl
 id        : ccgc

 Nodes     nprocs
 n051         1
 ga_uses_ma=false, calling ma_init with nominal heap.
 GA-space will be limited to   8.0 MW (determined by -G option)

 Using customized tuning parameters: mindgm=10; mindgv=16; mindgc=4; mindgr=1; noblas=0; mincuda=1000; minvec=7
 default implementation of scratch files=df  

 ***,Optimization of min3
 memory,1000,m
 gthresh,energy=1.0d-12,orbital=1.0d-10,oneint=1.0d-16,twoint=1.0d-16,optgrad=1.0d-6,compress=1.0d-13
 geomtyp=xyz
 
  bohr
  geometry = {
  6
  arbitrary comment
  C   -1.3768328893   -0.0250519208   -0.0000064531
  O    1.3077682100    0.1214568042    0.0000026003
  H   -2.0767589401    1.9146965403   -0.0000777767
  H   -2.1090490280   -0.9820365038    1.6871412989
  H   -2.1090426241   -0.9821699828   -1.6870662924
  H    1.9401911115   -1.5770270572   -0.0000017870
 }
 
 basis=cc-pvdz
 {rhf;maxit,200}
 {ccsd(t);maxit,200}

 Variables initialized (661), CPU time= 0.01 sec
 Commands  initialized (458), CPU time= 0.00 sec, 486 directives.
 Default parameters read. Elapsed time= 0.04 sec

 Checking input...
 Passed
1


                                         ***  PROGRAM SYSTEM MOLPRO  ***
                         Copyright, University College Cardiff Consultants Limited, 2008

                                    Version 2010.1 linked May 16 2016 07:17:05


 **********************************************************************************************************************************
 LABEL *   Optimization of min3                                                          
 Linux-4.4.3/n051(x86_64) 64 bit mpp version                                             DATE: 24-Oct-22          TIME: 15:41:21  
 **********************************************************************************************************************************

 SHA1:             9e8077add272b0f3cad6f7df79ec5211205f459d
 **********************************************************************************************************************************

 THRESHOLDS:

 ZERO    =  1.00D-12  ONEINT  =  1.00D-16  TWOINT  =  1.00D-16  PREFAC  =  1.00D-14  LOCALI  =  1.00D-09  EORDER  =  1.00D-04
 ENERGY  =  1.00D-12  ETEST   =  0.00D+00  EDENS   =  0.00D+00  THRDEDEF=  1.00D-06  GRADIENT=  1.00D-02  STEP    =  1.00D-03
 ORBITAL =  1.00D-10  CIVEC   =  1.00D-05  COEFF   =  1.00D-04  PRINTCI =  5.00D-02  PUNCHCI =  9.90D+01  OPTGRAD =  1.00D-06
 OPTENERG=  1.00D-06  OPTSTEP =  3.00D-04  THRGRAD =  1.00D-10  COMPRESS=  1.00D-13  VARMIN  =  1.00D-07  VARMAX  =  1.00D-03
 THRDOUB =  0.00D+00  THRDIV  =  1.00D-05  THRRED  =  1.00D-07  THRPSP  =  1.00D+00  THRDC   =  1.00D-10  THRCS   =  1.00D-10
 THRNRM  =  1.00D-08  THREQ   =  0.00D+00  THRDE   =  1.00D+00  THRREF  =  1.00D-05  SPARFAC =  1.00D+00  THRDLP  =  1.00D-07
 THRDIA  =  1.00D-10  THRDLS  =  1.00D-07  THRGPS  =  0.00D+00  THRKEX  =  0.00D+00  THRDIS  =  2.00D-01  THRVAR  =  1.00D-10
 THRLOC  =  1.00D-06  THRGAP  =  1.00D-06  THRLOCT = -1.00D+00  THRGAPT = -1.00D+00  THRORB  =  1.00D-06  THRMLTP =  0.00D+00
 THRCPQCI=  1.00D-10  KEXTA   =  0.00D+00  THRCOARS=  0.00D+00  SYMTOL  =  1.00D-06  GRADTOL =  1.00D-06  THROVL  =  1.00D-08
 THRORTH =  1.00D-08  GRID    =  1.00D-06  GRIDMAX =  1.00D-03  DTMAX   =  0.00D+00

 SETTING GEOMTYP        =    XYZ
 ZUNIT=BOHR
 

 Variable memory set to 1000000000 words,  buffer space   230000 words

 SETTING BASIS          =    CC-PVDZ


 Recomputing integrals since basis changed


 Using spherical harmonics

 Library entry C      S cc-pVDZ              selected for orbital group  1
 Library entry C      P cc-pVDZ              selected for orbital group  1
 Library entry C      D cc-pVDZ              selected for orbital group  1
 Library entry O      S cc-pVDZ              selected for orbital group  2
 Library entry O      P cc-pVDZ              selected for orbital group  2
 Library entry O      D cc-pVDZ              selected for orbital group  2
 Library entry H      S cc-pVDZ              selected for orbital group  3
 Library entry H      P cc-pVDZ              selected for orbital group  3

1PROGRAM * SEWARD (Integral evaluation for generally contracted gaussian basis sets)     Author: Roland Lindh, 1990

 Geometry written to block  1 of record 700


 Point group  C1  



 ATOMIC COORDINATES

 NR  ATOM    CHARGE       X              Y              Z

   1  C       6.00   -1.376832889   -0.025051921   -0.000006453
   2  O       8.00    1.307768210    0.121456804    0.000002600
   3  H       1.00   -2.076758940    1.914696540   -0.000077777
   4  H       1.00   -2.109049028   -0.982036504    1.687141299
   5  H       1.00   -2.109042624   -0.982169983   -1.687066292
   6  H       1.00    1.940191111   -1.577027057   -0.000001787

 Bond lengths in Bohr (Angstrom)

 1-2  2.688595892  1-3  2.062164051  1-4  2.073264938  1-5  2.073252754  2-6  1.812403419
     ( 1.422743670)     ( 1.091250217)     ( 1.097124553)     ( 1.097118106)     ( 0.959082583)

 Bond angles

  1-2-6  107.29884436   2-1-3  106.71739112   2-1-4  112.19722666   2-1-5  112.19772942

  3-1-4  108.32096653   3-1-5  108.32139901   4-1-5  108.92689619

 NUCLEAR CHARGE:                   18
 NUMBER OF PRIMITIVE AOS:          82
 NUMBER OF SYMMETRY AOS:           80
 NUMBER OF CONTRACTIONS:           48   (  48A   )
 NUMBER OF CORE ORBITALS:           2   (   2A   )
 NUMBER OF VALENCE ORBITALS:       12   (  12A   )


 NUCLEAR REPULSION ENERGY   40.25747915


 Eigenvalues of metric

         1 0.968E-02 0.177E-01 0.371E-01 0.377E-01 0.383E-01 0.476E-01 0.482E-01 0.519E-01


 Contracted 2-electron integrals neglected if value below      1.0D-16
 AO integral compression algorithm  1   Integral accuracy      1.0D-16

     6.554 MB (compressed) written to integral file ( 95.5%)

     Node minimum: 6.554 MB, node maximum: 6.554 MB


 NUMBER OF SORTED TWO-ELECTRON INTEGRALS:     692076.     BUFFER LENGTH:  32768
 NUMBER OF SEGMENTS:   1  SEGMENT LENGTH:     692076      RECORD LENGTH: 524288

 Memory used in sort:       1.25 MW

 SORT1 READ      832256. AND WROTE      682150. INTEGRALS IN      2 RECORDS. CPU TIME:     0.01 SEC, REAL TIME:     0.01 SEC
 SORT2 READ      682150. AND WROTE      692076. INTEGRALS IN     25 RECORDS. CPU TIME:     0.02 SEC, REAL TIME:     0.02 SEC

 FILE SIZES:   FILE 1:     8.0 MBYTE,  FILE 4:     8.4 MBYTE,   TOTAL:     16.4 MBYTE

 OPERATOR DM      FOR CENTER  0  COORDINATES:    0.000000    0.000000    0.000000


 **********************************************************************************************************************************
 DATASETS  * FILE   NREC   LENGTH (MB)   RECORD NAMES
              1      19        8.05       500      610      700      900      950      970     1000      129      960     1100   
                                          VAR    BASINP    GEOM    SYMINP    ZMAT    AOBASIS   BASIS     P2S    ABASIS      S 
                                         1400     1410     1200     1210     1080     1600     1650     1300     1700   
                                           T        V       H0       H01     AOSYM     SMH    MOLCAS    ERIS     OPER   

 PROGRAMS   *        TOTAL       INT
 CPU TIMES  *         0.23      0.18
 REAL TIME  *         0.76 SEC
 DISK USED  *        23.62 MB      
 GA USED    *         0.00 MB       (max)       0.00 MB       (current)
 **********************************************************************************************************************************

1PROGRAM * RHF-SCF (CLOSED SHELL)       Authors: W. Meyer, H.-J. Werner


 NUMBER OF ELECTRONS:       9+    9-    SPACE SYMMETRY=1    SPIN SYMMETRY: Singlet 
 CONVERGENCE THRESHOLDS:    1.00E-10 (Density)    1.00E-13 (Energy)
 MAX. NUMBER OF ITERATIONS:      200
 INTERPOLATION TYPE:            DIIS
 INTERPOLATION STEPS:              2 (START)      1 (STEP)
 LEVEL SHIFTS:                  0.00 (CLOSED)  0.00 (OPEN) 



 Orbital guess generated from atomic densities. Full valence occupancy:   14

 Molecular orbital dump at record        2100.2

 ITERATION    DDIFF          GRAD             ENERGY        2-EL.EN.            DIPOLE MOMENTS         DIIS
    1      0.000D+00      0.000D+00      -115.01410267    164.290043   -0.49963   -0.90095   -0.00001    0
    2      0.000D+00      0.110D-01      -115.04247768    162.077905   -0.31814   -0.53527   -0.00001    1
    3      0.205D-01      0.532D-02      -115.04855862    163.100842   -0.40248   -0.61074   -0.00001    2
    4      0.641D-02      0.112D-02      -115.04902202    162.945353   -0.39213   -0.59971   -0.00001    3
    5      0.204D-02      0.202D-03      -115.04904303    162.951916   -0.39488   -0.59544   -0.00001    4
    6      0.434D-03      0.353D-04      -115.04904382    162.951931   -0.39517   -0.59524   -0.00001    5
    7      0.927D-04      0.723D-05      -115.04904385    162.950791   -0.39530   -0.59507   -0.00001    6
    8      0.149D-04      0.232D-05      -115.04904386    162.951170   -0.39533   -0.59505   -0.00001    7
    9      0.489D-05      0.487D-06      -115.04904386    162.951127   -0.39534   -0.59505   -0.00001    6
   10      0.139D-05      0.850D-07      -115.04904386    162.951126   -0.39535   -0.59505   -0.00001    6
   11      0.229D-06      0.318D-07      -115.04904386    162.951132   -0.39535   -0.59505   -0.00001    6
   12      0.577D-07      0.131D-07      -115.04904386    162.951130   -0.39535   -0.59505   -0.00001    7
   13      0.242D-07      0.294D-08      -115.04904386    162.951130   -0.39535   -0.59505   -0.00001    7
   14      0.733D-08      0.641D-09      -115.04904386    162.951130   -0.39535   -0.59505   -0.00001    7
   15      0.164D-08      0.147D-09      -115.04904386    162.951130   -0.39535   -0.59505   -0.00001    7
   16      0.326D-09      0.436D-10      -115.04904386    162.951130   -0.39535   -0.59505   -0.00001    7
   17      0.853D-10      0.156D-10      -115.04904386    162.951130   -0.39535   -0.59505   -0.00001    7
   18      0.401D-10      0.286D-11      -115.04904386    162.951130   -0.39535   -0.59505   -0.00001    7
   19      0.670D-11      0.628D-12      -115.04904386    162.951130   -0.39535   -0.59505   -0.00001    7
   20      0.156D-11      0.250D-12      -115.04904386    162.951130   -0.39535   -0.59505   -0.00001    0

 Final occupancy:   9

 !RHF STATE 1.1 Energy               -115.049043857789
 Nuclear energy                        40.25747915
 One-electron energy                 -236.78208815
 Two-electron energy                   81.47556515
 Virial quotient                       -1.00103575
 !RHF STATE 1.1 Dipole moment          -0.39534630    -0.59504973    -0.00000768
 Dipole moment /Debye                  -1.00480426    -1.51236650    -0.00001951

 Orbital energies:

         1.1          2.1          3.1          4.1          5.1          6.1          7.1          8.1          9.1         10.1
    -20.549991   -11.275709    -1.349433    -0.920523    -0.682287    -0.613214    -0.584036    -0.497112    -0.443174     0.184403

        11.1
      0.224395


 **********************************************************************************************************************************
 DATASETS  * FILE   NREC   LENGTH (MB)   RECORD NAMES
              1      19        8.05       500      610      700      900      950      970     1000      129      960     1100   
                                          VAR    BASINP    GEOM    SYMINP    ZMAT    AOBASIS   BASIS     P2S    ABASIS      S 
                                         1400     1410     1200     1210     1080     1600     1650     1300     1700   
                                           T        V       H0       H01     AOSYM     SMH    MOLCAS    ERIS     OPER   

              2       3        0.39       700     1000     2100   
                                         GEOM     BASIS     RHF  

 PROGRAMS   *        TOTAL       RHF       INT
 CPU TIMES  *         0.32      0.09      0.18
 REAL TIME  *         0.90 SEC
 DISK USED  *        23.62 MB      
 GA USED    *         0.00 MB       (max)       0.00 MB       (current)
 **********************************************************************************************************************************


1PROGRAM * CCSD (Closed-shell coupled cluster)     Authors: C. Hampel, H.-J. Werner, 1991, M. Deegan, P.J. Knowles, 1992


 Convergence thresholds:  THRVAR = 1.00D-08  THRDEN = 1.00D-12

 CCSD(T)     terms to be evaluated (factor= 1.000)


 Number of core orbitals:           2 (   2 )
 Number of closed-shell orbitals:   7 (   7 )
 Number of external orbitals:      39 (  39 )

 Molecular orbitals read from record     2100.2  Type=RHF/CANONICAL (state 1.1)

 Number of N-1 electron functions:               7
 Number of N-2 electron functions:              28
 Number of singly external CSFs:               273
 Number of doubly external CSFs:             37401
 Total number of CSFs:                       37675

 Length of J-op  integral file:               0.00 MB
 Length of K-op  integral file:               0.19 MB
 Length of 3-ext integral record:             0.00 MB

 Memory could be reduced to 0.96 Mwords without degradation in triples

 Integral transformation finished. Total CPU:   0.02 sec, npass=  1  Memory used:   0.66 MW

 Reference energy:                   -115.04904386

 MP2 singlet pair energy:              -0.21878469
 MP2 triplet pair energy:              -0.11985176
 MP2 correlation energy:               -0.33863645
 MP2 total energy:                   -115.38768031

 SCS-MP2 correlation energy:           -0.33711606   (PS=  1.200000  PT=  0.333333)
 SCS-MP2 total energy:               -115.38615992

 ITER.      SQ.NORM     CORR.ENERGY   TOTAL ENERGY   ENERGY CHANGE        DEN1      VAR(S)    VAR(P)  DIIS     TIME
   1      1.10752642    -0.36145015  -115.41049401    -0.02281370    -0.01410752  0.92D-03  0.17D-02  1  1     0.06
   2      1.11609296    -0.36340281  -115.41244667    -0.00195266    -0.00927397  0.20D-04  0.16D-03  2  2     0.10
   3      1.11799253    -0.36353166  -115.41257552    -0.00012885    -0.00121313  0.96D-05  0.87D-05  3  3     0.13
   4      1.11851319    -0.36353034  -115.41257419     0.00000133    -0.00025709  0.34D-06  0.68D-06  4  4     0.17
   5      1.11861263    -0.36353076  -115.41257462    -0.00000042    -0.00003644  0.10D-06  0.50D-07  5  5     0.21
   6      1.11863197    -0.36352939  -115.41257325     0.00000137    -0.00000443  0.16D-07  0.42D-08  6  6     0.25
   7      1.11863677    -0.36352897  -115.41257282     0.00000043    -0.00000035  0.20D-08  0.73D-09  6  1     0.29
   8      1.11863805    -0.36352907  -115.41257293    -0.00000010     0.00000075  0.26D-09  0.73D-10  6  3     0.33
   9      1.11863912    -0.36352894  -115.41257280     0.00000013    -0.00000039  0.13D-10  0.11D-10  6  2     0.37
  10      1.11863905    -0.36352895  -115.41257280    -0.00000000     0.00000007  0.11D-11  0.89D-12  6  5     0.41
  11      1.11863908    -0.36352894  -115.41257280     0.00000000    -0.00000000  0.19D-12  0.51D-13  6  4     0.44
  12      1.11863907    -0.36352895  -115.41257280    -0.00000000     0.00000001  0.19D-13  0.10D-13  6  1     0.48
  13      1.11863907    -0.36352895  -115.41257280    -0.00000000    -0.00000000  0.24D-14  0.94D-15  6  6     0.52
  14      1.11863907    -0.36352895  -115.41257280     0.00000000    -0.00000000  0.23D-15  0.13D-15  6  3     0.56
  15      1.11863907    -0.36352895  -115.41257280    -0.00000000    -0.00000000  0.25D-16  0.17D-16  6  2     0.60
  16      1.11863907    -0.36352895  -115.41257280    -0.00000000    -0.00000000  0.57D-17  0.16D-17  6  5     0.64
  17      1.11863907    -0.36352895  -115.41257280    -0.00000000    -0.00000000  0.54D-18  0.26D-18  6  4     0.68
  18      1.11863907    -0.36352895  -115.41257280     0.00000000    -0.00000000  0.84D-19  0.43D-19  6  1     0.72
  19      1.11863907    -0.36352895  -115.41257280    -0.00000000    -0.00000000  0.94D-20  0.44D-20  6  6     0.76
  20      1.11863907    -0.36352895  -115.41257280     0.00000000     0.00000000  0.13D-20  0.57D-21  6  3     0.79

 Norm of t1 vector:      0.04177874      S-energy:    -0.00000000      T1 diagnostic:  0.00789544
                                                                       D1 diagnostic:  0.01760329


 Total CPU time for triples:      0.21 sec


 RESULTS
 =======

  Reference energy                   -115.049043857789
  CCSD singlet pair energy             -0.254800396941
  CCSD triplet pair energy             -0.108728548827
  CCSD correlation energy              -0.363528945768

  Triples (T) contribution             -0.007758857958
  Total correlation energy             -0.371287803726

  CCSD total energy                  -115.412572803557
  CCSD[T] energy                     -115.420623704024
  CCSD-T energy                      -115.420180593201
 !CCSD(T) total energy               -115.420331661515

 Timing summary (sec):

 STEP                 CPU(USER)    SYS     CPU(TOT)    WALL
 Transformation          0.02      0.01      0.03      0.02
 CCSD iterations         0.77      0.03      0.80      0.85
 Triples                 0.21      0.01      0.22      0.21

 Program statistics:

 Available memory in ccsd:               999999704
 Min. memory needed in ccsd:                136801
 Max. memory used in ccsd:                  163198
 Max. memory used in cckext:                182024 (20 integral passes)



 **********************************************************************************************************************************
 DATASETS  * FILE   NREC   LENGTH (MB)   RECORD NAMES
              1      20       10.59       500      610      700      900      950      970     1000      129      960     1100   
                                          VAR    BASINP    GEOM    SYMINP    ZMAT    AOBASIS   BASIS     P2S    ABASIS      S 
                                         1400     1410     1200     1210     1080     1600     1650     1300     1700     1380   
                                           T        V       H0       H01     AOSYM     SMH    MOLCAS    ERIS     OPER     JKOP   

              2       3        0.39       700     1000     2100   
                                         GEOM     BASIS     RHF  

 PROGRAMS   *        TOTAL   CCSD(T)       RHF       INT
 CPU TIMES  *         1.33      1.01      0.09      0.18
 REAL TIME  *         3.98 SEC
 DISK USED  *        25.05 MB      
 GA USED    *         0.00 MB       (max)       0.00 MB       (current)
 **********************************************************************************************************************************

        CCSD(T)         RHF-SCF 
   -115.42033166   -115.04904386
 **********************************************************************************************************************************
 Variable memory released
