
    -----------------------------------------------------------------------
          Psi4: An Open-Source Ab Initio Electronic Structure Package
                               Psi4 1.4a2.dev629 

                         Git: Rev {master} 2938fc2 dirty


    D. G. A. Smith, L. A. Burns, A. C. Simmonett, R. M. Parrish,
    M. C. Schieber, R. Galvelis, P. Kraus, H. Kruse, R. Di Remigio,
    A. Alenaizan, A. M. James, S. Lehtola, J. P. Misiewicz, M. Scheurer,
    R. A. Shaw, J. B. Schriber, Y. Xie, Z. L. Glick, D. A. Sirianni,
    J. S. O'Brien, J. M. Waldrop, A. Kumar, E. G. Hohenstein,
    B. P. Pritchard, B. R. Brooks, H. F. Schaefer III, A. Yu. Sokolov,
    K. Patkowski, A. E. DePrince III, U. Bozkaya, R. A. King,
    F. A. Evangelista, J. M. Turney, T. D. Crawford, C. D. Sherrill,
    J. Chem. Phys. 152(18) 184108 (2020). https://doi.org/10.1063/5.0006002

                            Additional Code Authors
    E. T. Seidl, C. L. Janssen, E. F. Valeev, M. L. Leininger,
    J. F. Gonthier, R. M. Richard, H. R. McAlexander, M. Saitow, X. Wang,
    P. Verma, and M. H. Lechner

             Previous Authors, Complete List of Code Contributors,
                       and Citations for Specific Modules
    https://github.com/psi4/psi4/blob/master/codemeta.json
    https://github.com/psi4/psi4/graphs/contributors
    http://psicode.org/psi4manual/master/introduction.html#citing-psifour

    -----------------------------------------------------------------------


    Psi4 started on: Thursday, 27 August 2020 05:23PM

    Process ID: 9553
    Host:       n045
    PSIDATADIR: /opt/psi/4/master/share/psi4
    Memory:     500.0 MiB
    Threads:    4
    
  ==> Input File <==

--------------------------------------------------------------------------
# o-Benzyne preliminary computations

memory 30 gb

molecule {
  0 1
  H          0.0000000000         -1.4236653500          0.9926470200  
  O          0.0000000000          0.0000000000         -0.1250915700  
  H          0.0000000000          1.4236653500          0.9926470200  
  units bohr
}

set {
  basis=cc-pVTZ
  reference rhf
  e_convergence 10 
  d_convergence 10
  r_convergence 8
  maxiter 300
  geom_maxiter 300
  normal_modes_write true 
}

energy('ccsd(t)')
--------------------------------------------------------------------------

  Memory set to  27.940 GiB by Python driver.

Scratch directory: /tmp/

*** tstart() called on n045
*** at Thu Aug 27 17:23:07 2020

   => Loading Basis Set <=

    Name: CC-PVTZ
    Role: ORBITAL
    Keyword: BASIS
    atoms 1, 3 entry H          line    23 file /opt/psi/4/master/share/psi4/basis/cc-pvtz.gbs 
    atoms 2    entry O          line   262 file /opt/psi/4/master/share/psi4/basis/cc-pvtz.gbs 


         ---------------------------------------------------------
                                   SCF
               by Justin Turney, Rob Parrish, Andy Simmonett
                          and Daniel G. A. Smith
                              RHF Reference
                        4 Threads,  28610 MiB Core
         ---------------------------------------------------------

  ==> Geometry <==

    Molecular point group: c2v
    Full point group: C2v

    Geometry (in Bohr), charge = 0, multiplicity = 1:

       Center              X                  Y                   Z               Mass       
    ------------   -----------------  -----------------  -----------------  -----------------
         H            0.000000000000    -1.423665350000     0.992647017331     1.007825032230
         O            0.000000000000     0.000000000000    -0.125091572669    15.994914619570
         H           -0.000000000000     1.423665350000     0.992647017331     1.007825032230

  Running in c2v symmetry.

  Rotational constants: A =     26.91808  B =     14.73545  C =      9.52260 [cm^-1]
  Rotational constants: A = 806983.60186  B = 441757.53599  C = 285480.37438 [MHz]
  Nuclear repulsion =    9.190900703611995

  Charge       = 0
  Multiplicity = 1
  Electrons    = 10
  Nalpha       = 5
  Nbeta        = 5

  ==> Algorithm <==

  SCF Algorithm Type is PK.
  DIIS enabled.
  MOM disabled.
  Fractional occupation disabled.
  Guess Type is SAD.
  Energy threshold   = 1.00e-10
  Density threshold  = 1.00e-10
  Integral threshold = 0.00e+00

  ==> Primary Basis <==

  Basis Set: CC-PVTZ
    Blend: CC-PVTZ
    Number of shells: 22
    Number of basis function: 58
    Number of Cartesian functions: 65
    Spherical Harmonics?: true
    Max angular momentum: 3

  ==> Integral Setup <==

  Using in-core PK algorithm.
   Calculation information:
      Number of atoms:                   3
      Number of AO shells:              22
      Number of primitives:             42
      Number of atomic orbitals:        65
      Number of basis functions:        58

      Integral cutoff                 1.00e-12
      Number of threads:                 4

  Performing in-core PK
  Using 2929232 doubles for integral storage.
  We computed 43467 shell quartets total.
  Whereas there are 32131 unique shell quartets.
    35.28 percent of shell quartets recomputed by reordering.

  ==> DiskJK: Disk-Based J/K Matrices <==

    J tasked:                  Yes
    K tasked:                  Yes
    wK tasked:                  No
    Memory [MiB]:            21457
    Schwarz Cutoff:          1E-12

    OpenMP threads:              4

  Minimum eigenvalue in the overlap matrix is 2.2372421124E-03.
  Reciprocal condition number of the overlap matrix is 5.1292245074E-04.
    Using symmetric orthogonalization.

  ==> Pre-Iterations <==

  SCF Guess: Superposition of Atomic Densities via on-the-fly atomic UHF (no occupation information).

   -------------------------
    Irrep   Nso     Nmo    
   -------------------------
     A1        23      23 
     A2         7       7 
     B1        11      11 
     B2        17      17 
   -------------------------
    Total      58      58
   -------------------------

  ==> Iterations <==

                        Total Energy        Delta E     RMS |[F,P]|

   @RHF iter SAD:   -75.50164137724083   -7.55016e+01   0.00000e+00 
   @RHF iter   1:   -75.97860501616383   -4.76964e-01   1.43689e-02 DIIS
   @RHF iter   2:   -76.03120228222805   -5.25973e-02   9.27483e-03 DIIS
   @RHF iter   3:   -76.05665978912009   -2.54575e-02   6.92259e-04 DIIS
   @RHF iter   4:   -76.05704735530274   -3.87566e-04   1.68890e-04 DIIS
   @RHF iter   5:   -76.05707175953077   -2.44042e-05   3.49784e-05 DIIS
   @RHF iter   6:   -76.05707329921135   -1.53968e-06   6.76388e-06 DIIS
   @RHF iter   7:   -76.05707335800352   -5.87922e-08   1.07676e-06 DIIS
   @RHF iter   8:   -76.05707335922155   -1.21803e-09   1.63944e-07 DIIS
   @RHF iter   9:   -76.05707335925031   -2.87628e-11   4.57262e-08 DIIS
   @RHF iter  10:   -76.05707335925275   -2.44427e-12   5.96294e-09 DIIS
   @RHF iter  11:   -76.05707335925287   -1.13687e-13   8.36384e-10 DIIS
   @RHF iter  12:   -76.05707335925281    5.68434e-14   1.35059e-10 DIIS
   @RHF iter  13:   -76.05707335925291   -9.94760e-14   1.63299e-11 DIIS
  Energy and wave function converged.


  ==> Post-Iterations <==

    Orbital Energies [Eh]
    ---------------------

    Doubly Occupied:                                                      

       1A1   -20.555227     2A1    -1.345960     1B2    -0.707960  
       3A1    -0.579170     1B1    -0.504689  

    Virtual:                                                              

       4A1     0.142058     2B2     0.204163     3B2     0.542656  
       5A1     0.604787     6A1     0.667779     2B1     0.787245  
       7A1     0.796794     4B2     0.805696     1A2     0.862673  
       3B1     0.951891     8A1     1.133087     5B2     1.199059  
       6B2     1.524557     9A1     1.567163     4B1     2.040310  
       7B2     2.052663     2A2     2.064094    10A1     2.172673  
      11A1     2.233295    12A1     2.585914     8B2     2.965743  
       5B1     3.348340    13A1     3.486975     3A2     3.588060  
       9B2     3.660463     6B1     3.799105    10B2     3.878216  
      14A1     3.886870     4A2     3.964065     7B1     4.017402  
      11B2     4.073770    15A1     4.193005     5A2     4.309049  
      16A1     4.378811    12B2     4.596150     8B1     4.683704  
      13B2     4.864935    17A1     5.162080    18A1     5.251267  
      14B2     5.525316     9B1     6.054227    19A1     6.578931  
      10B1     6.920101     6A2     6.940764    11B1     7.004224  
      20A1     7.021538    15B2     7.045506    21A1     7.175491  
       7A2     7.238248    22A1     7.451190    16B2     7.796694  
      17B2     8.292866    23A1    12.864137  

    Final Occupation by Irrep:
             A1    A2    B1    B2 
    DOCC [     3,    0,    1,    1 ]

  @RHF Final Energy:   -76.05707335925291

   => Energetics <=

    Nuclear Repulsion Energy =              9.1909007036119945
    One-Electron Energy =                -123.1099376083547270
    Two-Electron Energy =                  37.8619635454898287
    Total Energy =                        -76.0570733592529109

Computation Completed


Properties will be evaluated at   0.000000,   0.000000,   0.000000 [a0]

Properties computed using the SCF density matrix

  Nuclear Dipole Moment: [e a0]
     X:     0.0000      Y:     0.0000      Z:     0.9846

  Electronic Dipole Moment: [e a0]
     X:     0.0000      Y:     0.0000      Z:    -0.1828

  Dipole Moment: [e a0]
     X:     0.0000      Y:     0.0000      Z:     0.8018     Total:     0.8018

  Dipole Moment: [D]
     X:     0.0000      Y:     0.0000      Z:     2.0380     Total:     2.0380


*** tstop() called on n045 at Thu Aug 27 17:23:08 2020
Module time:
	user time   =       2.07 seconds =       0.03 minutes
	system time =       0.06 seconds =       0.00 minutes
	total time  =          1 seconds =       0.02 minutes
Total time:
	user time   =       2.07 seconds =       0.03 minutes
	system time =       0.06 seconds =       0.00 minutes
	total time  =          1 seconds =       0.02 minutes
 MINTS: Wrapper to libmints.
   by Justin Turney

   Calculation information:
      Number of threads:                 4
      Number of atoms:                   3
      Number of AO shells:              22
      Number of SO shells:              16
      Number of primitives:             42
      Number of atomic orbitals:        65
      Number of basis functions:        58

      Number of irreps:                  4
      Integral cutoff                 0.00e+00
      Number of functions per irrep: [  23    7   11   17 ]

 OEINTS: Overlap, kinetic, potential, dipole, and quadrupole integrals
         stored in file 35.

      Computing two-electron integrals...done
      Computed 360914 non-zero two-electron integrals.
        Stored in file 33.


*** tstart() called on n045
*** at Thu Aug 27 17:23:08 2020


	Wfn Parameters:
	--------------------
	Wavefunction         = CCSD_T
	Number of irreps     = 4
	Number of MOs        = 58
	Number of active MOs = 58
	AO-Basis             = NONE
	Semicanonical        = false
	Reference            = RHF
	Print Level          = 1

	IRREP	# MOs	# FZDC	# DOCC	# SOCC	# VIRT	# FZVR
	-----	-----	------	------	------	------	------
	 A1	   23	    0	    3	    0	    20	    0
	 A2	   7	    0	    0	    0	    7	    0
	 B1	   11	    0	    1	    0	    10	    0
	 B2	   17	    0	    1	    0	    16	    0
	Transforming integrals...
	IWL integrals will be deleted.
	(OO|OO)...
	Presorting SO-basis two-electron integrals.
	Sorting File: SO Ints (nn|nn) nbuckets = 1
	Transforming the one-electron integrals and constructing Fock matrices
	Starting first half-transformation.
	Sorting half-transformed integrals.
	First half integral transformation complete.
	Starting second half-transformation.
	Two-electron integral transformation complete.
	(OO|OV)...
	Starting second half-transformation.
	Two-electron integral transformation complete.
	(OO|VV)...
	Starting second half-transformation.
	Two-electron integral transformation complete.
	(OV|OO)...
	Starting first half-transformation.
	Sorting half-transformed integrals.
	First half integral transformation complete.
	Starting second half-transformation.
	Two-electron integral transformation complete.
	(OV|OV)...
	Starting second half-transformation.
	Two-electron integral transformation complete.
	(OV|VV)...
	Starting second half-transformation.
	Two-electron integral transformation complete.
	(VV|OO)...
	Starting first half-transformation.
	Sorting half-transformed integrals.
	First half integral transformation complete.
	Starting second half-transformation.
	Two-electron integral transformation complete.
	(VV|OV)...
	Starting second half-transformation.
	Two-electron integral transformation complete.
	(VV|VV)...
	Starting second half-transformation.
	Two-electron integral transformation complete.
	Frozen core energy     =      0.00000000000000

	Size of irrep 0 of <ab|cd> integrals:      0.648 (MW) /      5.184 (MB)
	Size of irrep 1 of <ab|cd> integrals:      0.360 (MW) /      2.880 (MB)
	Size of irrep 2 of <ab|cd> integrals:      0.389 (MW) /      3.115 (MB)
	Size of irrep 3 of <ab|cd> integrals:      0.608 (MW) /      4.867 (MB)
	Total:                                     2.006 (MW) /     16.046 (MB)

	Size of irrep 0 of <ia|bc> integrals:      0.069 (MW) /      0.554 (MB)
	Size of irrep 1 of <ia|bc> integrals:      0.028 (MW) /      0.226 (MB)
	Size of irrep 2 of <ia|bc> integrals:      0.036 (MW) /      0.285 (MB)
	Size of irrep 3 of <ia|bc> integrals:      0.059 (MW) /      0.468 (MB)
	Total:                                     0.191 (MW) /      1.532 (MB)

	Size of irrep 0 of tijab amplitudes:       0.009 (MW) /      0.071 (MB)
	Size of irrep 1 of tijab amplitudes:       0.001 (MW) /      0.010 (MB)
	Size of irrep 2 of tijab amplitudes:       0.004 (MW) /      0.030 (MB)
	Size of irrep 3 of tijab amplitudes:       0.005 (MW) /      0.037 (MB)
	Total:                                     0.018 (MW) /      0.148 (MB)

	Nuclear Rep. energy          =      9.19090070361199
	SCF energy                   =    -76.05707335925291
	One-electron energy          =   -123.10993760891411
	Two-electron energy          =     37.86196354604937
	Reference energy             =    -76.05707335925274

*** tstop() called on n045 at Thu Aug 27 17:23:08 2020
Module time:
	user time   =       0.35 seconds =       0.01 minutes
	system time =       0.09 seconds =       0.00 minutes
	total time  =          0 seconds =       0.00 minutes
Total time:
	user time   =       3.04 seconds =       0.05 minutes
	system time =       0.16 seconds =       0.00 minutes
	total time  =          1 seconds =       0.02 minutes
            **************************
            *                        *
            *        CCENERGY        *
            *                        *
            **************************

    Nuclear Rep. energy (wfn)     =    9.190900703611995
    SCF energy          (wfn)     =  -76.057073359252911
    Reference energy    (file100) =  -76.057073359252740

    Input parameters:
    -----------------
    Wave function   =     CCSD_T
    Reference wfn   =     RHF
    Brueckner       =     No
    Memory (Mbytes) =     30000.0
    Maxiter         =    300
    R_Convergence   =     1.0e-08
    E_Convergence   =     1.0e-10
    Restart         =     Yes
    DIIS            =     Yes
    AO Basis        =     NONE
    ABCD            =     NEW
    Cache Level     =     2
    Cache Type      =     LOW
    Print Level     =     1
    Num. of threads =     4
    # Amps to Print =     10
    Print MP2 Amps? =     No
    Analyze T2 Amps =     No
    Print Pair Ener =     No
    Local CC        =     No
    SCS-MP2         =     False
    SCSN-MP2        =     False
    SCS-CCSD        =     False

MP2 correlation energy -0.2751877360868707
                Solving CC Amplitude Equations
                ------------------------------
  Iter             Energy              RMS        T1Diag      D1Diag    New D1Diag    D2Diag
  ----     ---------------------    ---------   ----------  ----------  ----------   --------
     0        -0.275187736086871    0.000e+00    0.000000    0.000000    0.000000    0.116095
     1        -0.275313136176896    2.892e-02    0.005073    0.009200    0.009200    0.119606
     2        -0.280203688628865    9.974e-03    0.005231    0.009310    0.009310    0.124239
     3        -0.280913682915536    3.191e-03    0.005740    0.010372    0.010372    0.125883
     4        -0.280903783098115    6.384e-04    0.005770    0.010442    0.010442    0.126086
     5        -0.280924951378052    1.958e-04    0.005785    0.010515    0.010515    0.126132
     6        -0.280926205960894    5.684e-05    0.005789    0.010544    0.010544    0.126129
     7        -0.280926234657679    1.873e-05    0.005791    0.010558    0.010558    0.126128
     8        -0.280925947260845    5.171e-06    0.005792    0.010562    0.010562    0.126128
     9        -0.280925868817574    1.057e-06    0.005792    0.010563    0.010563    0.126127
    10        -0.280925881615298    2.355e-07    0.005792    0.010563    0.010563    0.126127
    11        -0.280925880807060    4.540e-08    0.005792    0.010563    0.010563    0.126127
    12        -0.280925882358016    1.035e-08    0.005792    0.010563    0.010563    0.126127
    13        -0.280925882442121    2.500e-09    0.005792    0.010563    0.010563    0.126127
    14        -0.280925882454184    6.318e-10    0.005792    0.010563    0.010563    0.126127

    Iterations converged.


    Largest TIA Amplitudes:
              3  27        -0.0070818461
              4  41        -0.0059381692
              2   0         0.0053312216
              3  28        -0.0049216901
              2   3        -0.0044613248
              2   5        -0.0043720270
              1   2        -0.0040251164
              4  46        -0.0039069773
              2  11        -0.0038641836
              2   2         0.0035683667

    Largest TIjAb Amplitudes:
      3   3  27  27        -0.0475934433
      2   2   2   2        -0.0295770161
      4   4  38  38        -0.0269054749
      2   3   2  27         0.0258909855
      3   2  27   2         0.0258909855
      4   4   1   1        -0.0252421791
      4   4  39  39        -0.0226871202
      3   4  27  39         0.0222389890
      4   3  39  27         0.0222389890
      2   2  38  38        -0.0220364913

    SCF energy       (wfn)                    =  -76.057073359252911
    Reference energy (file100)                =  -76.057073359252740

    Opposite-spin MP2 correlation energy      =   -0.208603534319612
    Same-spin MP2 correlation energy          =   -0.066584201767258
    Singles MP2 correlation energy            =   -0.000000000000000
    MP2 correlation energy                    =   -0.275187736086871
      * MP2 total energy                      =  -76.332261095339618

    Opposite-spin CCSD correlation energy     =   -0.221312622337284
    Same-spin CCSD correlation energy         =   -0.059613260116900
    Singles CCSD correlation energy           =    0.000000000000000
    CCSD correlation energy                   =   -0.280925882454184
      * CCSD total energy                     =  -76.337999241706925

            **************************
            *                        *
            *        CCTRIPLES       *
            *                        *
            **************************


    Wave function   =    CCSD_T
    Reference wfn   =      RHF

    Nuclear Rep. energy (wfn)                =    9.190900703611995
    SCF energy          (wfn)                =  -76.057073359252911
    Reference energy    (file100)            =  -76.057073359252740
    CCSD energy         (file100)            =   -0.280925882454184
    Total CCSD energy   (file100)            =  -76.337999241706925

    Number of ijk index combinations:               35
    Memory available in words        :      3750000000
    ~Words needed per explicit thread:           32000
    Number of threads for explicit ijk threading:    4

    MKL num_threads set to 1 for explicit threading.

    (T) energy                                =   -0.007783068667207
      * CCSD(T) total energy                  =  -76.345782310374133


    Psi4 stopped on: Thursday, 27 August 2020 05:23PM
    Psi4 wall time for execution: 0:00:03.30

*** Psi4 exiting successfully. Buy a developer a beer!
