
    -----------------------------------------------------------------------
          Psi4: An Open-Source Ab Initio Electronic Structure Package
                               Psi4 1.4a2.dev629 

                         Git: Rev {master} 2938fc2 dirty


    D. G. A. Smith, L. A. Burns, A. C. Simmonett, R. M. Parrish,
    M. C. Schieber, R. Galvelis, P. Kraus, H. Kruse, R. Di Remigio,
    A. Alenaizan, A. M. James, S. Lehtola, J. P. Misiewicz, M. Scheurer,
    R. A. Shaw, J. B. Schriber, Y. Xie, Z. L. Glick, D. A. Sirianni,
    J. S. O'Brien, J. M. Waldrop, A. Kumar, E. G. Hohenstein,
    B. P. Pritchard, B. R. Brooks, H. F. Schaefer III, A. Yu. Sokolov,
    K. Patkowski, A. E. DePrince III, U. Bozkaya, R. A. King,
    F. A. Evangelista, J. M. Turney, T. D. Crawford, C. D. Sherrill,
    J. Chem. Phys. 152(18) 184108 (2020). https://doi.org/10.1063/5.0006002

                            Additional Code Authors
    E. T. Seidl, C. L. Janssen, E. F. Valeev, M. L. Leininger,
    J. F. Gonthier, R. M. Richard, H. R. McAlexander, M. Saitow, X. Wang,
    P. Verma, and M. H. Lechner

             Previous Authors, Complete List of Code Contributors,
                       and Citations for Specific Modules
    https://github.com/psi4/psi4/blob/master/codemeta.json
    https://github.com/psi4/psi4/graphs/contributors
    http://psicode.org/psi4manual/master/introduction.html#citing-psifour

    -----------------------------------------------------------------------


    Psi4 started on: Friday, 18 September 2020 06:14PM

    Process ID: 13529
    Host:       n007
    PSIDATADIR: /opt/psi/4/master/share/psi4
    Memory:     500.0 MiB
    Threads:    1
    
  ==> Input File <==

--------------------------------------------------------------------------
# o-Benzyne preliminary computations

memory 14 gb

molecule {
  0 1
  H    0.0000000000   -1.4260189626    0.9944878305
  O    0.0000000000    0.0046976571   -0.1250849980
  H    0.0000000000    1.4213213055    0.9907996375
  units bohr
}

set {
  basis=cc-pVTZ
  reference rhf
  e_convergence 10 
  d_convergence 10
  r_convergence 8
  maxiter 300
}

energy('ccsd(t)')
--------------------------------------------------------------------------

  Memory set to  13.039 GiB by Python driver.

Scratch directory: /tmp/

*** tstart() called on n007
*** at Fri Sep 18 18:14:30 2020

   => Loading Basis Set <=

    Name: CC-PVTZ
    Role: ORBITAL
    Keyword: BASIS
    atoms 1, 3 entry H          line    23 file /opt/psi/4/master/share/psi4/basis/cc-pvtz.gbs 
    atoms 2    entry O          line   262 file /opt/psi/4/master/share/psi4/basis/cc-pvtz.gbs 


         ---------------------------------------------------------
                                   SCF
               by Justin Turney, Rob Parrish, Andy Simmonett
                          and Daniel G. A. Smith
                              RHF Reference
                        1 Threads,  13351 MiB Core
         ---------------------------------------------------------

  ==> Geometry <==

    Molecular point group: cs
    Full point group: Cs

    Geometry (in Bohr), charge = 0, multiplicity = 1:

       Center              X                  Y                   Z               Mass       
    ------------   -----------------  -----------------  -----------------  -----------------
         H            1.429928013151    -0.994482359088     0.000000000000     1.007825032230
         O           -0.000788606549     0.125090469412     0.000000000000    15.994914619570
         H           -1.417412254949    -0.990794166088     0.000000000000     1.007825032230

  Running in cs symmetry.

  Rotational constants: A =     26.92092  B =     14.73429  C =      9.52247 [cm^-1]
  Rotational constants: A = 807068.73603  B = 441722.97397  C = 285476.59263 [MHz]
  Nuclear repulsion =    9.191019673020044

  Charge       = 0
  Multiplicity = 1
  Electrons    = 10
  Nalpha       = 5
  Nbeta        = 5

  ==> Algorithm <==

  SCF Algorithm Type is PK.
  DIIS enabled.
  MOM disabled.
  Fractional occupation disabled.
  Guess Type is SAD.
  Energy threshold   = 1.00e-10
  Density threshold  = 1.00e-10
  Integral threshold = 0.00e+00

  ==> Primary Basis <==

  Basis Set: CC-PVTZ
    Blend: CC-PVTZ
    Number of shells: 22
    Number of basis function: 58
    Number of Cartesian functions: 65
    Spherical Harmonics?: true
    Max angular momentum: 3

  ==> Integral Setup <==

  Using in-core PK algorithm.
   Calculation information:
      Number of atoms:                   3
      Number of AO shells:              22
      Number of primitives:             42
      Number of atomic orbitals:        65
      Number of basis functions:        58

      Integral cutoff                 1.00e-12
      Number of threads:                 1

  Performing in-core PK
  Using 2929232 doubles for integral storage.
  We computed 32131 shell quartets total.
  Whereas there are 32131 unique shell quartets.

  ==> DiskJK: Disk-Based J/K Matrices <==

    J tasked:                  Yes
    K tasked:                  Yes
    wK tasked:                  No
    Memory [MiB]:            10013
    Schwarz Cutoff:          1E-12

    OpenMP threads:              1

  Minimum eigenvalue in the overlap matrix is 2.5070553625E-03.
  Reciprocal condition number of the overlap matrix is 4.8972998973E-04.
    Using symmetric orthogonalization.

  ==> Pre-Iterations <==

  SCF Guess: Superposition of Atomic Densities via on-the-fly atomic UHF (no occupation information).

   -------------------------
    Irrep   Nso     Nmo    
   -------------------------
     A'        40      40 
     A"        18      18 
   -------------------------
    Total      58      58
   -------------------------

  ==> Iterations <==

                        Total Energy        Delta E     RMS |[F,P]|

   @RHF iter SAD:   -75.50162707734421   -7.55016e+01   0.00000e+00 
   @RHF iter   1:   -75.97857361113890   -4.76947e-01   1.02970e-02 DIIS
   @RHF iter   2:   -76.03117469726470   -5.26011e-02   6.64665e-03 DIIS
   @RHF iter   3:   -76.05663466212006   -2.54600e-02   4.96116e-04 DIIS
   @RHF iter   4:   -76.05702234039606   -3.87678e-04   1.21047e-04 DIIS
   @RHF iter   5:   -76.05704675779100   -2.44174e-05   2.50762e-05 DIIS
   @RHF iter   6:   -76.05704829913783   -1.54135e-06   4.85071e-06 DIIS
   @RHF iter   7:   -76.05704835803716   -5.88993e-08   7.72406e-07 DIIS
   @RHF iter   8:   -76.05704835925852   -1.22135e-09   1.17736e-07 DIIS
   @RHF iter   9:   -76.05704835928756   -2.90470e-11   3.28626e-08 DIIS
   @RHF iter  10:   -76.05704835929005   -2.48690e-12   4.29425e-09 DIIS
   @RHF iter  11:   -76.05704835929012   -7.10543e-14   6.22064e-10 DIIS
   @RHF iter  12:   -76.05704835929001    1.13687e-13   1.21700e-10 DIIS
   @RHF iter  13:   -76.05704835928991    9.94760e-14   2.11227e-11 DIIS
  Energy and wave function converged.


  ==> Post-Iterations <==

    Orbital Energies [Eh]
    ---------------------

    Doubly Occupied:                                                      

       1Ap   -20.555224     2Ap    -1.345972     3Ap    -0.707964  
       4Ap    -0.579166     1App   -0.504690  

    Virtual:                                                              

       5Ap     0.142053     6Ap     0.204163     7Ap     0.542598  
       8Ap     0.604834     9Ap     0.667788     2App    0.787227  
      10Ap     0.796797    11Ap     0.805715     3App    0.862686  
       4App    0.951898    12Ap     1.133062    13Ap     1.199068  
      14Ap     1.524012    15Ap     1.567746     5App    2.040183  
      16Ap     2.052701     6App    2.064213    17Ap     2.172692  
      18Ap     2.233324    19Ap     2.585910    20Ap     2.965758  
       7App    3.348344    21Ap     3.486969     8App    3.588050  
      22Ap     3.660450     9App    3.799109    23Ap     3.877782  
      24Ap     3.887255    10App    3.964053    11App    4.017397  
      25Ap     4.073664    26Ap     4.193103    12App    4.309070  
      27Ap     4.378851    28Ap     4.596074    13App    4.683710  
      29Ap     4.864654    30Ap     5.162611    31Ap     5.251265  
      32Ap     5.525355    14App    6.054262    33Ap     6.578950  
      15App    6.916384    16App    6.943671    17App    7.004698  
      34Ap     7.017717    35Ap     7.049508    36Ap     7.175519  
      18App    7.238648    37Ap     7.451125    38Ap     7.796856  
      39Ap     8.292825    40Ap    12.864352  

    Final Occupation by Irrep:
             Ap   App 
    DOCC [     4,    1 ]

  @RHF Final Energy:   -76.05704835928991

   => Energetics <=

    Nuclear Repulsion Energy =              9.1910196730200440
    One-Electron Energy =                -123.1101022857098002
    Two-Electron Energy =                  37.8620342533998340
    Total Energy =                        -76.0570483592899222

Computation Completed


Properties will be evaluated at   0.000000,   0.000000,   0.000000 [a0]

Properties computed using the SCF density matrix

  Nuclear Dipole Moment: [e a0]
     X:     0.0062      Y:    -0.9846      Z:     0.0000

  Electronic Dipole Moment: [e a0]
     X:    -0.0028      Y:     0.1828      Z:     0.0000

  Dipole Moment: [e a0]
     X:     0.0034      Y:    -0.8018      Z:     0.0000     Total:     0.8018

  Dipole Moment: [D]
     X:     0.0088      Y:    -2.0380      Z:     0.0000     Total:     2.0380


*** tstop() called on n007 at Fri Sep 18 18:14:32 2020
Module time:
	user time   =       1.59 seconds =       0.03 minutes
	system time =       0.02 seconds =       0.00 minutes
	total time  =          2 seconds =       0.03 minutes
Total time:
	user time   =       1.59 seconds =       0.03 minutes
	system time =       0.02 seconds =       0.00 minutes
	total time  =          2 seconds =       0.03 minutes
 MINTS: Wrapper to libmints.
   by Justin Turney

   Calculation information:
      Number of threads:                 1
      Number of atoms:                   3
      Number of AO shells:              22
      Number of SO shells:              22
      Number of primitives:             42
      Number of atomic orbitals:        65
      Number of basis functions:        58

      Number of irreps:                  2
      Integral cutoff                 0.00e+00
      Number of functions per irrep: [  40   18 ]

 OEINTS: Overlap, kinetic, potential, dipole, and quadrupole integrals
         stored in file 35.

      Computing two-electron integrals...done
      Computed 712534 non-zero two-electron integrals.
        Stored in file 33.


*** tstart() called on n007
*** at Fri Sep 18 18:14:32 2020


	Wfn Parameters:
	--------------------
	Wavefunction         = CCSD_T
	Number of irreps     = 2
	Number of MOs        = 58
	Number of active MOs = 58
	AO-Basis             = NONE
	Semicanonical        = false
	Reference            = RHF
	Print Level          = 1

	IRREP	# MOs	# FZDC	# DOCC	# SOCC	# VIRT	# FZVR
	-----	-----	------	------	------	------	------
	 Ap	   40	    0	    4	    0	    36	    0
	 App	   18	    0	    1	    0	    17	    0
	Transforming integrals...
	IWL integrals will be deleted.
	(OO|OO)...
	Presorting SO-basis two-electron integrals.
	Sorting File: SO Ints (nn|nn) nbuckets = 1
	Transforming the one-electron integrals and constructing Fock matrices
	Starting first half-transformation.
	Sorting half-transformed integrals.
	First half integral transformation complete.
	Starting second half-transformation.
	Two-electron integral transformation complete.
	(OO|OV)...
	Starting second half-transformation.
	Two-electron integral transformation complete.
	(OO|VV)...
	Starting second half-transformation.
	Two-electron integral transformation complete.
	(OV|OO)...
	Starting first half-transformation.
	Sorting half-transformed integrals.
	First half integral transformation complete.
	Starting second half-transformation.
	Two-electron integral transformation complete.
	(OV|OV)...
	Starting second half-transformation.
	Two-electron integral transformation complete.
	(OV|VV)...
	Starting second half-transformation.
	Two-electron integral transformation complete.
	(VV|OO)...
	Starting first half-transformation.
	Sorting half-transformed integrals.
	First half integral transformation complete.
	Starting second half-transformation.
	Two-electron integral transformation complete.
	(VV|OV)...
	Starting second half-transformation.
	Two-electron integral transformation complete.
	(VV|VV)...
	Starting second half-transformation.
	Two-electron integral transformation complete.
	Frozen core energy     =      0.00000000000000

	Size of irrep 0 of <ab|cd> integrals:      2.512 (MW) /     20.098 (MB)
	Size of irrep 1 of <ab|cd> integrals:      1.498 (MW) /     11.985 (MB)
	Total:                                     4.010 (MW) /     32.083 (MB)

	Size of irrep 0 of <ia|bc> integrals:      0.255 (MW) /      2.041 (MB)
	Size of irrep 1 of <ia|bc> integrals:      0.127 (MW) /      1.018 (MB)
	Total:                                     0.382 (MW) /      3.060 (MB)

	Size of irrep 0 of tijab amplitudes:       0.027 (MW) /      0.216 (MB)
	Size of irrep 1 of tijab amplitudes:       0.010 (MW) /      0.078 (MB)
	Total:                                     0.037 (MW) /      0.294 (MB)

	Nuclear Rep. energy          =      9.19101967302004
	SCF energy                   =    -76.05704835928991
	One-electron energy          =   -123.11010228533402
	Two-electron energy          =     37.86203425302396
	Reference energy             =    -76.05704835929001

*** tstop() called on n007 at Fri Sep 18 18:14:33 2020
Module time:
	user time   =       0.53 seconds =       0.01 minutes
	system time =       0.20 seconds =       0.00 minutes
	total time  =          1 seconds =       0.02 minutes
Total time:
	user time   =       2.36 seconds =       0.04 minutes
	system time =       0.23 seconds =       0.00 minutes
	total time  =          3 seconds =       0.05 minutes
            **************************
            *                        *
            *        CCENERGY        *
            *                        *
            **************************

    Nuclear Rep. energy (wfn)     =    9.191019673020044
    SCF energy          (wfn)     =  -76.057048359289908
    Reference energy    (file100) =  -76.057048359290008

    Input parameters:
    -----------------
    Wave function   =     CCSD_T
    Reference wfn   =     RHF
    Brueckner       =     No
    Memory (Mbytes) =     14000.0
    Maxiter         =    300
    R_Convergence   =     1.0e-08
    E_Convergence   =     1.0e-10
    Restart         =     Yes
    DIIS            =     Yes
    AO Basis        =     NONE
    ABCD            =     NEW
    Cache Level     =     2
    Cache Type      =     LOW
    Print Level     =     1
    Num. of threads =     1
    # Amps to Print =     10
    Print MP2 Amps? =     No
    Analyze T2 Amps =     No
    Print Pair Ener =     No
    Local CC        =     No
    SCS-MP2         =     False
    SCSN-MP2        =     False
    SCS-CCSD        =     False

MP2 correlation energy -0.2751875994723463
                Solving CC Amplitude Equations
                ------------------------------
  Iter             Energy              RMS        T1Diag      D1Diag    New D1Diag    D2Diag
  ----     ---------------------    ---------   ----------  ----------  ----------   --------
     0        -0.275187599472346    0.000e+00    0.000000    0.000000    0.000000    0.116131
     1        -0.275313151980594    2.892e-02    0.005073    0.009202    0.009202    0.119646
     2        -0.280203830233583    9.974e-03    0.005231    0.009312    0.009312    0.124287
     3        -0.280913854742486    3.192e-03    0.005740    0.010373    0.010373    0.125935
     4        -0.280903949382494    6.385e-04    0.005770    0.010444    0.010444    0.126140
     5        -0.280925116850874    1.959e-04    0.005786    0.010517    0.010517    0.126187
     6        -0.280926371384447    5.685e-05    0.005790    0.010546    0.010546    0.126185
     7        -0.280926399952510    1.874e-05    0.005792    0.010559    0.010559    0.126184
     8        -0.280926112622063    5.172e-06    0.005792    0.010563    0.010563    0.126183
     9        -0.280926034169067    1.057e-06    0.005792    0.010564    0.010564    0.126183
    10        -0.280926046973822    2.356e-07    0.005792    0.010564    0.010564    0.126183
    11        -0.280926046165377    4.544e-08    0.005792    0.010564    0.010564    0.126183
    12        -0.280926047716773    1.037e-08    0.005792    0.010564    0.010564    0.126183
    13        -0.280926047801458    2.513e-09    0.005792    0.010564    0.010564    0.126183
    14        -0.280926047813307    6.388e-10    0.005792    0.010564    0.010564    0.126183

    Iterations converged.


    Largest TIA Amplitudes:
              4  36        -0.0070820524
              2   9        -0.0059035900
              3   0         0.0053305700
              4  38        -0.0049215711
              3   5        -0.0044609336
              3  10        -0.0043338788
              1   4        -0.0040242071
              2  20        -0.0039059977
              3  21        -0.0038622307
              3   4         0.0035672360

    Largest TIjAb Amplitudes:
      4   4  36  36        -0.0475838509
      3   3   4   4        -0.0295759897
      2   2   2   2        -0.0269032086
      3   4   4  36         0.0258853379
      4   3  36   4         0.0258853379
      2   2   3   3        -0.0252343394
      2   2   6   6        -0.0226844053
      2   4   6  36         0.0222329212
      4   2  36   6         0.0222329212
      3   3   2   2        -0.0220490283

    SCF energy       (wfn)                    =  -76.057048359289908
    Reference energy (file100)                =  -76.057048359290008

    Opposite-spin MP2 correlation energy      =   -0.208603572643714
    Same-spin MP2 correlation energy          =   -0.066584026828632
    Singles MP2 correlation energy            =   -0.000000000000000
    MP2 correlation energy                    =   -0.275187599472346
      * MP2 total energy                      =  -76.332235958762354

    Opposite-spin CCSD correlation energy     =   -0.221312944345216
    Same-spin CCSD correlation energy         =   -0.059613103468091
    Singles CCSD correlation energy           =    0.000000000000000
    CCSD correlation energy                   =   -0.280926047813307
      * CCSD total energy                     =  -76.337974407103317

            **************************
            *                        *
            *        CCTRIPLES       *
            *                        *
            **************************


    Wave function   =    CCSD_T
    Reference wfn   =      RHF

    Nuclear Rep. energy (wfn)                =    9.191019673020044
    SCF energy          (wfn)                =  -76.057048359289908
    Reference energy    (file100)            =  -76.057048359290008
    CCSD energy         (file100)            =   -0.280926047813307
    Total CCSD energy   (file100)            =  -76.337974407103317

    Number of ijk index combinations:               35
    Memory available in words        :      1750000000
    ~Words needed per explicit thread:          186624
    Number of threads for explicit ijk threading:    1

    MKL num_threads set to 1 for explicit threading.

    (T) energy                                =   -0.007783084771648
      * CCSD(T) total energy                  =  -76.345757491874963


    Psi4 stopped on: Friday, 18 September 2020 06:14PM
    Psi4 wall time for execution: 0:00:08.39

*** Psi4 exiting successfully. Buy a developer a beer!
