[Molden Format]                                                                 
[ATOMS] AU                                                                      
C        1    6       -1.3811265843       -0.0237860915        0.0000690993     
O        2    8        1.3112260969        0.1270090779        0.0030992955     
H        3    1       -2.1178534544       -1.0295940477        1.6670549795     
H        4    1       -2.0136761536       -0.9976187533       -1.7189980433     
H        5    1       -2.1774439167        1.8918180591       -0.0004748010     
H        6    1        1.9437014622       -1.5971145714        0.0024070437     
[Molden Format]                                                                 
[GTO]                                                                           
  1 0
s   9 1.00
   6665.00000000000       6.920000000000000E-004                                
   1000.00000000000       5.329000000000000E-003                                
   228.000000000000       2.707700000000000E-002                                
   64.7100000000000       0.101718000000000                                     
   21.0600000000000       0.274740000000000                                     
   7.49500000000000       0.448564000000000                                     
   2.79700000000000       0.285074000000000                                     
  0.521500000000000       1.520400000000000E-002                                
  0.159600000000000      -3.191000000000000E-003                                
s   9 1.00
   6665.00000000000      -1.460000000000000E-004                                
   1000.00000000000      -1.154000000000000E-003                                
   228.000000000000      -5.725000000000000E-003                                
   64.7100000000000      -2.331200000000000E-002                                
   21.0600000000000      -6.395500000000000E-002                                
   7.49500000000000      -0.149981000000000                                     
   2.79700000000000      -0.127262000000000                                     
  0.521500000000000       0.544529000000000                                     
  0.159600000000000       0.580496000000000                                     
s   9 1.00
   6665.00000000000       0.000000000000000E+000                                
   1000.00000000000       0.000000000000000E+000                                
   228.000000000000       0.000000000000000E+000                                
   64.7100000000000       0.000000000000000E+000                                
   21.0600000000000       0.000000000000000E+000                                
   7.49500000000000       0.000000000000000E+000                                
   2.79700000000000       0.000000000000000E+000                                
  0.521500000000000       0.000000000000000E+000                                
  0.159600000000000        1.00000000000000                                     
p   4 1.00
   9.43900000000000       3.810900000000000E-002                                
   2.00200000000000       0.209480000000000                                     
  0.545600000000000       0.508557000000000                                     
  0.151700000000000       0.468842000000000                                     
p   4 1.00
   9.43900000000000       0.000000000000000E+000                                
   2.00200000000000       0.000000000000000E+000                                
  0.545600000000000       0.000000000000000E+000                                
  0.151700000000000        1.00000000000000                                     
d   1 1.00
  0.550000000000000        1.00000000000000                                     
 
  2 0
s   9 1.00
   11720.0000000000       7.100000000000000E-004                                
   1759.00000000000       5.470000000000000E-003                                
   400.800000000000       2.783700000000000E-002                                
   113.700000000000       0.104800000000000                                     
   37.0300000000000       0.283062000000000                                     
   13.2700000000000       0.448719000000000                                     
   5.02500000000000       0.270952000000000                                     
   1.01300000000000       1.545800000000000E-002                                
  0.302300000000000      -2.585000000000000E-003                                
s   9 1.00
   11720.0000000000      -1.600000000000000E-004                                
   1759.00000000000      -1.263000000000000E-003                                
   400.800000000000      -6.267000000000000E-003                                
   113.700000000000      -2.571600000000000E-002                                
   37.0300000000000      -7.092400000000000E-002                                
   13.2700000000000      -0.165411000000000                                     
   5.02500000000000      -0.116955000000000                                     
   1.01300000000000       0.557368000000000                                     
  0.302300000000000       0.572759000000000                                     
s   9 1.00
   11720.0000000000       0.000000000000000E+000                                
   1759.00000000000       0.000000000000000E+000                                
   400.800000000000       0.000000000000000E+000                                
   113.700000000000       0.000000000000000E+000                                
   37.0300000000000       0.000000000000000E+000                                
   13.2700000000000       0.000000000000000E+000                                
   5.02500000000000       0.000000000000000E+000                                
   1.01300000000000       0.000000000000000E+000                                
  0.302300000000000        1.00000000000000                                     
p   4 1.00
   17.7000000000000       4.301800000000000E-002                                
   3.85400000000000       0.228913000000000                                     
   1.04600000000000       0.508728000000000                                     
  0.275300000000000       0.460531000000000                                     
p   4 1.00
   17.7000000000000       0.000000000000000E+000                                
   3.85400000000000       0.000000000000000E+000                                
   1.04600000000000       0.000000000000000E+000                                
  0.275300000000000        1.00000000000000                                     
d   1 1.00
   1.18500000000000        1.00000000000000                                     
 
  3 0
s   4 1.00
   13.0100000000000       1.968500000000000E-002                                
   1.96200000000000       0.137977000000000                                     
  0.444600000000000       0.478148000000000                                     
  0.122000000000000       0.501240000000000                                     
s   4 1.00
   13.0100000000000       0.000000000000000E+000                                
   1.96200000000000       0.000000000000000E+000                                
  0.444600000000000       0.000000000000000E+000                                
  0.122000000000000        1.00000000000000                                     
p   1 1.00
  0.727000000000000        1.00000000000000                                     
 
  4 0
s   4 1.00
   13.0100000000000       1.968500000000000E-002                                
   1.96200000000000       0.137977000000000                                     
  0.444600000000000       0.478148000000000                                     
  0.122000000000000       0.501240000000000                                     
s   4 1.00
   13.0100000000000       0.000000000000000E+000                                
   1.96200000000000       0.000000000000000E+000                                
  0.444600000000000       0.000000000000000E+000                                
  0.122000000000000        1.00000000000000                                     
p   1 1.00
  0.727000000000000        1.00000000000000                                     
 
  5 0
s   4 1.00
   13.0100000000000       1.968500000000000E-002                                
   1.96200000000000       0.137977000000000                                     
  0.444600000000000       0.478148000000000                                     
  0.122000000000000       0.501240000000000                                     
s   4 1.00
   13.0100000000000       0.000000000000000E+000                                
   1.96200000000000       0.000000000000000E+000                                
  0.444600000000000       0.000000000000000E+000                                
  0.122000000000000        1.00000000000000                                     
p   1 1.00
  0.727000000000000        1.00000000000000                                     
 
  6 0
s   4 1.00
   13.0100000000000       1.968500000000000E-002                                
   1.96200000000000       0.137977000000000                                     
  0.444600000000000       0.478148000000000                                     
  0.122000000000000       0.501240000000000                                     
s   4 1.00
   13.0100000000000       0.000000000000000E+000                                
   1.96200000000000       0.000000000000000E+000                                
  0.444600000000000       0.000000000000000E+000                                
  0.122000000000000        1.00000000000000                                     
p   1 1.00
  0.727000000000000        1.00000000000000                                     
 
                                                                                
[MO]
 Sym= A
 Ene=  -20.5506182179688     
 Spin= Alpha
 Occup= 1.0
  1       -0.0000068937
  2        0.0000432791
  3        0.0024181170
  4        0.0004604179
  5        0.0000112874
  6        0.0000086296
  7        0.0008565245
  8       -0.0000305008
  9       -0.0000271695
 10       -0.0000790749
 11        0.0000331696
 12        0.0000459053
 13       -0.0000623452
 14        0.0000006712
 15       -0.0000041227
 16        1.0006273925
 17        0.0030721549
 18       -0.0038792768
 19       -0.0012206640
 20       -0.0020017209
 21        0.0000073113
 22        0.0020397423
 23        0.0014536440
 24       -0.0000010319
 25       -0.0001278137
 26        0.0000789038
 27        0.0000489098
 28       -0.0000866031
 29        0.0000029528
 30        0.0000014799
 31       -0.0005232725
 32        0.0001445840
 33       -0.0001429672
 34       -0.0000202957
 35        0.0000322044
 36       -0.0005470227
 37        0.0001304723
 38       -0.0001114344
 39       -0.0000247021
 40       -0.0000356931
 41       -0.0005105251
 42        0.0001316588
 43       -0.0001322311
 44        0.0000545866
 45        0.0000044437
 46        0.0000595975
 47        0.0000497426
 48        0.0001274762
 49       -0.0006450961
 50       -0.0000008609
 Sym= A
 Ene=  -11.2776092644300     
 Spin= Alpha
 Occup= 1.0
  1        1.0013944306
  2        0.0079480700
  3       -0.0086542470
  4        0.0008102415
  5       -0.0000421460
  6        0.0000129732
  7        0.0001023032
  8        0.0001266627
  9        0.0000230879
 10       -0.0000166732
 11        0.0000086986
 12        0.0000079746
 13       -0.0000515065
 14       -0.0000271715
 15       -0.0000018192
 16        0.0001176684
 17        0.0007995421
 18       -0.0009340980
 19       -0.0003652650
 20       -0.0000032247
 21        0.0000000771
 22        0.0007086206
 23        0.0003427885
 24        0.0000103870
 25       -0.0001347250
 26        0.0000164265
 27        0.0001182985
 28       -0.0000199420
 29       -0.0000060046
 30       -0.0000011072
 31        0.0001940566
 32        0.0012173435
 33       -0.0001388345
 34       -0.0001505020
 35        0.0002084762
 36        0.0002336172
 37        0.0012219562
 38       -0.0001327712
 39       -0.0001334813
 40       -0.0002052584
 41        0.0001521914
 42        0.0011526222
 43       -0.0001533506
 44        0.0002520049
 45       -0.0000066517
 46        0.0005631162
 47       -0.0000749370
 48       -0.0003050938
 49        0.0000614467
 50       -0.0000004388
 Sym= A
 Ene=  -1.34508254305868     
 Spin= Alpha
 Occup= 1.0
  1        0.0097085541
  2       -0.2666543830
  3        0.1168332063
  4       -0.1518154039
  5        0.0001835485
  6        0.0001672319
  7        0.0559171727
  8        0.0062266130
  9       -0.0009414682
 10       -0.0171675532
 11        0.0085921378
 12        0.0085754155
 13        0.0025831268
 14       -0.0001919853
 15       -0.0000591508
 16        0.0103672729
 17       -0.8340550086
 18        0.0576738863
 19        0.0725512597
 20        0.0872694164
 21        0.0005860914
 22        0.0003975197
 23       -0.0419095671
 24        0.0000007864
 25       -0.0037420900
 26        0.0000825383
 27        0.0036595517
 28       -0.0003534828
 29       -0.0000262002
 30       -0.0000115289
 31       -0.0609039676
 32        0.0276660350
 33       -0.0051005828
 34       -0.0036362319
 35        0.0061732845
 36       -0.0641144383
 37        0.0284681140
 38       -0.0043853356
 39       -0.0037449266
 40       -0.0066412519
 41       -0.0603035567
 42        0.0246048143
 43       -0.0051952291
 44        0.0054964630
 45        0.0000719707
 46       -0.2901951840
 47        0.1389405562
 48        0.0150255348
 49       -0.0334297834
 50        0.0000065909
 Sym= A
 Ene= -0.917949576419988     
 Spin= Alpha
 Occup= 1.0
  1        0.0154787042
  2       -0.7201274281
  3        0.1996445622
  4        0.0868740609
  5       -0.0125567741
  6        0.0031330765
  7       -0.0108760374
  8        0.0101108379
  9       -0.0018475171
 10        0.0009913993
 11       -0.0013653688
 12        0.0003739695
 13       -0.0026872307
 14        0.0000962980
 15       -0.0001008099
 16        0.0018129585
 17        0.2606560780
 18       -0.0171998006
 19        0.2491303591
 20       -0.0908964913
 21        0.0016111541
 22       -0.0177704753
 23        0.0348404296
 24       -0.0000755907
 25       -0.0076239909
 26        0.0053171497
 27        0.0023068412
 28       -0.0053581411
 29       -0.0000797569
 30       -0.0000272321
 31       -0.3165420871
 32        0.1329522558
 33       -0.0072494575
 34       -0.0123234716
 35        0.0195740859
 36       -0.3179309073
 37        0.1331294133
 38       -0.0057131458
 39       -0.0119708865
 40       -0.0201865840
 41       -0.3308825826
 42        0.1352437767
 43       -0.0074397827
 44        0.0240142429
 45        0.0000765689
 46        0.2465149761
 47       -0.1032731055
 48       -0.0056466268
 49        0.0223938988
 50        0.0000728462
 Sym= A
 Ene= -0.676868706689377     
 Spin= Alpha
 Occup= 1.0
  1        0.0033503219
  2       -0.0637635127
  3        0.0066699542
  4        0.2577361369
  5        0.3120732014
  6       -0.0005783222
  7       -0.0542038248
  8       -0.0464572927
  9       -0.0000364959
 10        0.0143626430
 11       -0.0036037206
 12       -0.0107589224
 13        0.0172558538
 14        0.0004633564
 15        0.0001231799
 16        0.0001310669
 17        0.1716565462
 18        0.0820898741
 19       -0.2802421317
 20        0.5461512349
 21        0.0001767909
 22        0.0419545344
 23       -0.0571491253
 24        0.0000399509
 25        0.0082160825
 26       -0.0105732717
 27        0.0023571892
 28       -0.0018347527
 29       -0.0000265746
 30       -0.0000215129
 31       -0.2442650489
 32        0.0871232931
 33       -0.0002608554
 34       -0.0018169285
 35        0.0127233218
 36       -0.2317342985
 37        0.0822757470
 38        0.0005230847
 39       -0.0010443519
 40       -0.0121271092
 41        0.1178764676
 42       -0.0457532889
 43        0.0043647203
 44       -0.0038373885
 45       -0.0000055042
 46       -0.5259760775
 47        0.1915813786
 48        0.0164372091
 49       -0.0338609568
 50        0.0000298707
 Sym= A
 Ene= -0.613013855261899     
 Spin= Alpha
 Occup= 1.0
  1        0.0002814409
  2       -0.0021545914
  3       -0.0030248376
  4        0.0368506614
  5       -0.0248095610
  6       -0.5499548954
  7       -0.0094741294
  8        0.0034559259
  9        0.1039161057
 10        0.0009451708
 11       -0.0012833376
 12        0.0003381668
 13       -0.0002401888
 14       -0.0056670989
 15        0.0187362780
 16       -0.0000344306
 17       -0.0115490272
 18       -0.0030677388
 19       -0.0372097714
 20       -0.0151091978
 21       -0.4861672526
 22        0.0006314149
 23       -0.0009587336
 24       -0.0048088339
 25        0.0004406512
 26       -0.0001594676
 27       -0.0002811836
 28        0.0012299701
 29        0.0128760088
 30        0.0084289040
 31       -0.4121442298
 32        0.1162154387
 33       -0.0060906289
 34       -0.0122771760
 35        0.0096171233
 36        0.4216998918
 37       -0.1198798871
 38        0.0061528060
 39        0.0109441631
 40        0.0105167703
 41       -0.0356560020
 42        0.0112352336
 43        0.0000219350
 44        0.0015061041
 45       -0.0115059474
 46       -0.0054975801
 47       -0.0002221748
 48       -0.0011657128
 49       -0.0007778203
 50       -0.0155256934
 Sym= A
 Ene= -0.585018955584663     
 Spin= Alpha
 Occup= 1.0
  1        0.0021806454
  2        0.0140384129
  3       -0.0163391975
  4        0.4460151581
  5       -0.3543593166
  6        0.0400343802
  7       -0.0933449567
  8        0.0406313836
  9       -0.0063969320
 10        0.0219536429
 11       -0.0162432216
 12       -0.0057104214
 13        0.0045611627
 14        0.0008509169
 15       -0.0010908362
 16       -0.0003788761
 17       -0.1112918821
 18       -0.0360648957
 19       -0.5625656985
 20       -0.1601792940
 21        0.0411135549
 22        0.0109659342
 23       -0.0186828307
 24        0.0009150166
 25        0.0071737710
 26       -0.0030150649
 27       -0.0041587061
 28        0.0175958326
 29       -0.0010577994
 30       -0.0007050657
 31        0.0505240692
 32       -0.0174908934
 33        0.0077029336
 34       -0.0046330113
 35       -0.0017932660
 36       -0.0012168812
 37       -0.0047883464
 38        0.0064031613
 39       -0.0059904473
 40        0.0008611142
 41       -0.4761565274
 42        0.1470597092
 43       -0.0015754343
 44        0.0189508574
 45        0.0007319975
 46       -0.1261929450
 47        0.0101175373
 48       -0.0145319809
 49       -0.0137950676
 50        0.0013216811
 Sym= A
 Ene= -0.494860305735163     
 Spin= Alpha
 Occup= 1.0
  1        0.0030396150
  2        0.0483254995
  3       -0.0417403643
  4        0.1610281145
  5        0.4581259369
  6       -0.0002342046
  7       -0.0642072769
  8       -0.1028595515
  9        0.0013473867
 10        0.0084336608
 11        0.0044566994
 12       -0.0128903603
 13       -0.0315637573
 14        0.0011618567
 15        0.0003604383
 16        0.0003742577
 17       -0.1949178908
 18       -0.1012352721
 19       -0.2809619670
 20       -0.5216133479
 21        0.0115271457
 22       -0.0400766630
 23       -0.0104775228
 24        0.0005964403
 25        0.0008747517
 26        0.0056463585
 27       -0.0065211102
 28        0.0014956247
 29       -0.0002046423
 30       -0.0001910861
 31       -0.2963598907
 32        0.0508176238
 33       -0.0013258873
 34        0.0037872567
 35        0.0127406075
 36       -0.2784996892
 37        0.0483734457
 38       -0.0005033130
 39        0.0043285878
 40       -0.0125918300
 41        0.4473100364
 42       -0.1001759442
 43        0.0112511525
 44       -0.0098891236
 45       -0.0000352312
 46        0.3334849768
 47       -0.1138406330
 48       -0.0180781295
 49        0.0108140368
 50        0.0004290734
 Sym= A
 Ene= -0.442082660348077     
 Spin= Alpha
 Occup= 1.0
  1        0.0002490242
  2       -0.0002025499
  3       -0.0014855843
  4        0.0023234142
  5        0.0048238349
  6        0.3500220660
  7        0.0009627879
  8       -0.0001207172
  9       -0.0830680156
 10        0.0010043165
 11       -0.0000997956
 12       -0.0009045209
 13        0.0001690032
 14       -0.0384865250
 15       -0.0164830590
 16        0.0000863102
 17        0.0000137205
 18       -0.0010626218
 19       -0.0135742611
 20       -0.0078316246
 21       -0.7888126560
 22       -0.0004281164
 23       -0.0007811301
 24       -0.0761999556
 25        0.0000615336
 26        0.0000818956
 27       -0.0001434292
 28        0.0001345229
 29        0.0038930450
 30        0.0114124732
 31        0.3733244845
 32       -0.0620980724
 33        0.0052034847
 34        0.0078132207
 35       -0.0053012501
 36       -0.3888663584
 37        0.0679047564
 38       -0.0044572367
 39       -0.0078825062
 40       -0.0068682712
 41        0.0037787896
 42       -0.0012620356
 43       -0.0000013091
 44       -0.0000757971
 45        0.0085593228
 46        0.0023792327
 47       -0.0018632971
 48       -0.0003845055
 49       -0.0000856418
 50       -0.0265120380
 Sym= A
 Ene=  0.182825344025905     
 Spin= Alpha
 Occup= 0.0
  1        0.0728032995
  2       -0.0488652553
  3       -1.6658067671
  4        0.2111420625
  5        0.0744129854
  6        0.0061706042
  7        0.2215798428
  8        0.1385628867
  9        0.0167513382
 10       -0.0021700453
 11        0.0031819189
 12       -0.0010118736
 13        0.0007562094
 14        0.0008234534
 15       -0.0000132281
 16        0.0204194026
 17       -0.1139351965
 18       -0.4159057791
 19       -0.0784766108
 20        0.1837520554
 21        0.0002866909
 22       -0.1513389712
 23        0.1493303766
 24       -0.0000871526
 25        0.0012816681
 26       -0.0045439888
 27        0.0032623207
 28        0.0015036464
 29       -0.0000182624
 30        0.0000324695
 31        0.0192799762
 32        0.8263519942
 33        0.0113011291
 34        0.0032796151
 35       -0.0103267502
 36        0.0258518534
 37        0.8364047283
 38        0.0101577012
 39        0.0033151242
 40        0.0108900565
 41        0.0219654415
 42        0.5001724475
 43        0.0106979295
 44       -0.0050570641
 45       -0.0000454544
 46        0.0701082410
 47        0.8241222703
 48       -0.0051889601
 49        0.0163001795
 50       -0.0001174278
 Sym= A
 Ene=  0.222110008114010     
 Spin= Alpha
 Occup= 0.0
  1        0.0474640845
  2       -0.1989944724
  3       -1.3675394556
  4        0.0115999399
  5       -0.1036532355
  6       -0.0144817853
  7        0.2285335207
  8       -0.2671681055
  9       -0.0277210756
 10        0.0105592861
 11       -0.0092463907
 12       -0.0013128954
 13        0.0015428954
 14        0.0011414251
 15        0.0004559042
 16       -0.0318392176
 17        0.1161705966
 18        0.6058239689
 19       -0.0358922238
 20       -0.2209233628
 21        0.0046955383
 22        0.0391062166
 23       -0.1871458559
 24        0.0057559258
 25       -0.0056461204
 26        0.0073756801
 27       -0.0017295598
 28        0.0010867471
 29        0.0002501911
 30       -0.0001428219
 31       -0.0027897946
 32        0.6048020327
 33       -0.0067874653
 34        0.0090382535
 35       -0.0071953569
 36       -0.0088260823
 37        0.5166378402
 38       -0.0069240184
 39        0.0081865445
 40        0.0059764608
 41        0.0186007805
 42        1.1845591052
 43       -0.0029264299
 44       -0.0204664172
 45       -0.0001058799
 46       -0.1061959557
 47       -1.0595982578
 48       -0.0015119846
 49       -0.0257215773
 50        0.0001769945
 Sym= A
 Ene=  0.264933729820358     
 Spin= Alpha
 Occup= 0.0
  1        0.0001731776
  2        0.0045290786
  3       -0.0123423072
  4        0.0063130411
  5       -0.0686238479
  6        0.4924611089
  7        0.0110532096
  8       -0.1620184517
  9        1.1466928144
 10       -0.0000116154
 11       -0.0003919664
 12        0.0004035817
 13        0.0022115295
 14       -0.0168110327
 15       -0.0198183737
 16        0.0002929670
 17       -0.0054331676
 18       -0.0085086866
 19        0.0160356650
 20        0.0080231529
 21       -0.0696578093
 22        0.0110186943
 23        0.0181577745
 24       -0.1395107945
 25       -0.0001690312
 26       -0.0000776857
 27        0.0002467169
 28        0.0013903838
 29       -0.0077126748
 30        0.0048458772
 31       -0.0177714038
 32       -1.9370925246
 33       -0.0127490260
 34       -0.0107752021
 35        0.0202404432
 36        0.0147245028
 37        1.6948437278
 38        0.0113813973
 39        0.0092450705
 40        0.0186560428
 41        0.0076936189
 42        0.2885640631
 43        0.0024519423
 44       -0.0030286570
 45        0.0012966632
 46       -0.0062904990
 47       -0.0194972670
 48       -0.0007531809
 49        0.0006016855
 50       -0.0092648058
 Sym= A
 Ene=  0.268507593089778     
 Spin= Alpha
 Occup= 0.0
  1        0.0098793919
  2       -0.0242449693
  3       -0.2024119778
  4       -0.0649328970
  5        0.4553648482
  6        0.0669015597
  7       -0.1845361126
  8        1.1248140122
  9        0.1639956327
 10        0.0024273178
 11        0.0052862637
 12       -0.0077135815
 13       -0.0129612780
 14       -0.0016051901
 15       -0.0032633881
 16       -0.0142580377
 17        0.0328027618
 18        0.2667861014
 19       -0.0516617516
 20       -0.1216802370
 21       -0.0056012555
 22       -0.0342259077
 23       -0.1847649597
 24       -0.0165381569
 25       -0.0008511380
 26        0.0017516207
 27       -0.0009004826
 28       -0.0094690217
 29       -0.0009601525
 30        0.0006476575
 31        0.0222551807
 32        0.8260513586
 33        0.0028270654
 34        0.0069458117
 35       -0.0076582624
 36        0.0264768681
 37        1.3173664734
 38        0.0060544490
 39        0.0093655623
 40        0.0134718910
 41       -0.0700785603
 42       -1.9398898985
 43       -0.0160281538
 44        0.0204552752
 45        0.0000995332
 46       -0.0024078354
 47       -0.2546860544
 48        0.0052487768
 49       -0.0114903647
 50       -0.0013697178
 Sym= A
 Ene=  0.360167993116808     
 Spin= Alpha
 Occup= 0.0
  1        0.0317467100
  2       -0.0787125120
  3       -0.6396542289
  4       -0.2987637324
  5       -0.0381945057
  6        0.0036189451
  7       -1.4656383013
  8       -0.2287822505
  9        0.0077565026
 10        0.0040833239
 11       -0.0008755527
 12       -0.0032077712
 13        0.0039924335
 14        0.0001270632
 15       -0.0018540780
 16       -0.0387923330
 17        0.0859799023
 18        0.7891730853
 19       -0.4152488359
 20        0.1118781257
 21        0.0025419262
 22       -0.6293292555
 23        0.1436754353
 24        0.0003103661
 25        0.0061952391
 26       -0.0036046593
 27       -0.0025905798
 28        0.0063520517
 29        0.0000334168
 30       -0.0000000777
 31       -0.1569889756
 32       -0.2726962839
 33       -0.0106389657
 34       -0.0024985715
 35       -0.0048844828
 36       -0.1892024556
 37       -0.1445647665
 38       -0.0067925860
 39       -0.0019671027
 40        0.0043938130
 41       -0.1079617117
 42        0.1360229404
 43       -0.0031442202
 44       -0.0058922371
 45       -0.0005555592
 46        0.0006184702
 47        0.8787563340
 48       -0.0033294662
 49        0.0044884680
 50       -0.0002165335
 Sym= A
 Ene=  0.629745496412733     
 Spin= Alpha
 Occup= 0.0
  1        0.0026693918
  2        0.0086332579
  3       -0.0422692179
  4       -0.0329166777
  5       -0.3624112677
  6       -0.0244581421
  7       -0.1075146382
  8        1.4208340529
  9        0.0786558420
 10        0.0075546377
 11       -0.0783797335
 12        0.0708250958
 13        0.0885308157
 14       -0.0030633048
 15        0.0027102915
 16       -0.0114213081
 17       -0.1090726583
 18        0.0246882980
 19       -0.1315230999
 20       -0.0686642916
 21       -0.0030848414
 22        0.0160607912
 23       -0.1678003986
 24       -0.0103985852
 25       -0.0053869242
 26        0.0080995672
 27       -0.0027126430
 28       -0.0201473212
 29        0.0001862333
 30        0.0004419473
 31        0.6168475795
 32       -0.3704717624
 33       -0.0126711265
 34        0.0418188419
 35        0.0356920812
 36        0.6869032407
 37       -0.3829815005
 38       -0.0089255831
 39        0.0405986731
 40       -0.0334675039
 41       -1.3662784264
 42        0.7440697450
 43        0.0091078682
 44       -0.0379982116
 45        0.0020402015
 46        0.2566909428
 47        0.0210661156
 48        0.0730757343
 49       -0.0259591145
 50        0.0004783887
 Sym= A
 Ene=  0.641108367981015     
 Spin= Alpha
 Occup= 0.0
  1        0.0044959546
  2        0.0230325292
  3       -0.0434309432
  4        0.0308979047
  5        0.0035019098
  6       -0.3670271676
  7       -0.1161107325
  8       -0.0324327045
  9        1.5384119837
 10       -0.0030423299
 11        0.0019752617
 12        0.0010670683
 13       -0.0095168854
 14        0.0373966036
 15        0.1522645576
 16       -0.0036294443
 17       -0.0032698841
 18        0.0652001737
 19        0.0164636917
 20        0.0062103817
 21       -0.2382470498
 22       -0.0277349688
 23       -0.0085256334
 24       -0.1260521967
 25        0.0016699453
 26       -0.0014927010
 27       -0.0001772443
 28        0.0019356425
 29       -0.0093382576
 30        0.0093261671
 31       -1.2118167504
 32        0.5607301540
 33        0.0093648507
 34        0.0396441425
 35       -0.0003158483
 36        1.1339216190
 37       -0.5123278594
 38       -0.0049376240
 39       -0.0410041509
 40        0.0024474308
 41        0.0275354428
 42       -0.0325925230
 43       -0.0038010682