
 Working directory              : /scratch/mel64643/tmp/40073364/
 Global scratch directory       : /scratch/mel64643/tmp/40073364/
 Wavefunction directory         : /home/mel64643/wfu/
 Main file repository           : /scratch/mel64643/tmp/40073364/

 id        : ccgc

 Nodes     nprocs
 a1-8         3
 Distribution of processes:   nprocs(total)=    4   nprocs(compute)=    3   nprocs(helper)=    1
 GA implementation: MPI file
 GA implementation (serial work in mppx): MPI file

 Using customized tuning parameters: mindgm=1; mindgv=20; mindgc=4; mindgr=1; noblas=0; minvec=7
 default implementation of scratch files=sf  


 Variables initialized (1015), CPU time= 0.01 sec
 ***,Optimization of min3
 memory,1000,m
 gthresh,energy=1.0d-12,orbital=1.0d-10,oneint=1.0d-16,twoint=1.0d-16,optgrad=1.0d-6,compress=1.0d-13
 geomtyp=xyz
 
  bohr
  geometry = {
  6
  arbitrary comment
  C   -1.3680454053   -0.0215345341    0.0000003154
  O    1.2987322860    0.1352024157    0.0000002716
  H   -2.0764346923    1.9052074267   -0.0000798308
  H   -2.0965532377   -0.9816231101    1.6821467374
  H   -2.0965455631   -0.9817543564   -1.6820745575
  H    1.9151224524   -1.5856299618   -0.0000013461
 }
 
 basis=cc-pvdz
 {rhf;maxit,200}
 {ccsd(t);maxit,200}
 Commands initialized (818), CPU time= 0.01 sec, 672 directives.
 Default parameters read. Elapsed time= 0.11 sec

 Checking input...
 Passed
1


                                         ***  PROGRAM SYSTEM MOLPRO  ***
                                       Copyright, TTI GmbH Stuttgart, 2015
                                    Version 2022.1 linked Mar  4 2022 00:40:14


 **********************************************************************************************************************************
 LABEL *   Optimization of min3                                                          
  64 bit mpp version                                                                     DATE: 07-Aug-25          TIME: 21:26:35  
 **********************************************************************************************************************************

 SHA1:             31073afc4d8441e10870424e0d77336a33bc4286
 **********************************************************************************************************************************

 Memory per process:      1000 MW
 Total memory per node:   3000 MW

 GA preallocation disabled
 GA check disabled

 Variable memory set to 1000.0 MW


 THRESHOLDS:

 ZERO    =  1.00D-12  ONEINT  =  1.00D-16  TWOINT  =  1.00D-16  PREFAC  =  1.00D-14  XXXXXX  =  1.00D-09  EORDER  =  1.00D-04
 ENERGY  =  1.00D-12  ETEST   =  0.00D+00  EDENS   =  0.00D+00  THRDEDEF=  1.00D-06  GRADIENT=  1.00D-05  STEP    =  1.00D-03
 ORBITAL =  1.00D-10  CIVEC   =  1.00D-05  COEFF   =  1.00D-04  PRINTCI =  5.00D-02  PUNCHCI =  9.90D+01  OPTGRAD =  1.00D-06
 OPTENERG=  1.00D-06  OPTSTEP =  3.00D-04  THRGRAD =  1.00D-10  COMPRESS=  1.00D-13  VARMIN  =  1.00D-07  VARMAX  =  1.00D-03
 THRDOUB =  0.00D+00  THRDIV  =  1.00D-05  THRRED  =  1.00D-07  THRPSP  =  1.00D+00  THRDC   =  1.00D-10  THRCS   =  1.00D-10
 THRNRM  =  1.00D-08  THREQ   =  0.00D+00  THRDE   =  1.00D+00  THRREF  =  1.00D-05  SPARFAC =  1.00D+00  THRDLP  =  1.00D-07
 THRDIA  =  1.00D-10  THRDLS  =  1.00D-07  THRGPS  =  0.00D+00  THRKEX  =  0.00D+00  THRDIS  =  2.00D-01  THRVAR  =  1.00D-10
 THRLOC  =  1.00D-06  THRGAP  =  1.00D-06  THRLOCT = -1.00D+00  THRGAPT = -1.00D+00  THRORB  =  1.00D-06  THRMLTP =  0.00D+00
 THRCPQCI=  1.00D-10  KEXTA   =  0.00D+00  THRCOARS=  0.00D+00  SYMTOL  =  1.00D-06  GRADTOL =  1.00D-06  THROVL  =  1.00D-08
 THRORTH =  1.00D-08  THRDLOVL= -1.00D+00  GRID    =  1.00D-06  GRIDMAX =  1.00D-03  DTMAX   =  0.00D+00  THROCCDE=  1.00D-01
 THROCCDE=  1.00D-01  THRPRINT=  2.50D-01

 SETTING GEOMTYP        =    XYZ
 ZUNIT=BOHR

 SETTING BASIS          =    CC-PVDZ


 Recomputing integrals since basis changed


 Using spherical harmonics

 Library entry C      S cc-pVDZ              selected for orbital group  1
 Library entry C      P cc-pVDZ              selected for orbital group  1
 Library entry C      D cc-pVDZ              selected for orbital group  1
 Library entry O      S cc-pVDZ              selected for orbital group  2
 Library entry O      P cc-pVDZ              selected for orbital group  2
 Library entry O      D cc-pVDZ              selected for orbital group  2
 Library entry H      S cc-pVDZ              selected for orbital group  3
 Library entry H      P cc-pVDZ              selected for orbital group  3


 PROGRAM * SEWARD (Integral evaluation for generally contracted gaussian basis sets)     Author: Roland Lindh, 1990

 Geometry written to block  1 of record 700


 Point group  C1  



 ATOMIC COORDINATES

 NR  ATOM    CHARGE       X              Y              Z

   1  C       6.00   -1.368045405   -0.021534534    0.000000315
   2  O       8.00    1.298732286    0.135202416    0.000000272
   3  H       1.00   -2.076434692    1.905207427   -0.000079831
   4  H       1.00   -2.096553238   -0.981623110    1.682146737
   5  H       1.00   -2.096545563   -0.981754356   -1.682074558
   6  H       1.00    1.915122452   -1.585629962   -0.000001346

 Bond lengths in Bohr (Angstrom)

 1-2  2.671379742  1-3  2.052839490  1-4  2.069326055  1-5  2.069326090  2-6  1.827895213
     ( 1.413633281)     ( 1.086315876)     ( 1.095040190)     ( 1.095040209)     ( 0.967280490)

 Bond angles

  1-2-6  106.34354282   2-1-3  106.82291619   2-1-4  112.25108717   2-1-5  112.25108629

  3-1-4  108.30102958   3-1-5  108.30086852   4-1-5  108.75625696

 NUCLEAR CHARGE:                   18
 NUMBER OF PRIMITIVE AOS:          82
 NUMBER OF SYMMETRY AOS:           80
 NUMBER OF CONTRACTIONS:           48   (   48A   )
 NUMBER OF INNER CORE ORBITALS:     0   (    0A   )
 NUMBER OF OUTER CORE ORBITALS:     2   (    2A   )
 NUMBER OF VALENCE ORBITALS:       12   (   12A   )


 NUCLEAR REPULSION ENERGY   40.40572161

 Eigenvalues of metric

         1 0.962E-02 0.176E-01 0.367E-01 0.374E-01 0.387E-01 0.474E-01 0.476E-01 0.517E-01


 Contracted 2-electron integrals neglected if value below      1.0D-16
 AO integral compression algorithm  1   Integral accuracy      1.0D-16

     6.816 MB (compressed) written to integral file ( 98.3%)

     Node minimum: 2.097 MB, node maximum: 2.359 MB


 NUMBER OF SORTED TWO-ELECTRON INTEGRALS:     231084.     BUFFER LENGTH:  32768
 NUMBER OF SEGMENTS:   1  SEGMENT LENGTH:     231084      RECORD LENGTH: 524288

 Memory used in sort:       0.79 MW

 SORT1 READ      832256. AND WROTE      227682. INTEGRALS IN      1 RECORDS. CPU TIME:     0.01 SEC, REAL TIME:     0.03 SEC
 SORT2 READ      682148. AND WROTE      692076. INTEGRALS IN     24 RECORDS. CPU TIME:     0.01 SEC, REAL TIME:     0.02 SEC

 Node minimum:      230300.  Node maximum:      231084. integrals

 OPERATOR DM      FOR CENTER  0  COORDINATES:    0.000000    0.000000    0.000000


 **********************************************************************************************************************************
 DATASETS  * FILE   NREC   LENGTH (MB)   RECORD NAMES
              1      18       28.73       500      610      700      900      950      970     1000      129      960     1100   
                                          VAR    BASINP    GEOM    SYMINP    ZMAT    AOBASIS   BASIS     P2S    ABASIS      S 
                                         1400     1410     1200     1210     1080     1600     1650     1700   
                                           T        V       H0       H01     AOSYM     SMH    MOLCAS    OPER   

 PROGRAMS   *        TOTAL       INT
 CPU TIMES  *         0.45      0.31
 REAL TIME  *         1.79 SEC
 DISK USED  *        29.07 MB (local),      104.32 MB (total)
 GA USED    *         0.00 MB       (max)       0.00 MB       (current)
 **********************************************************************************************************************************


 Program * Restricted Hartree-Fock

 Orbital guess generated from atomic densities. Full valence occupancy:   14

 Initial occupancy:   9

 NELEC=   18   SYM=1   MS2= 0   THRE=1.0D-12   THRD=1.0D-10   THRG=1.0D-10  HFMA2=F  DIIS_START=2   DIIS_MAX=10   DIIS_INCORE=F

 Level shifts:    0.00 (CLOSED)    0.00 (OPEN)    0.30 (GAP_MIN)

 ITER           ETOT              DE          GRAD        DDIFF     DIIS  NEXP   TIME(IT)  TIME(TOT)  DIAG
   1     -115.01376509    -115.01376509     0.00D+00     0.16D+00     0     0       0.00      0.00    start
   2     -115.04232874      -0.02856365     0.10D-01     0.20D-01     1     0       0.00      0.00    diag
   3     -115.04837725      -0.00604850     0.49D-02     0.64D-02     2     0       0.00      0.00    diag
   4     -115.04884824      -0.00047099     0.10D-02     0.20D-02     3     0       0.01      0.01    diag
   5     -115.04887026      -0.00002202     0.19D-03     0.44D-03     4     0       0.00      0.01    diag
   6     -115.04887113      -0.00000087     0.34D-04     0.96D-04     5     0       0.01      0.02    diag
   7     -115.04887116      -0.00000004     0.71D-05     0.16D-04     6     0       0.01      0.03    diag
   8     -115.04887116      -0.00000000     0.23D-05     0.53D-05     7     0       0.00      0.03    fixocc
   9     -115.04887116      -0.00000000     0.48D-06     0.15D-05     8     0       0.00      0.03    diag
  10     -115.04887116      -0.00000000     0.83D-07     0.26D-06     9     0       0.00      0.03    diag/orth
  11     -115.04887116      -0.00000000     0.21D-07     0.57D-07     9     0       0.01      0.04    diag
  12     -115.04887116       0.00000000     0.49D-08     0.16D-07     9     0       0.00      0.04    diag
  13     -115.04887116       0.00000000     0.70D-09     0.20D-08     9     0       0.00      0.04    diag
  14     -115.04887116      -0.00000000     0.15D-09     0.41D-09     9     0       0.00      0.04    diag
  15     -115.04887116       0.00000000     0.65D-10     0.12D-09     9     0       0.01      0.05    diag
  16     -115.04887116      -0.00000000     0.14D-10     0.34D-10     9     0       0.00      0.05    diag
  17     -115.04887116       0.00000000     0.24D-11     0.48D-11     0     0       0.00      0.05    diag

 Final occupancy:   9

 !RHF STATE 1.1 Energy               -115.048871163945
  RHF One-electron energy            -237.068640556261
  RHF Two-electron energy              81.614047778938
  RHF Kinetic energy                  114.949542801297
  RHF Nuclear energy                   40.405721613378
  RHF Virial quotient                  -1.000864104025

 !RHF STATE 1.1 Dipole moment          -0.38817063    -0.59928024    -0.00000285
 Dipole moment /Debye                  -0.98663132    -1.52321842    -0.00000723

 Orbital energies:

           1.1          2.1          3.1          4.1          5.1          6.1          7.1          8.1          9.1         10.1
    -20.551121   -11.273665    -1.351643    -0.920020    -0.683159    -0.614917    -0.586033    -0.497316    -0.442399     0.183650

          11.1
      0.224514


 HOMO      9.1    -0.442399 =     -12.0383eV
 LUMO     10.1     0.183650 =       4.9974eV
 LUMO-HOMO         0.626049 =      17.0357eV

 Orbitals saved in record  2100.2


 **********************************************************************************************************************************
 DATASETS  * FILE   NREC   LENGTH (MB)   RECORD NAMES
              1      18       28.73       500      610      700      900      950      970     1000      129      960     1100   
                                          VAR    BASINP    GEOM    SYMINP    ZMAT    AOBASIS   BASIS     P2S    ABASIS      S 
                                         1400     1410     1200     1210     1080     1600     1650     1700   
                                           T        V       H0       H01     AOSYM     SMH    MOLCAS    OPER   

              2       4        0.47       700     1000      520     2100   
                                         GEOM     BASIS   MCVARS     RHF  

 PROGRAMS   *        TOTAL   RHF-SCF       INT
 CPU TIMES  *         0.51      0.06      0.31
 REAL TIME  *         2.02 SEC
 DISK USED  *        29.40 MB (local),      105.30 MB (total)
 GA USED    *         0.00 MB       (max)       0.00 MB       (current)
 **********************************************************************************************************************************


 PROGRAM * CCSD (Closed-shell coupled cluster)     Authors: C. Hampel, H.-J. Werner, 1991, M. Deegan, P.J. Knowles, 1992


 Convergence thresholds:  THRVAR = 1.00D-08  THRDEN = 1.00D-12

 CCSD(T)     terms to be evaluated (factor= 1.000)


 Number of core orbitals:           2 (   2 )
 Number of closed-shell orbitals:   7 (   7 )
 Number of external orbitals:      39 (  39 )

 Molecular orbitals read from record     2100.2  Type=RHF/CANONICAL  

 Number of N-1 electron functions:               7
 Number of N-2 electron functions:              28
 Number of singly external CSFs:               273
 Number of doubly external CSFs:             37401
 Total number of CSFs:                       37675

 Length of J-op  integral file:               0.00 MB
 Length of K-op  integral file:               0.16 MB
 Length of 3-ext integral record:             0.00 MB

 Memory could be reduced to 0.73 Mwords without degradation in triples

 Integral transformation finished. Total CPU:   0.02 sec, npass=  1  Memory used:   0.66 MW

 Reference energy:                   -115.04887116

 MP2 singlet pair energy:              -0.21875337
 MP2 triplet pair energy:              -0.11997450
 MP2 correlation energy:               -0.33872787
 MP2 total energy:                   -115.38759904

 SCS-MP2 correlation energy:           -0.33715485   (PS=  1.200000  PT=  0.333333)
 SCS-MP2 total energy:               -115.38602601

 ITER.      SQ.NORM     CORR.ENERGY   TOTAL ENERGY   ENERGY CHANGE        DEN1      VAR(S)    VAR(P)  DIIS     TIME  TIME/IT
   1      1.10737323    -0.36148553  -115.41035669    -0.02275765    -0.01407140  0.91D-03  0.17D-02  1  1     0.05     0.04
   2      1.11589922    -0.36343167  -115.41230283    -0.00194614    -0.00925521  0.19D-04  0.16D-03  2  2     0.07     0.03
   3      1.11778218    -0.36355814  -115.41242930    -0.00012647    -0.00120617  0.94D-05  0.86D-05  3  3     0.09     0.03
   4      1.11829680    -0.36355698  -115.41242814     0.00000116    -0.00025497  0.33D-06  0.67D-06  4  4     0.11     0.03
   5      1.11839407    -0.36355744  -115.41242861    -0.00000047    -0.00003580  0.98D-07  0.48D-07  5  5     0.13     0.03
   6      1.11841287    -0.36355610  -115.41242726     0.00000134    -0.00000432  0.16D-07  0.41D-08  6  6     0.16     0.03
   7      1.11841758    -0.36355569  -115.41242685     0.00000041    -0.00000035  0.20D-08  0.71D-09  6  1     0.18     0.03
   8      1.11841884    -0.36355579  -115.41242695    -0.00000010     0.00000074  0.25D-09  0.71D-10  6  3     0.20     0.03
   9      1.11841990    -0.36355567  -115.41242683     0.00000012    -0.00000038  0.12D-10  0.10D-10  6  2     0.22     0.03
  10      1.11841995    -0.36355567  -115.41242683     0.00000000     0.00000000  0.13D-11  0.12D-11  6  4     0.24     0.03
  11      1.11841991    -0.36355567  -115.41242683     0.00000000     0.00000003  0.32D-12  0.82D-13  6  5     0.27     0.03
  12      1.11841986    -0.36355567  -115.41242683    -0.00000000     0.00000003  0.31D-13  0.12D-13  6  6     0.29     0.03
  13      1.11841984    -0.36355567  -115.41242684    -0.00000000     0.00000001  0.37D-14  0.15D-14  6  3     0.31     0.03
  14      1.11841984    -0.36355567  -115.41242684    -0.00000000     0.00000000  0.28D-15  0.14D-15  6  1     0.33     0.03
  15      1.11841984    -0.36355567  -115.41242684     0.00000000    -0.00000000  0.36D-16  0.31D-16  6  2     0.35     0.03
  16      1.11841984    -0.36355567  -115.41242684     0.00000000    -0.00000000  0.31D-17  0.16D-17  6  5     0.37     0.03
  17      1.11841984    -0.36355567  -115.41242684    -0.00000000     0.00000000  0.13D-18  0.12D-18  6  4     0.39     0.03
  18      1.11841984    -0.36355567  -115.41242684     0.00000000    -0.00000000  0.27D-19  0.12D-19  6  3     0.41     0.03
  19      1.11841984    -0.36355567  -115.41242684     0.00000000    -0.00000000  0.26D-20  0.10D-20  6  6     0.43     0.03
  20      1.11841984    -0.36355567  -115.41242684     0.00000000    -0.00000000  0.40D-21  0.17D-21  6  1     0.45     0.03

 Norm of t1 vector:      0.04164784      S-energy:    -0.00000000      T1 diagnostic:  0.00787070
                                                                       D1 diagnostic:  0.01725143
                                                                       D2 diagnostic:  0.13428900 (internal)


 Total CPU time for triples:      0.10 sec


 RESULTS
 =======

  Reference energy                   -115.048871163945
  CCSD singlet pair energy             -0.254697564615
  CCSD triplet pair energy             -0.108858106575
  CCSD correlation energy              -0.363555671190

  Triples (T) contribution             -0.007745893136
  Total correlation energy             -0.371301564325

  CCSD total energy                  -115.412426835134
  CCSD[T] energy                     -115.420461990288
  CCSD-T energy                      -115.420023242378
 !CCSD(T) total energy               -115.420172728270

 Timing summary (sec):

 STEP                 CPU(USER)    SYS     CPU(TOT)    WALL
 Transformation          0.02      0.00      0.02      0.04
 CCSD iterations         0.43      0.07      0.50      0.65
 Triples                 0.10      0.00      0.10      0.10

 Program statistics:

 Available memory in ccsd:               999999795
 Min. memory needed in ccsd:                136177
 Max. memory used in ccsd:                  162910
 Max. memory used in cckext:                178997 (20 integral passes)



 **********************************************************************************************************************************
 DATASETS  * FILE   NREC   LENGTH (MB)   RECORD NAMES
              1      19       31.13       500      610      700      900      950      970     1000      129      960     1100   
                                          VAR    BASINP    GEOM    SYMINP    ZMAT    AOBASIS   BASIS     P2S    ABASIS      S 
                                         1400     1410     1200     1210     1080     1600     1650     1700     1380   
                                           T        V       H0       H01     AOSYM     SMH    MOLCAS    OPER     JKOP   

              2       4        0.47       700     1000      520     2100   
                                         GEOM     BASIS   MCVARS     RHF  

 PROGRAMS   *        TOTAL   CCSD(T)   RHF-SCF       INT
 CPU TIMES  *         1.10      0.57      0.06      0.31
 REAL TIME  *         2.88 SEC
 DISK USED  *        35.56 MB (local),      115.96 MB (total)
 SF USED    *         5.97 MB
 GA USED    *         0.00 MB       (max)       0.00 MB       (current)
 **********************************************************************************************************************************

 CCSD(T)/cc-pVDZ energy=   -115.420172728270

         CCSD(T)         RHF-SCF
   -115.42017273   -115.04887116
 **********************************************************************************************************************************
 Molpro calculation terminated
