
 Working directory              : /scratch/mel64643/tmp/40073371/
 Global scratch directory       : /scratch/mel64643/tmp/40073371/
 Wavefunction directory         : /home/mel64643/wfu/
 Main file repository           : /scratch/mel64643/tmp/40073371/

 id        : ccgc

 Nodes     nprocs
 a1-8         3
 Distribution of processes:   nprocs(total)=    4   nprocs(compute)=    3   nprocs(helper)=    1
 GA implementation: MPI file
 GA implementation (serial work in mppx): MPI file

 Using customized tuning parameters: mindgm=1; mindgv=20; mindgc=4; mindgr=1; noblas=0; minvec=7
 default implementation of scratch files=sf  


 Variables initialized (1015), CPU time= 0.01 sec
 ***,Optimization of min3
 memory,1000,m
 gthresh,energy=1.0d-12,orbital=1.0d-10,oneint=1.0d-16,twoint=1.0d-16,optgrad=1.0d-6,compress=1.0d-13
 geomtyp=xyz
 
  bohr
  geometry = {
  6
  arbitrary comment
  C   -1.3746163602   -0.0237554062    0.0000002952
  O    1.3222826503    0.1264414462    0.0000003140
  H   -2.0790071195    1.9175863404   -0.0000802719
  H   -2.1138849403   -0.9861787001    1.6889138693
  H   -2.1138778603   -0.9863105365   -1.6888412370
  H    1.9353794701   -1.5779152639   -0.0000013796
 }
 
 basis=cc-pvdz
 {rhf;maxit,200}
 {ccsd(t);maxit,200}
 Commands initialized (818), CPU time= 0.01 sec, 672 directives.
 Default parameters read. Elapsed time= 0.11 sec

 Checking input...
 Passed
1


                                         ***  PROGRAM SYSTEM MOLPRO  ***
                                       Copyright, TTI GmbH Stuttgart, 2015
                                    Version 2022.1 linked Mar  4 2022 00:40:14


 **********************************************************************************************************************************
 LABEL *   Optimization of min3                                                          
  64 bit mpp version                                                                     DATE: 07-Aug-25          TIME: 21:26:35  
 **********************************************************************************************************************************

 SHA1:             31073afc4d8441e10870424e0d77336a33bc4286
 **********************************************************************************************************************************

 Memory per process:      1000 MW
 Total memory per node:   3000 MW

 GA preallocation disabled
 GA check disabled

 Variable memory set to 1000.0 MW


 THRESHOLDS:

 ZERO    =  1.00D-12  ONEINT  =  1.00D-16  TWOINT  =  1.00D-16  PREFAC  =  1.00D-14  XXXXXX  =  1.00D-09  EORDER  =  1.00D-04
 ENERGY  =  1.00D-12  ETEST   =  0.00D+00  EDENS   =  0.00D+00  THRDEDEF=  1.00D-06  GRADIENT=  1.00D-05  STEP    =  1.00D-03
 ORBITAL =  1.00D-10  CIVEC   =  1.00D-05  COEFF   =  1.00D-04  PRINTCI =  5.00D-02  PUNCHCI =  9.90D+01  OPTGRAD =  1.00D-06
 OPTENERG=  1.00D-06  OPTSTEP =  3.00D-04  THRGRAD =  1.00D-10  COMPRESS=  1.00D-13  VARMIN  =  1.00D-07  VARMAX  =  1.00D-03
 THRDOUB =  0.00D+00  THRDIV  =  1.00D-05  THRRED  =  1.00D-07  THRPSP  =  1.00D+00  THRDC   =  1.00D-10  THRCS   =  1.00D-10
 THRNRM  =  1.00D-08  THREQ   =  0.00D+00  THRDE   =  1.00D+00  THRREF  =  1.00D-05  SPARFAC =  1.00D+00  THRDLP  =  1.00D-07
 THRDIA  =  1.00D-10  THRDLS  =  1.00D-07  THRGPS  =  0.00D+00  THRKEX  =  0.00D+00  THRDIS  =  2.00D-01  THRVAR  =  1.00D-10
 THRLOC  =  1.00D-06  THRGAP  =  1.00D-06  THRLOCT = -1.00D+00  THRGAPT = -1.00D+00  THRORB  =  1.00D-06  THRMLTP =  0.00D+00
 THRCPQCI=  1.00D-10  KEXTA   =  0.00D+00  THRCOARS=  0.00D+00  SYMTOL  =  1.00D-06  GRADTOL =  1.00D-06  THROVL  =  1.00D-08
 THRORTH =  1.00D-08  THRDLOVL= -1.00D+00  GRID    =  1.00D-06  GRIDMAX =  1.00D-03  DTMAX   =  0.00D+00  THROCCDE=  1.00D-01
 THROCCDE=  1.00D-01  THRPRINT=  2.50D-01

 SETTING GEOMTYP        =    XYZ
 ZUNIT=BOHR

 SETTING BASIS          =    CC-PVDZ


 Recomputing integrals since basis changed


 Using spherical harmonics

 Library entry C      S cc-pVDZ              selected for orbital group  1
 Library entry C      P cc-pVDZ              selected for orbital group  1
 Library entry C      D cc-pVDZ              selected for orbital group  1
 Library entry O      S cc-pVDZ              selected for orbital group  2
 Library entry O      P cc-pVDZ              selected for orbital group  2
 Library entry O      D cc-pVDZ              selected for orbital group  2
 Library entry H      S cc-pVDZ              selected for orbital group  3
 Library entry H      P cc-pVDZ              selected for orbital group  3


 PROGRAM * SEWARD (Integral evaluation for generally contracted gaussian basis sets)     Author: Roland Lindh, 1990

 Geometry written to block  1 of record 700


 Point group  C1  



 ATOMIC COORDINATES

 NR  ATOM    CHARGE       X              Y              Z

   1  C       6.00   -1.374616360   -0.023755406    0.000000295
   2  O       8.00    1.322282650    0.126441446    0.000000314
   3  H       1.00   -2.079007119    1.917586340   -0.000080272
   4  H       1.00   -2.113884940   -0.986178700    1.688913869
   5  H       1.00   -2.113877860   -0.986310537   -1.688841237
   6  H       1.00    1.935379470   -1.577915264   -0.000001380

 Bond lengths in Bohr (Angstrom)

 1-2  2.701078186  1-3  2.065181378  1-4  2.079712887  1-5  2.079712880  2-6  1.811275657
     ( 1.429349021)     ( 1.092846922)     ( 1.100536665)     ( 1.100536662)     ( 0.958485800)

 Bond angles

  1-2-6  106.59719217   2-1-3  106.75500053   2-1-4  112.37391527   2-1-5  112.37392384

  3-1-4  108.28878723   3-1-5  108.28862979   4-1-5  108.59782651

 NUCLEAR CHARGE:                   18
 NUMBER OF PRIMITIVE AOS:          82
 NUMBER OF SYMMETRY AOS:           80
 NUMBER OF CONTRACTIONS:           48   (   48A   )
 NUMBER OF INNER CORE ORBITALS:     0   (    0A   )
 NUMBER OF OUTER CORE ORBITALS:     2   (    2A   )
 NUMBER OF VALENCE ORBITALS:       12   (   12A   )


 NUCLEAR REPULSION ENERGY   40.12862961


 Eigenvalues of metric

         1 0.973E-02 0.177E-01 0.374E-01 0.381E-01 0.384E-01 0.481E-01 0.488E-01 0.520E-01


 Contracted 2-electron integrals neglected if value below      1.0D-16
 AO integral compression algorithm  1   Integral accuracy      1.0D-16

     6.816 MB (compressed) written to integral file ( 98.0%)

     Node minimum: 2.097 MB, node maximum: 2.359 MB


 NUMBER OF SORTED TWO-ELECTRON INTEGRALS:     231084.     BUFFER LENGTH:  32768
 NUMBER OF SEGMENTS:   1  SEGMENT LENGTH:     231084      RECORD LENGTH: 524288

 Memory used in sort:       0.79 MW

 SORT1 READ      832256. AND WROTE      227681. INTEGRALS IN      1 RECORDS. CPU TIME:     0.01 SEC, REAL TIME:     0.03 SEC
 SORT2 READ      682144. AND WROTE      692076. INTEGRALS IN     27 RECORDS. CPU TIME:     0.01 SEC, REAL TIME:     0.02 SEC

 Node minimum:      230300.  Node maximum:      231084. integrals

 OPERATOR DM      FOR CENTER  0  COORDINATES:    0.000000    0.000000    0.000000


 **********************************************************************************************************************************
 DATASETS  * FILE   NREC   LENGTH (MB)   RECORD NAMES
              1      18       28.73       500      610      700      900      950      970     1000      129      960     1100   
                                          VAR    BASINP    GEOM    SYMINP    ZMAT    AOBASIS   BASIS     P2S    ABASIS      S 
                                         1400     1410     1200     1210     1080     1600     1650     1700   
                                           T        V       H0       H01     AOSYM     SMH    MOLCAS    OPER   

 PROGRAMS   *        TOTAL       INT
 CPU TIMES  *         0.51      0.37
 REAL TIME  *         1.79 SEC
 DISK USED  *        29.07 MB (local),      104.31 MB (total)
 GA USED    *         0.00 MB       (max)       0.00 MB       (current)
 **********************************************************************************************************************************


 Program * Restricted Hartree-Fock

 Orbital guess generated from atomic densities. Full valence occupancy:   14

 Initial occupancy:   9

 NELEC=   18   SYM=1   MS2= 0   THRE=1.0D-12   THRD=1.0D-10   THRG=1.0D-10  HFMA2=F  DIIS_START=2   DIIS_MAX=10   DIIS_INCORE=F

 Level shifts:    0.00 (CLOSED)    0.00 (OPEN)    0.30 (GAP_MIN)

 ITER           ETOT              DE          GRAD        DDIFF     DIIS  NEXP   TIME(IT)  TIME(TOT)  DIAG
   1     -115.01365082    -115.01365082     0.00D+00     0.16D+00     0     0       0.00      0.00    start
   2     -115.04203918      -0.02838836     0.10D-01     0.21D-01     1     0       0.01      0.01    diag
   3     -115.04821043      -0.00617125     0.49D-02     0.64D-02     2     0       0.00      0.01    diag
   4     -115.04867546      -0.00046503     0.10D-02     0.20D-02     3     0       0.00      0.01    diag
   5     -115.04869676      -0.00002130     0.19D-03     0.44D-03     4     0       0.01      0.02    diag
   6     -115.04869756      -0.00000080     0.32D-04     0.93D-04     5     0       0.01      0.03    diag
   7     -115.04869759      -0.00000003     0.65D-05     0.15D-04     6     0       0.00      0.03    diag
   8     -115.04869760      -0.00000000     0.20D-05     0.47D-05     7     0       0.00      0.03    fixocc
   9     -115.04869760      -0.00000000     0.44D-06     0.14D-05     8     0       0.01      0.04    diag
  10     -115.04869760      -0.00000000     0.66D-07     0.22D-06     9     0       0.00      0.04    diag/orth
  11     -115.04869760       0.00000000     0.14D-07     0.40D-07     9     0       0.00      0.04    diag
  12     -115.04869760      -0.00000000     0.38D-08     0.12D-07     9     0       0.00      0.04    diag
  13     -115.04869760       0.00000000     0.65D-09     0.18D-08     9     0       0.01      0.05    diag
  14     -115.04869760      -0.00000000     0.14D-09     0.38D-09     9     0       0.00      0.05    diag
  15     -115.04869760       0.00000000     0.59D-10     0.11D-09     9     0       0.00      0.05    diag
  16     -115.04869760       0.00000000     0.13D-10     0.32D-10     9     0       0.00      0.05    diag
  17     -115.04869760      -0.00000000     0.23D-11     0.46D-11     0     0       0.01      0.06    diag

 Final occupancy:   9

 !RHF STATE 1.1 Energy               -115.048697596738
  RHF One-electron energy            -236.527838528815
  RHF Two-electron energy              81.350511317680
  RHF Kinetic energy                  114.906204525648
  RHF Nuclear energy                   40.128629614397
  RHF Virial quotient                  -1.001240081610

 !RHF STATE 1.1 Dipole moment          -0.40761598    -0.59636435    -0.00000280
 Dipole moment /Debye                  -1.03605649    -1.51580697    -0.00000712

 Orbital energies:

           1.1          2.1          3.1          4.1          5.1          6.1          7.1          8.1          9.1         10.1
    -20.550857   -11.277332    -1.348057    -0.919908    -0.681252    -0.611330    -0.582320    -0.498567    -0.443785     0.184087

          11.1
      0.224137


 HOMO      9.1    -0.443785 =     -12.0760eV
 LUMO     10.1     0.184087 =       5.0093eV
 LUMO-HOMO         0.627872 =      17.0853eV

 Orbitals saved in record  2100.2


 **********************************************************************************************************************************
 DATASETS  * FILE   NREC   LENGTH (MB)   RECORD NAMES
              1      18       28.73       500      610      700      900      950      970     1000      129      960     1100   
                                          VAR    BASINP    GEOM    SYMINP    ZMAT    AOBASIS   BASIS     P2S    ABASIS      S 
                                         1400     1410     1200     1210     1080     1600     1650     1700   
                                           T        V       H0       H01     AOSYM     SMH    MOLCAS    OPER   

              2       4        0.47       700     1000      520     2100   
                                         GEOM     BASIS   MCVARS     RHF  

 PROGRAMS   *        TOTAL   RHF-SCF       INT
 CPU TIMES  *         0.57      0.06      0.37
 REAL TIME  *         2.02 SEC
 DISK USED  *        29.40 MB (local),      105.30 MB (total)
 GA USED    *         0.00 MB       (max)       0.00 MB       (current)
 **********************************************************************************************************************************


 PROGRAM * CCSD (Closed-shell coupled cluster)     Authors: C. Hampel, H.-J. Werner, 1991, M. Deegan, P.J. Knowles, 1992


 Convergence thresholds:  THRVAR = 1.00D-08  THRDEN = 1.00D-12

 CCSD(T)     terms to be evaluated (factor= 1.000)


 Number of core orbitals:           2 (   2 )
 Number of closed-shell orbitals:   7 (   7 )
 Number of external orbitals:      39 (  39 )

 Molecular orbitals read from record     2100.2  Type=RHF/CANONICAL  

 Number of N-1 electron functions:               7
 Number of N-2 electron functions:              28
 Number of singly external CSFs:               273
 Number of doubly external CSFs:             37401
 Total number of CSFs:                       37675

 Length of J-op  integral file:               0.00 MB
 Length of K-op  integral file:               0.16 MB
 Length of 3-ext integral record:             0.00 MB

 Memory could be reduced to 0.73 Mwords without degradation in triples

 Integral transformation finished. Total CPU:   0.02 sec, npass=  1  Memory used:   0.66 MW

 Reference energy:                   -115.04869760

 MP2 singlet pair energy:              -0.21910055
 MP2 triplet pair energy:              -0.11994441
 MP2 correlation energy:               -0.33904497
 MP2 total energy:                   -115.38774256

 SCS-MP2 correlation energy:           -0.33755274   (PS=  1.200000  PT=  0.333333)
 SCS-MP2 total energy:               -115.38625034

 ITER.      SQ.NORM     CORR.ENERGY   TOTAL ENERGY   ENERGY CHANGE        DEN1      VAR(S)    VAR(P)  DIIS     TIME  TIME/IT
   1      1.10793128    -0.36185609  -115.41055369    -0.02281113    -0.01404837  0.93D-03  0.18D-02  1  1     0.05     0.04
   2      1.11657206    -0.36381953  -115.41251713    -0.00196344    -0.00931894  0.20D-04  0.17D-03  2  2     0.07     0.04
   3      1.11850970    -0.36395127  -115.41264886    -0.00013173    -0.00123227  0.98D-05  0.89D-05  3  3     0.09     0.04
   4      1.11904222    -0.36394976  -115.41264735     0.00000151    -0.00026196  0.34D-06  0.71D-06  4  4     0.11     0.04
   5      1.11914447    -0.36395018  -115.41264778    -0.00000043    -0.00003735  0.10D-06  0.52D-07  5  5     0.13     0.03
   6      1.11916437    -0.36394878  -115.41264637     0.00000140    -0.00000455  0.16D-07  0.43D-08  6  6     0.15     0.03
   7      1.11916923    -0.36394834  -115.41264594     0.00000044    -0.00000035  0.20D-08  0.74D-09  6  1     0.17     0.03
   8      1.11917052    -0.36394844  -115.41264604    -0.00000011     0.00000076  0.27D-09  0.74D-10  6  3     0.19     0.03
   9      1.11917162    -0.36394832  -115.41264591     0.00000013    -0.00000039  0.13D-10  0.11D-10  6  2     0.21     0.03
  10      1.11917155    -0.36394832  -115.41264591    -0.00000000     0.00000007  0.11D-11  0.91D-12  6  5     0.23     0.03
  11      1.11917158    -0.36394832  -115.41264591     0.00000000    -0.00000000  0.19D-12  0.52D-13  6  4     0.25     0.03
  12      1.11917157    -0.36394832  -115.41264591    -0.00000000     0.00000001  0.19D-13  0.10D-13  6  1     0.26     0.03
  13      1.11917157    -0.36394832  -115.41264591    -0.00000000    -0.00000000  0.25D-14  0.94D-15  6  6     0.29     0.03
  14      1.11917157    -0.36394832  -115.41264591     0.00000000    -0.00000000  0.24D-15  0.13D-15  6  3     0.31     0.03
  15      1.11917157    -0.36394832  -115.41264591    -0.00000000    -0.00000000  0.26D-16  0.17D-16  6  2     0.33     0.03
  16      1.11917157    -0.36394832  -115.41264591    -0.00000000    -0.00000000  0.58D-17  0.17D-17  6  5     0.35     0.03
  17      1.11917157    -0.36394832  -115.41264591    -0.00000000    -0.00000000  0.54D-18  0.26D-18  6  4     0.37     0.03
  18      1.11917157    -0.36394832  -115.41264591     0.00000000    -0.00000000  0.51D-19  0.25D-19  6  6     0.39     0.03
  19      1.11917157    -0.36394832  -115.41264591    -0.00000000     0.00000000  0.17D-20  0.15D-20  6  1     0.41     0.03
  20      1.11917157    -0.36394832  -115.41264591    -0.00000000     0.00000000  0.29D-21  0.21D-21  6  3     0.43     0.03

 Norm of t1 vector:      0.04214295      S-energy:     0.00000000      T1 diagnostic:  0.00796427
                                                                       D1 diagnostic:  0.01784097
                                                                       D2 diagnostic:  0.13515979 (internal)


 Total CPU time for triples:      0.09 sec


 RESULTS
 =======

  Reference energy                   -115.048697596738
  CCSD singlet pair energy             -0.255221686552
  CCSD triplet pair energy             -0.108726631158
  CCSD correlation energy              -0.363948317710

  Triples (T) contribution             -0.007813546112
  Total correlation energy             -0.371761863822

  CCSD total energy                  -115.412645914447
  CCSD[T] energy                     -115.420757022727
  CCSD-T energy                      -115.420305626005
 !CCSD(T) total energy               -115.420459460559

 Timing summary (sec):

 STEP                 CPU(USER)    SYS     CPU(TOT)    WALL
 Transformation          0.03      0.01      0.04      0.04
 CCSD iterations         0.41      0.08      0.49      0.66
 Triples                 0.09      0.00      0.09      0.09

 Program statistics:

 Available memory in ccsd:               999999795
 Min. memory needed in ccsd:                136177
 Max. memory used in ccsd:                  162910
 Max. memory used in cckext:                178997 (20 integral passes)



 **********************************************************************************************************************************
 DATASETS  * FILE   NREC   LENGTH (MB)   RECORD NAMES
              1      19       31.13       500      610      700      900      950      970     1000      129      960     1100   
                                          VAR    BASINP    GEOM    SYMINP    ZMAT    AOBASIS   BASIS     P2S    ABASIS      S 
                                         1400     1410     1200     1210     1080     1600     1650     1700     1380   
                                           T        V       H0       H01     AOSYM     SMH    MOLCAS    OPER     JKOP   

              2       4        0.47       700     1000      520     2100   
                                         GEOM     BASIS   MCVARS     RHF  

 PROGRAMS   *        TOTAL   CCSD(T)   RHF-SCF       INT
 CPU TIMES  *         1.13      0.56      0.06      0.37
 REAL TIME  *         2.88 SEC
 DISK USED  *        35.56 MB (local),      115.95 MB (total)
 SF USED    *         5.97 MB
 GA USED    *         0.00 MB       (max)       0.00 MB       (current)
 **********************************************************************************************************************************

 CCSD(T)/cc-pVDZ energy=   -115.420459460559

         CCSD(T)         RHF-SCF
   -115.42045946   -115.04869760
 **********************************************************************************************************************************
 Molpro calculation terminated
