
 Primary working directories    : /tmp/333988.45.gen4.q
 Secondary working directories  : /tmp/333988.45.gen4.q
 Wavefunction directory         : /home/vulcan/mel64643/wfu/
 Main file repository           : /tmp/333988.45.gen4.q/

 ARCHNAME  : Linux/x86_64
 FC        : /opt/intel/compilers_and_libraries_2016.1.150/linux/bin/intel64/ifort
 FCVERSION : 16.0.1
 BLASLIB   : -mkl
 id        : ccgc

 Nodes     nprocs
 n066         3
 Number of processes for MPI-2 version of Molpro:   nprocs(total)=    4   nprocs(compute)=    3   nprocs(helper)=    1
 ga_uses_ma=false, calling ma_init with nominal heap.
 GA-space will be limited to   8.0 MW (determined by -G option)

 Using customized tuning parameters: mindgm=10; mindgv=16; mindgc=4; mindgr=1; noblas=0; mincuda=1000; minvec=7
 default implementation of scratch files=sf  

 ***,Optimization of min3
 memory,1000,m
 gthresh,energy=1.0d-10,orbital=1.0d-10,oneint=1.0d-16,twoint=1.0d-16,optgrad=1.0d-6,compress=1.0d-13
 geomtyp=xyz
 
  bohr
  geometry = {
  12
  arbitrary comment
  C         -3.1013405154          1.5877084716          0.0200634752
  C         -0.8629502325         -0.0709043310         -0.6569211937
  C         -1.1177376591         -2.7804045962          0.2450615872
  O          1.3114940826          1.1049519454          0.5891111769
  O          3.4491991631          0.1200579023         -0.2518221214
  H         -4.8096168209          0.8429375633         -0.8632679226
  H         -2.7968506751          3.5199714657         -0.6264770419
  H         -3.4047995242          1.5846947992          2.0609892740
  H         -0.4619227931         -0.0040230699         -2.6788784518
  H         -2.7096148717         -3.6850739269         -0.7056550068
  H         -1.4761478419         -2.8344800831          2.2774047951
  H          0.6141375770         -3.8203478437         -0.1520883180
 }
 
 basis=cc-pvtz
 {rhf;maxit,200}
 {uccsd(t);maxit,200}

 Variables initialized (661), CPU time= 0.00 sec
 Commands  initialized (458), CPU time= 0.01 sec, 486 directives.
 Default parameters read. Elapsed time= 0.05 sec

 Checking input...
 Passed
1


                                         ***  PROGRAM SYSTEM MOLPRO  ***
                         Copyright, University College Cardiff Consultants Limited, 2008

                                    Version 2010.1 linked May 16 2016 07:17:05


 **********************************************************************************************************************************
 LABEL *   Optimization of min3                                                          
 Linux-4.4.3/n066(x86_64) 64 bit mpp version                                             DATE: 15-Jul-20          TIME: 17:25:53  
 **********************************************************************************************************************************

 SHA1:             9e8077add272b0f3cad6f7df79ec5211205f459d
 **********************************************************************************************************************************

 THRESHOLDS:

 ZERO    =  1.00D-12  ONEINT  =  1.00D-16  TWOINT  =  1.00D-16  PREFAC  =  1.00D-14  LOCALI  =  1.00D-09  EORDER  =  1.00D-04
 ENERGY  =  1.00D-10  ETEST   =  0.00D+00  EDENS   =  0.00D+00  THRDEDEF=  1.00D-06  GRADIENT=  1.00D-02  STEP    =  1.00D-03
 ORBITAL =  1.00D-10  CIVEC   =  1.00D-05  COEFF   =  1.00D-04  PRINTCI =  5.00D-02  PUNCHCI =  9.90D+01  OPTGRAD =  1.00D-06
 OPTENERG=  1.00D-06  OPTSTEP =  3.00D-04  THRGRAD =  1.00D-10  COMPRESS=  1.00D-13  VARMIN  =  1.00D-07  VARMAX  =  1.00D-03
 THRDOUB =  0.00D+00  THRDIV  =  1.00D-05  THRRED  =  1.00D-07  THRPSP  =  1.00D+00  THRDC   =  1.00D-10  THRCS   =  1.00D-10
 THRNRM  =  1.00D-08  THREQ   =  0.00D+00  THRDE   =  1.00D+00  THRREF  =  1.00D-05  SPARFAC =  1.00D+00  THRDLP  =  1.00D-07
 THRDIA  =  1.00D-10  THRDLS  =  1.00D-07  THRGPS  =  0.00D+00  THRKEX  =  0.00D+00  THRDIS  =  2.00D-01  THRVAR  =  1.00D-10
 THRLOC  =  1.00D-06  THRGAP  =  1.00D-06  THRLOCT = -1.00D+00  THRGAPT = -1.00D+00  THRORB  =  1.00D-06  THRMLTP =  0.00D+00
 THRCPQCI=  1.00D-10  KEXTA   =  0.00D+00  THRCOARS=  0.00D+00  SYMTOL  =  1.00D-06  GRADTOL =  1.00D-06  THROVL  =  1.00D-08
 THRORTH =  1.00D-08  GRID    =  1.00D-06  GRIDMAX =  1.00D-03  DTMAX   =  0.00D+00

 SETTING GEOMTYP        =    XYZ
 ZUNIT=BOHR
 

 Variable memory set to 1000000000 words,  buffer space   230000 words

 SETTING BASIS          =    CC-PVTZ


 Recomputing integrals since basis changed


 Using spherical harmonics

 Library entry C      S cc-pVTZ              selected for orbital group  1
 Library entry C      P cc-pVTZ              selected for orbital group  1
 Library entry C      D cc-pVTZ              selected for orbital group  1
 Library entry C      F cc-pVTZ              selected for orbital group  1
 Library entry O      S cc-pVTZ              selected for orbital group  2
 Library entry O      P cc-pVTZ              selected for orbital group  2
 Library entry O      D cc-pVTZ              selected for orbital group  2
 Library entry O      F cc-pVTZ              selected for orbital group  2
 Library entry H      S cc-pVTZ              selected for orbital group  3
 Library entry H      P cc-pVTZ              selected for orbital group  3
 Library entry H      D cc-pVTZ              selected for orbital group  3

1PROGRAM * SEWARD (Integral evaluation for generally contracted gaussian basis sets)     Author: Roland Lindh, 1990

 Geometry written to block  1 of record 700


 Point group  C1  



 ATOMIC COORDINATES

 NR  ATOM    CHARGE       X              Y              Z

   1  C       6.00   -3.101340515    1.587708472    0.020063475
   2  C       6.00   -0.862950233   -0.070904331   -0.656921194
   3  C       6.00   -1.117737659   -2.780404596    0.245061587
   4  O       8.00    1.311494083    1.104951945    0.589111177
   5  O       8.00    3.449199163    0.120057902   -0.251822121
   6  H       1.00   -4.809616821    0.842937563   -0.863267923
   7  H       1.00   -2.796850675    3.519971466   -0.626477042
   8  H       1.00   -3.404799524    1.584694799    2.060989274
   9  H       1.00   -0.461922793   -0.004023070   -2.678878452
  10  H       1.00   -2.709614872   -3.685073927   -0.705655007
  11  H       1.00   -1.476147842   -2.834480083    2.277404795
  12  H       1.00    0.614137577   -3.820347844   -0.152088318

 Bond lengths in Bohr (Angstrom)

 1-2  2.867001174  1-6  2.062320538  1-7  2.060186638  1-8  2.063364866  2-3  2.867033529
     ( 1.517151679)     ( 1.091333026)     ( 1.090203815)     ( 1.091885661)     ( 1.517168801)

  2- 4  2.768292385   2- 9  2.062427517   3-10  2.063095175   3-11  2.064412975   3-12  2.058786497
       ( 1.464917238)       ( 1.091389637)       ( 1.091742946)       ( 1.092440296)       ( 1.089462892)

 4-5  2.499393546
     ( 1.322622101)

 Bond angles

  1-2-3  113.76962644   1-2-4  105.14392939   1-2-9  111.37970679   2-1-6  109.67288975

  2- 1- 7  110.67710034   2- 1- 8  110.33697457   2- 3-10  109.75511721   2- 3-11  110.48127093

  2- 3-12  109.99413902   2- 4- 5  110.67066474   3- 2- 4  109.24556327   3- 2- 9  110.87669515

  4-2-9  105.94827802   6-1-7  109.06952699   6-1-8  107.53640227   7-1-8  109.48254884

 10- 3-11  107.95175455  10- 3-12  109.79671629  11- 3-12  108.82766008

 NUCLEAR CHARGE:                   41
 NUMBER OF PRIMITIVE AOS:         354
 NUMBER OF SYMMETRY AOS:          322
 NUMBER OF CONTRACTIONS:          248   ( 248A   )
 NUMBER OF CORE ORBITALS:           5   (   5A   )
 NUMBER OF VALENCE ORBITALS:       27   (  27A   )


 NUCLEAR REPULSION ENERGY  186.62199770


 Eigenvalues of metric

         1 0.811E-03 0.958E-03 0.110E-02 0.124E-02 0.136E-02 0.151E-02 0.160E-02 0.164E-02


 Contracted 2-electron integrals neglected if value below      1.0D-16
 AO integral compression algorithm  1   Integral accuracy      1.0D-16

     3371.958 MB (compressed) written to integral file ( 82.1%)

     Node minimum: 1115.947 MB, node maximum: 1135.608 MB


 NUMBER OF SORTED TWO-ELECTRON INTEGRALS:  158903334.     BUFFER LENGTH:  32768
 NUMBER OF SEGMENTS:  10  SEGMENT LENGTH:   15997437      RECORD LENGTH: 524288

 Memory used in sort:      16.55 MW

 SORT1 READ   513526572. AND WROTE   152626281. INTEGRALS IN    442 RECORDS. CPU TIME:    23.95 SEC, REAL TIME:    29.68 SEC
 SORT2 READ   459376759. AND WROTE   476679126. INTEGRALS IN  12822 RECORDS. CPU TIME:     1.66 SEC, REAL TIME:    17.61 SEC

 Node minimum:   158882750.  Node maximum:   158903334. integrals

 OPERATOR DM      FOR CENTER  0  COORDINATES:    0.000000    0.000000    0.000000


 **********************************************************************************************************************************
 DATASETS  * FILE   NREC   LENGTH (MB)   RECORD NAMES
              1      18        5.04       500      610      700      900      950      970     1000      129      960     1100   
                                          VAR    BASINP    GEOM    SYMINP    ZMAT    AOBASIS   BASIS     P2S    ABASIS      S 
                                         1400     1410     1200     1210     1080     1600     1650     1700   
                                           T        V       H0       H01     AOSYM     SMH    MOLCAS    OPER   

 PROGRAMS   *        TOTAL       INT
 CPU TIMES  *        32.34     32.27
 REAL TIME  *        55.46 SEC
 DISK USED  *         8.83 GB      
 GA USED    *         0.01 MB       (max)       0.00 MB       (current)
 **********************************************************************************************************************************

1PROGRAM * RHF-SCF (OPEN SHELL)       Authors: W. Meyer, H.-J. Werner


 NUMBER OF ELECTRONS:      21+   20-    SPACE SYMMETRY=1    SPIN SYMMETRY: Doublet 
 CONVERGENCE THRESHOLDS:    1.00E-10 (Density)    1.00E-11 (Energy)
 MAX. NUMBER OF ITERATIONS:      200
 INTERPOLATION TYPE:            DIIS
 INTERPOLATION STEPS:              2 (START)      1 (STEP)
 LEVEL SHIFTS:                 -0.30 (CLOSED)  0.00 (OPEN) 



 Orbital guess generated from atomic densities. Full valence occupancy:   32

 Molecular orbital dump at record        2100.2

 ITERATION    DDIFF          GRAD             ENERGY        2-EL.EN.            DIPOLE MOMENTS         DIIS
    1      0.000D+00      0.000D+00      -267.26094166    559.783381   -1.77666   -0.07025   -0.09249    0
    2      0.000D+00      0.326D-02      -267.33454541    562.636313   -1.01636   -0.43133   -0.35609    1
    3      0.471D-02      0.230D-02      -267.36106917    561.589034   -1.18973   -0.24304   -0.21406    2
    4      0.211D-02      0.546D-03      -267.36930464    561.775691   -0.97821   -0.31603   -0.29526    3
    5      0.926D-03      0.485D-03      -267.37352847    561.818387   -0.92263   -0.31815   -0.29966    4
    6      0.583D-03      0.272D-03      -267.37545330    561.785570   -0.88129   -0.31154   -0.29766    5
    7      0.485D-03      0.133D-03      -267.37578988    561.771497   -0.89122   -0.30003   -0.28959    6
    8      0.258D-03      0.357D-04      -267.37581180    561.768724   -0.89079   -0.29672   -0.28809    7
    9      0.850D-04      0.190D-04      -267.37582288    561.768963   -0.89333   -0.29727   -0.28814    8
   10      0.450D-04      0.823D-05      -267.37582470    561.768861   -0.89449   -0.29663   -0.28785    9
   11      0.199D-04      0.320D-05      -267.37582495    561.768808   -0.89513   -0.29647   -0.28769    9
   12      0.780D-05      0.147D-05      -267.37582501    561.769034   -0.89527   -0.29657   -0.28773    9
   13      0.366D-05      0.524D-06      -267.37582502    561.769088   -0.89528   -0.29663   -0.28776    9
   14      0.148D-05      0.294D-06      -267.37582502    561.769087   -0.89527   -0.29664   -0.28776    9
   15      0.817D-06      0.145D-06      -267.37582502    561.769095   -0.89526   -0.29665   -0.28776    9
   16      0.421D-06      0.737D-07      -267.37582502    561.769098   -0.89526   -0.29665   -0.28776    9
   17      0.194D-06      0.392D-07      -267.37582502    561.769093   -0.89525   -0.29665   -0.28776    9
   18      0.155D-06      0.270D-07      -267.37582502    561.769091   -0.89526   -0.29665   -0.28776    9
   19      0.106D-06      0.196D-07      -267.37582502    561.769094   -0.89525   -0.29665   -0.28776    9
   20      0.139D-06      0.161D-07      -267.37582502    561.769093   -0.89525   -0.29665   -0.28776    9
   21      0.178D-06      0.121D-07      -267.37582502    561.769094   -0.89525   -0.29665   -0.28776    9
   22      0.208D-06      0.849D-08      -267.37582502    561.769097   -0.89525   -0.29665   -0.28776    9
   23      0.165D-06      0.406D-08      -267.37582502    561.769097   -0.89525   -0.29665   -0.28776    9
   24      0.714D-07      0.222D-08      -267.37582502    561.769097   -0.89525   -0.29665   -0.28776    9
   25      0.229D-07      0.953D-09      -267.37582502    561.769097   -0.89525   -0.29665   -0.28776    9
   26      0.991D-08      0.392D-09      -267.37582502    561.769097   -0.89525   -0.29665   -0.28776    9
   27      0.119D-08      0.181D-09      -267.37582502    561.769097   -0.89525   -0.29665   -0.28776    9
   28      0.592D-09      0.924D-10      -267.37582502    561.769097   -0.89525   -0.29665   -0.28776    9
   29      0.431D-09      0.510D-10      -267.37582502    561.769097   -0.89525   -0.29665   -0.28776    9
   30      0.244D-09      0.250D-10      -267.37582502    561.769097   -0.89525   -0.29665   -0.28776    9
   31      0.810D-10      0.246D-10      -267.37582502    561.769097   -0.89525   -0.29665   -0.28776    0

 Final alpha occupancy:  21
 Final beta  occupancy:  20

 !RHF STATE 1.1 Energy               -267.375825019946
 Nuclear energy                       186.62199770
 One-electron energy                 -734.88237120
 Two-electron energy                  280.88454847
 Virial quotient                       -1.00117255
 !RHF STATE 1.1 Dipole moment          -0.89525236    -0.29664888    -0.28776196
 Dipole moment /Debye                  -2.27535548    -0.75395686    -0.73137004

 Orbital energies:

         1.1          2.1          3.1          4.1          5.1          6.1          7.1          8.1          9.1         10.1
    -20.648781   -20.640532   -11.297514   -11.229125   -11.225447    -1.523727    -1.170912    -1.034468    -0.952737    -0.819569

        11.1         12.1         13.1         14.1         15.1         16.1         17.1         18.1         19.1         20.1
     -0.695078    -0.668049    -0.652501    -0.595788    -0.563054    -0.557124    -0.544813    -0.500512    -0.490147    -0.465268

        21.1         22.1         23.1
     -0.562983     0.137585     0.174633


 **********************************************************************************************************************************
 DATASETS  * FILE   NREC   LENGTH (MB)   RECORD NAMES
              1      18        5.04       500      610      700      900      950      970     1000      129      960     1100   
                                          VAR    BASINP    GEOM    SYMINP    ZMAT    AOBASIS   BASIS     P2S    ABASIS      S 
                                         1400     1410     1200     1210     1080     1600     1650     1700   
                                           T        V       H0       H01     AOSYM     SMH    MOLCAS    OPER   

              2       3        2.21       700     1000     2100   
                                         GEOM     BASIS     RHF  

 PROGRAMS   *        TOTAL       RHF       INT
 CPU TIMES  *        76.78     44.44     32.27
 REAL TIME  *       103.88 SEC
 DISK USED  *         8.87 GB      
 SF USED    *         0.25 MB      
 GA USED    *         0.01 MB       (max)       0.00 MB       (current)
 **********************************************************************************************************************************


1PROGRAM * CCSD (Unrestricted open-shell coupled cluster)     Authors: C. Hampel, H.-J. Werner, 1991, M. Deegan, P.J. Knowles, 1992


 Convergence thresholds:  THRVAR = 1.00D-08  THRDEN = 1.00D-10

 CCSD(T)     terms to be evaluated (factor= 1.000)


 Number of core orbitals:           5 (   5 )
 Number of closed-shell orbitals:  15 (  15 )
 Number of active  orbitals:        1 (   1 )
 Number of external orbitals:     227 ( 227 )

 Memory could be reduced to 332.02 Mwords without degradation in triples

 Number of N-1 electron functions:              31
 Number of N-2 electron functions:             465
 Number of singly external CSFs:              7068
 Number of doubly external CSFs:          18353430
 Total number of CSFs:                    18360498

 Molecular orbitals read from record     2100.2  Type=RHF/CANONICAL (state 1.1)

 Integral transformation finished. Total CPU:  27.03 sec, npass=  1  Memory used: 145.25 MW

 Starting RMP2 calculation

 ITER.      SQ.NORM     CORR.ENERGY   TOTAL ENERGY   ENERGY CHANGE        DEN1      VAR(S)    VAR(P)  DIIS     TIME
   1      1.26539663    -0.96763255  -268.34345757    -0.96763255    -0.00323781  0.26D-04  0.11D-02  1  1    31.02
   2      1.26818312    -0.97112372  -268.34694874    -0.00349117    -0.00000667  0.10D-05  0.23D-05  2  2    34.34
   3      1.26826316    -0.97117669  -268.34700171    -0.00005297    -0.00000008  0.54D-07  0.11D-07  3  3    37.58
   4      1.26826487    -0.97117649  -268.34700151     0.00000019    -0.00000000  0.16D-08  0.12D-09  4  4    41.27
   5      1.26826513    -0.97117658  -268.34700160    -0.00000009    -0.00000000  0.19D-10  0.46D-11  5  5    45.16
   6      1.26826519    -0.97117661  -268.34700163    -0.00000003    -0.00000000  0.50D-13  0.56D-13  6  6    49.03
   7      1.26826519    -0.97117661  -268.34700163     0.00000000    -0.00000000  0.15D-14  0.86D-15  6  1    52.77
   8      1.26826519    -0.97117661  -268.34700163     0.00000000    -0.00000000  0.15D-16  0.80D-17  6  2    56.56
   9      1.26826519    -0.97117661  -268.34700163    -0.00000000    -0.00000000  0.32D-18  0.10D-18  6  3    60.28

 Norm of t1 vector:      0.04589708      S-energy:    -0.00446804      T1 diagnostic:  0.00074428
 Norm of t2 vector:      0.51590566      P-energy:    -0.96670857
                                         Alpha-Beta:  -0.73710693
                                         Alpha-Alpha: -0.11899036
                                         Beta-Beta:   -0.11061129

 Spin contamination <S**2-Sz**2-Sz>     0.00145441
  Reference energy                   -267.375825019949
  RHF-RMP2 correlation energy          -0.971176612535
 !RHF-RMP2 energy                    -268.347001632484

 Starting UCCSD calculation

 ITER.      SQ.NORM     CORR.ENERGY   TOTAL ENERGY   ENERGY CHANGE        DEN1      VAR(S)    VAR(P)  DIIS     TIME
   1      1.27987157    -0.97929289  -268.35511791    -0.97929289    -0.02933341  0.65D-02  0.54D-02  1  1   142.04
   2      1.30628063    -1.00591939  -268.38174441    -0.02662650    -0.00363532  0.62D-03  0.97D-03  2  2   224.22
   3      1.32293270    -1.01274482  -268.38856984    -0.00682544    -0.00091232  0.75D-03  0.76D-04  3  3   307.17
   4      1.33417314    -1.01540424  -268.39122926    -0.00265941    -0.00038541  0.31D-03  0.33D-04  4  4   390.03
   5      1.34925077    -1.01740205  -268.39322707    -0.00199781    -0.00011809  0.10D-03  0.90D-05  5  5   473.12
   6      1.36078635    -1.01842532  -268.39425034    -0.00102327    -0.00001818  0.93D-05  0.32D-05  6  6   555.92
   7      1.36448812    -1.01866665  -268.39449167    -0.00024133    -0.00000317  0.16D-05  0.61D-06  6  1   674.37
   8      1.36509355    -1.01870893  -268.39453395    -0.00004228    -0.00000067  0.27D-06  0.15D-06  6  2   772.22
   9      1.36541472    -1.01872747  -268.39455249    -0.00001853    -0.00000015  0.66D-07  0.32D-07  6  4   885.65
  10      1.36540092    -1.01872618  -268.39455120     0.00000129    -0.00000002  0.11D-07  0.43D-08  6  3   985.91
  11      1.36546340    -1.01873127  -268.39455629    -0.00000509    -0.00000001  0.27D-08  0.95D-09  6  5  1089.73
  12      1.36545600    -1.01872878  -268.39455380     0.00000248    -0.00000000  0.13D-08  0.22D-09  6  6  1190.17
  13      1.36545172    -1.01872763  -268.39455265     0.00000115    -0.00000000  0.84D-09  0.65D-10  6  1  1290.58
  14      1.36543861    -1.01872610  -268.39455112     0.00000153    -0.00000000  0.59D-09  0.30D-10  6  2  1389.56
  15      1.36543193    -1.01872529  -268.39455031     0.00000080    -0.00000000  0.48D-09  0.24D-10  6  3  1498.22
  16      1.36542851    -1.01872512  -268.39455014     0.00000018    -0.00000000  0.34D-09  0.19D-10  6  4  1594.01
  17      1.36542833    -1.01872517  -268.39455019    -0.00000006    -0.00000000  0.15D-09  0.19D-10  6  5  1676.32
  18      1.36543196    -1.01872540  -268.39455042    -0.00000023    -0.00000000  0.30D-10  0.66D-11  6  6  1759.33
  19      1.36543548    -1.01872576  -268.39455078    -0.00000035    -0.00000000  0.25D-11  0.18D-11  6  2  1842.72
  20      1.36543496    -1.01872562  -268.39455064     0.00000013    -0.00000000  0.60D-12  0.17D-12  6  1  1925.26
  21      1.36543526    -1.01872567  -268.39455069    -0.00000004    -0.00000000  0.20D-12  0.61D-13  6  4  2008.12
  22      1.36543524    -1.01872567  -268.39455069     0.00000000    -0.00000000  0.61D-13  0.13D-13  6  3  2090.80
  23      1.36543527    -1.01872567  -268.39455069    -0.00000001    -0.00000000  0.18D-13  0.57D-14  6  6  2173.56
  24      1.36543528    -1.01872567  -268.39455069     0.00000000    -0.00000000  0.41D-14  0.10D-14  6  5  2256.51
  25      1.36543528    -1.01872567  -268.39455069     0.00000000    -0.00000000  0.88D-15  0.28D-15  6  1  2339.12
  26      1.36543530    -1.01872567  -268.39455069    -0.00000000    -0.00000000  0.15D-15  0.53D-16  6  2  2421.64
  27      1.36543530    -1.01872567  -268.39455069    -0.00000000    -0.00000000  0.43D-16  0.16D-16  6  3  2504.48

 Norm of t1 vector:      0.23124307      S-energy:    -0.00501536      T1 diagnostic:  0.02849501
                                                                       D1 diagnostic:  0.14603892
 Norm of t2 vector:      0.55853554      P-energy:    -1.01371031
                                         Alpha-Beta:  -0.80140743
                                         Alpha-Alpha: -0.10868231
                                         Beta-Beta:   -0.10362057

 Singles amplitudes (print threshold =  0.500E-01):

         I         SYM. A    A   T(IA) [Beta-Beta]

         8         1         1     -0.09637818
         9         1         1      0.09754684
        11         1         1     -0.06302747
        12         1         1     -0.06786219
        14         1         1     -0.11264328

 Spin contamination <S**2-Sz**2-Sz>     0.00176192

 Memory could be reduced to 360.52 Mwords without degradation in triples
 

 RESULTS
 =======

  Reference energy                   -267.375825019949
  UCCSD singles energy                 -0.005015359715
  UCCSD pair energy                    -1.013710312355
  UCCSD correlation energy             -1.018725672070
  Triples (T) contribution             -0.040841897859
  Total correlation energy             -1.059567569928
 
  RHF-UCCSD energy                   -268.394550692019
  RHF-UCCSD[T] energy                -268.438714279193
  RHF-UCCSD-T energy                 -268.434895198819
 !RHF-UCCSD(T) energy                -268.435392589877

 Program statistics:

 Available memory in ccsd:               999997692
 Min. memory needed in ccsd:              51505734
 Max. memory used in ccsd:                74803578
 Max. memory used in cckext:              59475747 (27 integral passes)
 Max. memory used in cckint:             145249478 ( 1 integral passes)



 **********************************************************************************************************************************
 DATASETS  * FILE   NREC   LENGTH (MB)   RECORD NAMES
              1      18        5.04       500      610      700      900      950      970     1000      129      960     1100   
                                          VAR    BASINP    GEOM    SYMINP    ZMAT    AOBASIS   BASIS     P2S    ABASIS      S 
                                         1400     1410     1200     1210     1080     1600     1650     1700   
                                           T        V       H0       H01     AOSYM     SMH    MOLCAS    OPER   

              2       3        2.21       700     1000     2100   
                                         GEOM     BASIS     RHF  

 PROGRAMS   *        TOTAL  UCCSD(T)       RHF       INT
 CPU TIMES  *      4169.07   4092.29     44.44     32.27
 REAL TIME  *      4312.52 SEC
 DISK USED  *        15.85 GB      
 SF USED    *         6.57 GB      
 GA USED    *         0.01 MB       (max)       0.00 MB       (current)
 **********************************************************************************************************************************

        UCCSD(T)        RHF-SCF 
   -268.43539259   -267.37582502
 **********************************************************************************************************************************
 Variable memory released
