
 Primary working directories    : /tmp/601555.106.gen4.q
 Secondary working directories  : /tmp/601555.106.gen4.q
 Wavefunction directory         : /home/vulcan/mel64643/wfu/
 Main file repository           : /tmp/601555.106.gen4.q/

 ARCHNAME  : Linux/x86_64
 FC        : /opt/intel/compilers_and_libraries_2016.1.150/linux/bin/intel64/ifort
 FCVERSION : 16.0.1
 BLASLIB   : -mkl
 id        : ccgc

 Nodes     nprocs
 n046         1
 ga_uses_ma=false, calling ma_init with nominal heap.
 GA-space will be limited to   8.0 MW (determined by -G option)

 Using customized tuning parameters: mindgm=10; mindgv=16; mindgc=4; mindgr=1; noblas=0; mincuda=1000; minvec=7
 default implementation of scratch files=df  

 ***,Optimization of min3
 memory,1000,m
 gthresh,energy=1.0d-12,orbital=1.0d-10,oneint=1.0d-16,twoint=1.0d-16,optgrad=1.0d-6,compress=1.0d-13
 geomtyp=xyz
 
  bohr
  geometry = {
  6
  arbitrary comment
  C   -1.3754440024   -0.0257081272    0.0000003721
  O    1.3115340499    0.1225200033    0.0000003051
  H   -2.0788074345    1.9149172047   -0.0000802784
  H   -2.1101473058   -0.9819739530    1.6765956706
  H   -2.1101403427   -0.9821045199   -1.6765231812
  H    1.9392808755   -1.5777827280   -0.0000012982
 }
 
 basis=cc-pvdz
 {rhf;maxit,200}
 {ccsd(t);maxit,200}

 Variables initialized (661), CPU time= 0.00 sec
 Commands  initialized (458), CPU time= 0.00 sec, 486 directives.
 Default parameters read. Elapsed time= 0.06 sec

 Checking input...
 Passed
1


                                         ***  PROGRAM SYSTEM MOLPRO  ***
                         Copyright, University College Cardiff Consultants Limited, 2008

                                    Version 2010.1 linked May 16 2016 07:17:05


 **********************************************************************************************************************************
 LABEL *   Optimization of min3                                                          
 Linux-4.4.3/n046(x86_64) 64 bit mpp version                                             DATE: 06-Nov-21          TIME: 15:40:01  
 **********************************************************************************************************************************

 SHA1:             9e8077add272b0f3cad6f7df79ec5211205f459d
 **********************************************************************************************************************************

 THRESHOLDS:

 ZERO    =  1.00D-12  ONEINT  =  1.00D-16  TWOINT  =  1.00D-16  PREFAC  =  1.00D-14  LOCALI  =  1.00D-09  EORDER  =  1.00D-04
 ENERGY  =  1.00D-12  ETEST   =  0.00D+00  EDENS   =  0.00D+00  THRDEDEF=  1.00D-06  GRADIENT=  1.00D-02  STEP    =  1.00D-03
 ORBITAL =  1.00D-10  CIVEC   =  1.00D-05  COEFF   =  1.00D-04  PRINTCI =  5.00D-02  PUNCHCI =  9.90D+01  OPTGRAD =  1.00D-06
 OPTENERG=  1.00D-06  OPTSTEP =  3.00D-04  THRGRAD =  1.00D-10  COMPRESS=  1.00D-13  VARMIN  =  1.00D-07  VARMAX  =  1.00D-03
 THRDOUB =  0.00D+00  THRDIV  =  1.00D-05  THRRED  =  1.00D-07  THRPSP  =  1.00D+00  THRDC   =  1.00D-10  THRCS   =  1.00D-10
 THRNRM  =  1.00D-08  THREQ   =  0.00D+00  THRDE   =  1.00D+00  THRREF  =  1.00D-05  SPARFAC =  1.00D+00  THRDLP  =  1.00D-07
 THRDIA  =  1.00D-10  THRDLS  =  1.00D-07  THRGPS  =  0.00D+00  THRKEX  =  0.00D+00  THRDIS  =  2.00D-01  THRVAR  =  1.00D-10
 THRLOC  =  1.00D-06  THRGAP  =  1.00D-06  THRLOCT = -1.00D+00  THRGAPT = -1.00D+00  THRORB  =  1.00D-06  THRMLTP =  0.00D+00
 THRCPQCI=  1.00D-10  KEXTA   =  0.00D+00  THRCOARS=  0.00D+00  SYMTOL  =  1.00D-06  GRADTOL =  1.00D-06  THROVL  =  1.00D-08
 THRORTH =  1.00D-08  GRID    =  1.00D-06  GRIDMAX =  1.00D-03  DTMAX   =  0.00D+00

 SETTING GEOMTYP        =    XYZ
 ZUNIT=BOHR
 

 Variable memory set to 1000000000 words,  buffer space   230000 words

 SETTING BASIS          =    CC-PVDZ


 Recomputing integrals since basis changed


 Using spherical harmonics

 Library entry C      S cc-pVDZ              selected for orbital group  1
 Library entry C      P cc-pVDZ              selected for orbital group  1
 Library entry C      D cc-pVDZ              selected for orbital group  1
 Library entry O      S cc-pVDZ              selected for orbital group  2
 Library entry O      P cc-pVDZ              selected for orbital group  2
 Library entry O      D cc-pVDZ              selected for orbital group  2
 Library entry H      S cc-pVDZ              selected for orbital group  3
 Library entry H      P cc-pVDZ              selected for orbital group  3

1PROGRAM * SEWARD (Integral evaluation for generally contracted gaussian basis sets)     Author: Roland Lindh, 1990

 Geometry written to block  1 of record 700


 Point group  C1  



 ATOMIC COORDINATES

 NR  ATOM    CHARGE       X              Y              Z

   1  C       6.00   -1.375444002   -0.025708127    0.000000372
   2  O       8.00    1.311534050    0.122520003    0.000000305
   3  H       1.00   -2.078807434    1.914917205   -0.000080278
   4  H       1.00   -2.110147306   -0.981973953    1.676595671
   5  H       1.00   -2.110140343   -0.982104520   -1.676523181
   6  H       1.00    1.939280875   -1.577782728   -0.000001298

 Bond lengths in Bohr (Angstrom)

 1-2  2.691063476  1-3  2.064157650  1-4  2.065237291  1-5  2.065237032  2-6  1.812483229
     ( 1.424049460)     ( 1.092305184)     ( 1.092876506)     ( 1.092876368)     ( 0.959124816)

 Bond angles

  1-2-6  107.10645717   2-1-3  106.76508301   2-1-4  112.37779280   2-1-5  112.37780044

  3-1-4  108.30825848   3-1-5  108.30808884   4-1-5  108.54433232

 NUCLEAR CHARGE:                   18
 NUMBER OF PRIMITIVE AOS:          82
 NUMBER OF SYMMETRY AOS:           80
 NUMBER OF CONTRACTIONS:           48   (  48A   )
 NUMBER OF CORE ORBITALS:           2   (   2A   )
 NUMBER OF VALENCE ORBITALS:       12   (  12A   )


 NUCLEAR REPULSION ENERGY   40.26202713


 Eigenvalues of metric

         1 0.968E-02 0.177E-01 0.370E-01 0.372E-01 0.383E-01 0.474E-01 0.476E-01 0.520E-01


 Contracted 2-electron integrals neglected if value below      1.0D-16
 AO integral compression algorithm  1   Integral accuracy      1.0D-16

     6.291 MB (compressed) written to integral file ( 98.3%)

     Node minimum: 6.291 MB, node maximum: 6.291 MB


 NUMBER OF SORTED TWO-ELECTRON INTEGRALS:     692076.     BUFFER LENGTH:  32768
 NUMBER OF SEGMENTS:   1  SEGMENT LENGTH:     692076      RECORD LENGTH: 524288

 Memory used in sort:       1.25 MW

 SORT1 READ      832256. AND WROTE      682148. INTEGRALS IN      2 RECORDS. CPU TIME:     0.01 SEC, REAL TIME:     0.01 SEC
 SORT2 READ      682148. AND WROTE      692076. INTEGRALS IN     24 RECORDS. CPU TIME:     0.02 SEC, REAL TIME:     0.02 SEC

 FILE SIZES:   FILE 1:     8.0 MBYTE,  FILE 4:     8.4 MBYTE,   TOTAL:     16.4 MBYTE

 OPERATOR DM      FOR CENTER  0  COORDINATES:    0.000000    0.000000    0.000000


 **********************************************************************************************************************************
 DATASETS  * FILE   NREC   LENGTH (MB)   RECORD NAMES
              1      19        8.03       500      610      700      900      950      970     1000      129      960     1100   
                                          VAR    BASINP    GEOM    SYMINP    ZMAT    AOBASIS   BASIS     P2S    ABASIS      S 
                                         1400     1410     1200     1210     1080     1600     1650     1300     1700   
                                           T        V       H0       H01     AOSYM     SMH    MOLCAS    ERIS     OPER   

 PROGRAMS   *        TOTAL       INT
 CPU TIMES  *         0.30      0.26
 REAL TIME  *         0.51 SEC
 DISK USED  *        23.34 MB      
 GA USED    *         0.00 MB       (max)       0.00 MB       (current)
 **********************************************************************************************************************************

1PROGRAM * RHF-SCF (CLOSED SHELL)       Authors: W. Meyer, H.-J. Werner


 NUMBER OF ELECTRONS:       9+    9-    SPACE SYMMETRY=1    SPIN SYMMETRY: Singlet 
 CONVERGENCE THRESHOLDS:    1.00E-10 (Density)    1.00E-13 (Energy)
 MAX. NUMBER OF ITERATIONS:      200
 INTERPOLATION TYPE:            DIIS
 INTERPOLATION STEPS:              2 (START)      1 (STEP)
 LEVEL SHIFTS:                  0.00 (CLOSED)  0.00 (OPEN) 



 Orbital guess generated from atomic densities. Full valence occupancy:   14

 Molecular orbital dump at record        2100.2

 ITERATION    DDIFF          GRAD             ENERGY        2-EL.EN.            DIPOLE MOMENTS         DIIS
    1      0.000D+00      0.000D+00      -115.01408042    164.293515   -0.50413   -0.90200   -0.00000    0
    2      0.000D+00      0.110D-01      -115.04243099    162.083903   -0.32243   -0.53743   -0.00000    1
    3      0.205D-01      0.531D-02      -115.04849153    163.105715   -0.40681   -0.61339   -0.00000    2
    4      0.640D-02      0.112D-02      -115.04895588    162.950178   -0.39641   -0.60255   -0.00000    3
    5      0.204D-02      0.202D-03      -115.04897701    162.956540   -0.39920   -0.59837   -0.00000    4
    6      0.434D-03      0.355D-04      -115.04897781    162.956662   -0.39950   -0.59819   -0.00000    5
    7      0.932D-04      0.738D-05      -115.04897784    162.955475   -0.39963   -0.59803   -0.00000    6
    8      0.151D-04      0.237D-05      -115.04897785    162.955858   -0.39966   -0.59801   -0.00000    7
    9      0.503D-05      0.490D-06      -115.04897785    162.955817   -0.39968   -0.59801   -0.00000    6
   10      0.141D-05      0.861D-07      -115.04897785    162.955815   -0.39968   -0.59801   -0.00000    6
   11      0.232D-06      0.322D-07      -115.04897785    162.955821   -0.39968   -0.59801   -0.00000    6
   12      0.579D-07      0.133D-07      -115.04897785    162.955819   -0.39968   -0.59801   -0.00000    7
   13      0.247D-07      0.297D-08      -115.04897785    162.955819   -0.39968   -0.59801   -0.00000    7
   14      0.742D-08      0.649D-09      -115.04897785    162.955819   -0.39968   -0.59801   -0.00000    7
   15      0.167D-08      0.149D-09      -115.04897785    162.955819   -0.39968   -0.59801   -0.00000    7
   16      0.331D-09      0.445D-10      -115.04897785    162.955819   -0.39968   -0.59801   -0.00000    7
   17      0.871D-10      0.160D-10      -115.04897785    162.955819   -0.39968   -0.59801   -0.00000    7
   18      0.411D-10      0.290D-11      -115.04897785    162.955819   -0.39968   -0.59801   -0.00000    7
   19      0.683D-11      0.644D-12      -115.04897785    162.955819   -0.39968   -0.59801   -0.00000    7
   20      0.161D-11      0.283D-12      -115.04897785    162.955819   -0.39968   -0.59801   -0.00000    7
   21      0.511D-12      0.716D-13      -115.04897785    162.955819   -0.39968   -0.59801   -0.00000    7
   22      0.168D-12      0.214D-13      -115.04897785    162.955819   -0.39968   -0.59801   -0.00000    7
   23      0.660D-13      0.100D-13      -115.04897785    162.955819   -0.39968   -0.59801   -0.00000    8
   24      0.249D-13      0.824D-14      -115.04897785    162.955819   -0.39968   -0.59801   -0.00000    0

 Final occupancy:   9

 !RHF STATE 1.1 Energy               -115.048977845587
 Nuclear energy                        40.26202713
 One-electron energy                 -236.78891462
 Two-electron energy                   81.47790964
 Virial quotient                       -1.00096909
 !RHF STATE 1.1 Dipole moment          -0.39968032    -0.59800641    -0.00000274
 Dipole moment /Debye                  -1.01581952    -1.51988114    -0.00000696

 Orbital energies:

         1.1          2.1          3.1          4.1          5.1          6.1          7.1          8.1          9.1         10.1
    -20.550168   -11.274960    -1.349086    -0.921393    -0.682613    -0.613411    -0.583454    -0.497847    -0.443615     0.184515

        11.1
      0.224408


 **********************************************************************************************************************************
 DATASETS  * FILE   NREC   LENGTH (MB)   RECORD NAMES
              1      19        8.03       500      610      700      900      950      970     1000      129      960     1100   
                                          VAR    BASINP    GEOM    SYMINP    ZMAT    AOBASIS   BASIS     P2S    ABASIS      S 
                                         1400     1410     1200     1210     1080     1600     1650     1300     1700   
                                           T        V       H0       H01     AOSYM     SMH    MOLCAS    ERIS     OPER   

              2       3        0.39       700     1000     2100   
                                         GEOM     BASIS     RHF  

 PROGRAMS   *        TOTAL       RHF       INT
 CPU TIMES  *         0.42      0.12      0.26
 REAL TIME  *         0.68 SEC
 DISK USED  *        23.34 MB      
 GA USED    *         0.00 MB       (max)       0.00 MB       (current)
 **********************************************************************************************************************************


1PROGRAM * CCSD (Closed-shell coupled cluster)     Authors: C. Hampel, H.-J. Werner, 1991, M. Deegan, P.J. Knowles, 1992


 Convergence thresholds:  THRVAR = 1.00D-08  THRDEN = 1.00D-12

 CCSD(T)     terms to be evaluated (factor= 1.000)


 Number of core orbitals:           2 (   2 )
 Number of closed-shell orbitals:   7 (   7 )
 Number of external orbitals:      39 (  39 )

 Molecular orbitals read from record     2100.2  Type=RHF/CANONICAL (state 1.1)

 Number of N-1 electron functions:               7
 Number of N-2 electron functions:              28
 Number of singly external CSFs:               273
 Number of doubly external CSFs:             37401
 Total number of CSFs:                       37675

 Length of J-op  integral file:               0.00 MB
 Length of K-op  integral file:               0.19 MB
 Length of 3-ext integral record:             0.00 MB

 Memory could be reduced to 0.96 Mwords without degradation in triples

 Integral transformation finished. Total CPU:   0.02 sec, npass=  1  Memory used:   0.66 MW

 Reference energy:                   -115.04897785

 MP2 singlet pair energy:              -0.21873773
 MP2 triplet pair energy:              -0.11986699
 MP2 correlation energy:               -0.33860472
 MP2 total energy:                   -115.38758257

 SCS-MP2 correlation energy:           -0.33706918   (PS=  1.200000  PT=  0.333333)
 SCS-MP2 total energy:               -115.38604703

 ITER.      SQ.NORM     CORR.ENERGY   TOTAL ENERGY   ENERGY CHANGE        DEN1      VAR(S)    VAR(P)  DIIS     TIME
   1      1.10743894    -0.36139592  -115.41037376    -0.02279120    -0.01409360  0.92D-03  0.17D-02  1  1     0.06
   2      1.11598346    -0.36334329  -115.41232113    -0.00194737    -0.00926278  0.20D-04  0.16D-03  2  2     0.10
   3      1.11787679    -0.36347147  -115.41244932    -0.00012819    -0.00121047  0.96D-05  0.87D-05  3  3     0.14
   4      1.11839572    -0.36347006  -115.41244790     0.00000141    -0.00025641  0.34D-06  0.68D-06  4  4     0.17
   5      1.11849479    -0.36347046  -115.41244831    -0.00000040    -0.00003636  0.10D-06  0.50D-07  5  5     0.21
   6      1.11851401    -0.36346909  -115.41244693     0.00000137    -0.00000439  0.16D-07  0.41D-08  6  6     0.25
   7      1.11851879    -0.36346866  -115.41244651     0.00000042    -0.00000035  0.20D-08  0.72D-09  6  1     0.29
   8      1.11852006    -0.36346877  -115.41244661    -0.00000010     0.00000075  0.26D-09  0.73D-10  6  3     0.33
   9      1.11852114    -0.36346864  -115.41244649     0.00000013    -0.00000039  0.13D-10  0.10D-10  6  2     0.37
  10      1.11852106    -0.36346864  -115.41244649    -0.00000000     0.00000007  0.11D-11  0.88D-12  6  5     0.41
  11      1.11852110    -0.36346864  -115.41244649     0.00000000    -0.00000000  0.19D-12  0.51D-13  6  4     0.45
  12      1.11852108    -0.36346864  -115.41244649    -0.00000000     0.00000001  0.19D-13  0.10D-13  6  1     0.49
  13      1.11852108    -0.36346864  -115.41244649    -0.00000000    -0.00000000  0.24D-14  0.94D-15  6  6     0.53
  14      1.11852108    -0.36346864  -115.41244649     0.00000000    -0.00000000  0.22D-15  0.12D-15  6  3     0.56
  15      1.11852108    -0.36346864  -115.41244649    -0.00000000    -0.00000000  0.25D-16  0.16D-16  6  2     0.60
  16      1.11852108    -0.36346864  -115.41244649    -0.00000000    -0.00000000  0.56D-17  0.16D-17  6  5     0.64
  17      1.11852108    -0.36346864  -115.41244649    -0.00000000    -0.00000000  0.53D-18  0.25D-18  6  4     0.68
  18      1.11852108    -0.36346864  -115.41244649     0.00000000    -0.00000000  0.82D-19  0.42D-19  6  1     0.72
  19      1.11852108    -0.36346864  -115.41244649    -0.00000000    -0.00000000  0.92D-20  0.43D-20  6  6     0.76
  20      1.11852108    -0.36346864  -115.41244649     0.00000000     0.00000000  0.13D-20  0.55D-21  6  3     0.80

 Norm of t1 vector:      0.04179424      S-energy:    -0.00000000      T1 diagnostic:  0.00789837
                                                                       D1 diagnostic:  0.01766271


 Total CPU time for triples:      0.20 sec


 RESULTS
 =======

  Reference energy                   -115.048977845587
  CCSD singlet pair energy             -0.254717701060
  CCSD triplet pair energy             -0.108750943406
  CCSD correlation energy              -0.363468644467

  Triples (T) contribution             -0.007755003892
  Total correlation energy             -0.371223648358

  CCSD total energy                  -115.412446490053
  CCSD[T] energy                     -115.420493211640
  CCSD-T energy                      -115.420050665686
 !CCSD(T) total energy               -115.420201493945

 Timing summary (sec):

 STEP                 CPU(USER)    SYS     CPU(TOT)    WALL
 Transformation          0.02      0.01      0.03      0.03
 CCSD iterations         0.78      0.05      0.83      0.87
 Triples                 0.20      0.00      0.20      0.21

 Program statistics:

 Available memory in ccsd:               999999704
 Min. memory needed in ccsd:                136801
 Max. memory used in ccsd:                  163198
 Max. memory used in cckext:                182024 (20 integral passes)



 **********************************************************************************************************************************
 DATASETS  * FILE   NREC   LENGTH (MB)   RECORD NAMES
              1      20       10.56       500      610      700      900      950      970     1000      129      960     1100   
                                          VAR    BASINP    GEOM    SYMINP    ZMAT    AOBASIS   BASIS     P2S    ABASIS      S 
                                         1400     1410     1200     1210     1080     1600     1650     1300     1700     1380   
                                           T        V       H0       H01     AOSYM     SMH    MOLCAS    ERIS     OPER     JKOP   

              2       3        0.39       700     1000     2100   
                                         GEOM     BASIS     RHF  

 PROGRAMS   *        TOTAL   CCSD(T)       RHF       INT
 CPU TIMES  *         1.43      1.01      0.12      0.26
 REAL TIME  *         1.81 SEC
 DISK USED  *        24.77 MB      
 GA USED    *         0.00 MB       (max)       0.00 MB       (current)
 **********************************************************************************************************************************

        CCSD(T)         RHF-SCF 
   -115.42020149   -115.04897785
 **********************************************************************************************************************************
 Variable memory released
