
 Working directory              : /scratch/mel64643/tmp/40073173/
 Global scratch directory       : /scratch/mel64643/tmp/40073173/
 Wavefunction directory         : /home/mel64643/wfu/
 Main file repository           : /scratch/mel64643/tmp/40073173/

 id        : ccgc

 Nodes     nprocs
 a1-8         3
 Distribution of processes:   nprocs(total)=    4   nprocs(compute)=    3   nprocs(helper)=    1
 GA implementation: MPI file
 GA implementation (serial work in mppx): MPI file

 Using customized tuning parameters: mindgm=1; mindgv=20; mindgc=4; mindgr=1; noblas=0; minvec=7
 default implementation of scratch files=sf  


 Variables initialized (1015), CPU time= 0.00 sec
 ***,Optimization of min3
 memory,1000,m
 gthresh,energy=1.0d-12,orbital=1.0d-10,oneint=1.0d-16,twoint=1.0d-16,optgrad=1.0d-6,compress=1.0d-13
 geomtyp=xyz
 
  bohr
  geometry = {
  6
  arbitrary comment
  C   -1.3737352454   -0.0247879940    0.0054016210
  O    1.2928433662    0.1159757514   -0.0018208149
  H   -2.0766765204    1.9117945482   -0.0018821478
  H   -2.1058306965   -0.9789630667    1.6834962895
  H   -2.1053192437   -0.9777464978   -1.6855632376
  H    1.9449941798   -1.5764048611    0.0003598799
 }
 
 basis=cc-pvdz
 {rhf;maxit,200}
 {ccsd(t);maxit,200}
 Commands initialized (818), CPU time= 0.01 sec, 672 directives.
 Default parameters read. Elapsed time= 0.09 sec

 Checking input...
 Passed
1


                                         ***  PROGRAM SYSTEM MOLPRO  ***
                                       Copyright, TTI GmbH Stuttgart, 2015
                                    Version 2022.1 linked Mar  4 2022 00:40:14


 **********************************************************************************************************************************
 LABEL *   Optimization of min3                                                          
  64 bit mpp version                                                                     DATE: 07-Aug-25          TIME: 21:24:03  
 **********************************************************************************************************************************

 SHA1:             31073afc4d8441e10870424e0d77336a33bc4286
 **********************************************************************************************************************************

 Memory per process:      1000 MW
 Total memory per node:   3000 MW

 GA preallocation disabled
 GA check disabled

 Variable memory set to 1000.0 MW


 THRESHOLDS:

 ZERO    =  1.00D-12  ONEINT  =  1.00D-16  TWOINT  =  1.00D-16  PREFAC  =  1.00D-14  XXXXXX  =  1.00D-09  EORDER  =  1.00D-04
 ENERGY  =  1.00D-12  ETEST   =  0.00D+00  EDENS   =  0.00D+00  THRDEDEF=  1.00D-06  GRADIENT=  1.00D-05  STEP    =  1.00D-03
 ORBITAL =  1.00D-10  CIVEC   =  1.00D-05  COEFF   =  1.00D-04  PRINTCI =  5.00D-02  PUNCHCI =  9.90D+01  OPTGRAD =  1.00D-06
 OPTENERG=  1.00D-06  OPTSTEP =  3.00D-04  THRGRAD =  1.00D-10  COMPRESS=  1.00D-13  VARMIN  =  1.00D-07  VARMAX  =  1.00D-03
 THRDOUB =  0.00D+00  THRDIV  =  1.00D-05  THRRED  =  1.00D-07  THRPSP  =  1.00D+00  THRDC   =  1.00D-10  THRCS   =  1.00D-10
 THRNRM  =  1.00D-08  THREQ   =  0.00D+00  THRDE   =  1.00D+00  THRREF  =  1.00D-05  SPARFAC =  1.00D+00  THRDLP  =  1.00D-07
 THRDIA  =  1.00D-10  THRDLS  =  1.00D-07  THRGPS  =  0.00D+00  THRKEX  =  0.00D+00  THRDIS  =  2.00D-01  THRVAR  =  1.00D-10
 THRLOC  =  1.00D-06  THRGAP  =  1.00D-06  THRLOCT = -1.00D+00  THRGAPT = -1.00D+00  THRORB  =  1.00D-06  THRMLTP =  0.00D+00
 THRCPQCI=  1.00D-10  KEXTA   =  0.00D+00  THRCOARS=  0.00D+00  SYMTOL  =  1.00D-06  GRADTOL =  1.00D-06  THROVL  =  1.00D-08
 THRORTH =  1.00D-08  THRDLOVL= -1.00D+00  GRID    =  1.00D-06  GRIDMAX =  1.00D-03  DTMAX   =  0.00D+00  THROCCDE=  1.00D-01
 THROCCDE=  1.00D-01  THRPRINT=  2.50D-01

 SETTING GEOMTYP        =    XYZ
 ZUNIT=BOHR

 SETTING BASIS          =    CC-PVDZ


 Recomputing integrals since basis changed


 Using spherical harmonics

 Library entry C      S cc-pVDZ              selected for orbital group  1
 Library entry C      P cc-pVDZ              selected for orbital group  1
 Library entry C      D cc-pVDZ              selected for orbital group  1
 Library entry O      S cc-pVDZ              selected for orbital group  2
 Library entry O      P cc-pVDZ              selected for orbital group  2
 Library entry O      D cc-pVDZ              selected for orbital group  2
 Library entry H      S cc-pVDZ              selected for orbital group  3
 Library entry H      P cc-pVDZ              selected for orbital group  3


 PROGRAM * SEWARD (Integral evaluation for generally contracted gaussian basis sets)     Author: Roland Lindh, 1990

 Geometry written to block  1 of record 700


 Point group  C1  



 ATOMIC COORDINATES

 NR  ATOM    CHARGE       X              Y              Z

   1  C       6.00   -1.373735245   -0.024787994    0.005401621
   2  O       8.00    1.292843366    0.115975751   -0.001820815
   3  H       1.00   -2.076676520    1.911794548   -0.001882148
   4  H       1.00   -2.105830696   -0.978963067    1.683496290
   5  H       1.00   -2.105319244   -0.977746498   -1.685563238
   6  H       1.00    1.944994180   -1.576404861    0.000359880

 Bond lengths in Bohr (Angstrom)

 1-2  2.670301123  1-3  2.060226063  1-4  2.064561826  1-5  2.074296799  2-6  1.813686185
     ( 1.413062501)     ( 1.090224682)     ( 1.092519069)     ( 1.097670595)     ( 0.959761397)

 Bond angles

  1-2-6  108.05191973   2-1-3  106.92742008   2-1-4  112.37506517   2-1-5  111.97557554

  3-1-4  108.44031737   3-1-5  107.97625089   4-1-5  108.97835730

 NUCLEAR CHARGE:                   18
 NUMBER OF PRIMITIVE AOS:          82
 NUMBER OF SYMMETRY AOS:           80
 NUMBER OF CONTRACTIONS:           48   (   48A   )
 NUMBER OF INNER CORE ORBITALS:     0   (    0A   )
 NUMBER OF OUTER CORE ORBITALS:     2   (    2A   )
 NUMBER OF VALENCE ORBITALS:       12   (   12A   )


 NUCLEAR REPULSION ENERGY   40.41763903

 Eigenvalues of metric

         1 0.963E-02 0.176E-01 0.368E-01 0.375E-01 0.381E-01 0.472E-01 0.480E-01 0.518E-01


 Contracted 2-electron integrals neglected if value below      1.0D-16
 AO integral compression algorithm  1   Integral accuracy      1.0D-16

     7.340 MB (compressed) written to integral file (100.0%)

     Node minimum: 2.359 MB, node maximum: 2.621 MB


 NUMBER OF SORTED TWO-ELECTRON INTEGRALS:     231084.     BUFFER LENGTH:  32768
 NUMBER OF SEGMENTS:   1  SEGMENT LENGTH:     231084      RECORD LENGTH: 524288

 Memory used in sort:       0.79 MW

 SORT1 READ      832256. AND WROTE      227683. INTEGRALS IN      1 RECORDS. CPU TIME:     0.01 SEC, REAL TIME:     0.02 SEC
 SORT2 READ      682150. AND WROTE      692076. INTEGRALS IN     27 RECORDS. CPU TIME:     0.01 SEC, REAL TIME:     0.02 SEC

 Node minimum:      230300.  Node maximum:      231084. integrals

 OPERATOR DM      FOR CENTER  0  COORDINATES:    0.000000    0.000000    0.000000


 **********************************************************************************************************************************
 DATASETS  * FILE   NREC   LENGTH (MB)   RECORD NAMES
              1      18       28.73       500      610      700      900      950      970     1000      129      960     1100   
                                          VAR    BASINP    GEOM    SYMINP    ZMAT    AOBASIS   BASIS     P2S    ABASIS      S 
                                         1400     1410     1200     1210     1080     1600     1650     1700   
                                           T        V       H0       H01     AOSYM     SMH    MOLCAS    OPER   

 PROGRAMS   *        TOTAL       INT
 CPU TIMES  *         0.38      0.25
 REAL TIME  *         0.96 SEC
 DISK USED  *        29.07 MB (local),      104.69 MB (total)
 GA USED    *         0.00 MB       (max)       0.00 MB       (current)
 **********************************************************************************************************************************


 Program * Restricted Hartree-Fock

 Orbital guess generated from atomic densities. Full valence occupancy:   14

 Initial occupancy:   9

 NELEC=   18   SYM=1   MS2= 0   THRE=1.0D-12   THRD=1.0D-10   THRG=1.0D-10  HFMA2=F  DIIS_START=2   DIIS_MAX=10   DIIS_INCORE=F

 Level shifts:    0.00 (CLOSED)    0.00 (OPEN)    0.30 (GAP_MIN)

 ITER           ETOT              DE          GRAD        DDIFF     DIIS  NEXP   TIME(IT)  TIME(TOT)  DIAG
   1     -115.01451489    -115.01451489     0.00D+00     0.16D+00     0     0       0.00      0.00    start
   2     -115.04286733      -0.02835244     0.10D-01     0.20D-01     1     0       0.00      0.00    diag
   3     -115.04883071      -0.00596338     0.48D-02     0.64D-02     2     0       0.01      0.01    diag
   4     -115.04929251      -0.00046181     0.10D-02     0.20D-02     3     0       0.00      0.01    diag
   5     -115.04931322      -0.00002071     0.18D-03     0.43D-03     4     0       0.00      0.01    diag
   6     -115.04931401      -0.00000078     0.32D-04     0.93D-04     5     0       0.01      0.02    diag
   7     -115.04931404      -0.00000003     0.67D-05     0.15D-04     6     0       0.00      0.02    diag
   8     -115.04931404      -0.00000000     0.22D-05     0.51D-05     7     0       0.00      0.02    fixocc
   9     -115.04931404      -0.00000000     0.45D-06     0.14D-05     8     0       0.01      0.03    diag
  10     -115.04931404      -0.00000000     0.76D-07     0.24D-06     9     0       0.00      0.03    diag/orth
  11     -115.04931404      -0.00000000     0.18D-07     0.51D-07     9     0       0.00      0.03    diag
  12     -115.04931404       0.00000000     0.46D-08     0.14D-07     9     0       0.00      0.03    diag
  13     -115.04931404      -0.00000000     0.68D-09     0.19D-08     9     0       0.01      0.04    diag
  14     -115.04931404      -0.00000000     0.15D-09     0.40D-09     9     0       0.00      0.04    diag
  15     -115.04931404       0.00000000     0.65D-10     0.12D-09     9     0       0.00      0.04    diag
  16     -115.04931404      -0.00000000     0.17D-10     0.39D-10     9     0       0.00      0.04    diag
  17     -115.04931404      -0.00000000     0.40D-11     0.67D-11     0     0       0.00      0.04    diag

 Final occupancy:   9

 !RHF STATE 1.1 Energy               -115.049314041978
  RHF One-electron energy            -237.093997418167
  RHF Two-electron energy              81.627044343278
  RHF Kinetic energy                  114.954643528894
  RHF Nuclear energy                   40.417639032911
  RHF Virial quotient                  -1.000823546663

 !RHF STATE 1.1 Dipole moment          -0.37744316    -0.59302772     0.00393380
 Dipole moment /Debye                  -0.95936482    -1.50732611     0.00999872

 Orbital energies:

           1.1          2.1          3.1          4.1          5.1          6.1          7.1          8.1          9.1         10.1
    -20.549465   -11.274224    -1.352109    -0.920833    -0.684104    -0.614940    -0.586796    -0.495300    -0.442183     0.184654

          11.1
      0.224383


 HOMO      9.1    -0.442183 =     -12.0324eV
 LUMO     10.1     0.184654 =       5.0247eV
 LUMO-HOMO         0.626837 =      17.0571eV

 Orbitals saved in record  2100.2


 **********************************************************************************************************************************
 DATASETS  * FILE   NREC   LENGTH (MB)   RECORD NAMES
              1      18       28.73       500      610      700      900      950      970     1000      129      960     1100   
                                          VAR    BASINP    GEOM    SYMINP    ZMAT    AOBASIS   BASIS     P2S    ABASIS      S 
                                         1400     1410     1200     1210     1080     1600     1650     1700   
                                           T        V       H0       H01     AOSYM     SMH    MOLCAS    OPER   

              2       4        0.47       700     1000      520     2100   
                                         GEOM     BASIS   MCVARS     RHF  

 PROGRAMS   *        TOTAL   RHF-SCF       INT
 CPU TIMES  *         0.42      0.04      0.25
 REAL TIME  *         1.22 SEC
 DISK USED  *        29.40 MB (local),      105.67 MB (total)
 GA USED    *         0.00 MB       (max)       0.00 MB       (current)
 **********************************************************************************************************************************


 PROGRAM * CCSD (Closed-shell coupled cluster)     Authors: C. Hampel, H.-J. Werner, 1991, M. Deegan, P.J. Knowles, 1992


 Convergence thresholds:  THRVAR = 1.00D-08  THRDEN = 1.00D-12

 CCSD(T)     terms to be evaluated (factor= 1.000)


 Number of core orbitals:           2 (   2 )
 Number of closed-shell orbitals:   7 (   7 )
 Number of external orbitals:      39 (  39 )

 Molecular orbitals read from record     2100.2  Type=RHF/CANONICAL  

 Number of N-1 electron functions:               7
 Number of N-2 electron functions:              28
 Number of singly external CSFs:               273
 Number of doubly external CSFs:             37401
 Total number of CSFs:                       37675

 Length of J-op  integral file:               0.00 MB
 Length of K-op  integral file:               0.16 MB
 Length of 3-ext integral record:             0.00 MB

 Memory could be reduced to 0.73 Mwords without degradation in triples

 Integral transformation finished. Total CPU:   0.01 sec, npass=  1  Memory used:   0.66 MW

 Reference energy:                   -115.04931404

 MP2 singlet pair energy:              -0.21845214
 MP2 triplet pair energy:              -0.11977276
 MP2 correlation energy:               -0.33822490
 MP2 total energy:                   -115.38753894

 SCS-MP2 correlation energy:           -0.33666784   (PS=  1.200000  PT=  0.333333)
 SCS-MP2 total energy:               -115.38598188

 ITER.      SQ.NORM     CORR.ENERGY   TOTAL ENERGY   ENERGY CHANGE        DEN1      VAR(S)    VAR(P)  DIIS     TIME  TIME/IT
   1      1.10711588    -0.36104629  -115.41036033    -0.02282139    -0.01417651  0.90D-03  0.17D-02  1  1     0.04     0.04
   2      1.11560695    -0.36298776  -115.41230180    -0.00194147    -0.00922588  0.19D-04  0.16D-03  2  2     0.06     0.03
   3      1.11746636    -0.36311363  -115.41242767    -0.00012587    -0.00119219  0.93D-05  0.85D-05  3  3     0.08     0.04
   4      1.11797446    -0.36311249  -115.41242653     0.00000115    -0.00025202  0.33D-06  0.66D-06  4  4     0.10     0.03
   5      1.11807080    -0.36311292  -115.41242696    -0.00000043    -0.00003544  0.97D-07  0.48D-07  5  5     0.11     0.03
   6      1.11808952    -0.36311160  -115.41242564     0.00000132    -0.00000431  0.16D-07  0.40D-08  6  6     0.13     0.03
   7      1.11809420    -0.36311118  -115.41242523     0.00000041    -0.00000036  0.20D-08  0.71D-09  6  1     0.15     0.03
   8      1.11809545    -0.36311129  -115.41242533    -0.00000010     0.00000074  0.25D-09  0.71D-10  6  3     0.17     0.03
   9      1.11809650    -0.36311116  -115.41242521     0.00000012    -0.00000038  0.13D-10  0.10D-10  6  2     0.18     0.03
  10      1.11809655    -0.36311116  -115.41242520     0.00000000     0.00000000  0.13D-11  0.12D-11  6  4     0.20     0.03
  11      1.11809651    -0.36311116  -115.41242520     0.00000000     0.00000003  0.33D-12  0.83D-13  6  5     0.22     0.03
  12      1.11809646    -0.36311117  -115.41242521    -0.00000000     0.00000003  0.32D-13  0.13D-13  6  6     0.23     0.03
  13      1.11809644    -0.36311117  -115.41242521    -0.00000000     0.00000001  0.38D-14  0.15D-14  6  3     0.25     0.03
  14      1.11809644    -0.36311117  -115.41242521    -0.00000000     0.00000000  0.29D-15  0.14D-15  6  1     0.27     0.03
  15      1.11809644    -0.36311117  -115.41242521     0.00000000    -0.00000000  0.36D-16  0.31D-16  6  2     0.28     0.03
  16      1.11809644    -0.36311117  -115.41242521     0.00000000    -0.00000000  0.44D-17  0.21D-17  6  4     0.30     0.03
  17      1.11809644    -0.36311117  -115.41242521    -0.00000000     0.00000000  0.50D-18  0.23D-18  6  5     0.32     0.03
  18      1.11809644    -0.36311117  -115.41242521    -0.00000000    -0.00000000  0.13D-18  0.36D-19  6  6     0.34     0.03
  19      1.11809644    -0.36311117  -115.41242521     0.00000000    -0.00000000  0.17D-19  0.50D-20  6  3     0.35     0.03

 Norm of t1 vector:      0.04136375      S-energy:    -0.00000000      T1 diagnostic:  0.00781701
                                                                       D1 diagnostic:  0.01719213
                                                                       D2 diagnostic:  0.13415106 (internal)


 Total CPU time for triples:      0.08 sec


 RESULTS
 =======

  Reference energy                   -115.049314041978
  CCSD singlet pair energy             -0.254356974156
  CCSD triplet pair energy             -0.108754192730
  CCSD correlation energy              -0.363111166887

  Triples (T) contribution             -0.007701498754
  Total correlation energy             -0.370812665641

  CCSD total energy                  -115.412425208865
  CCSD[T] energy                     -115.420412989561
  CCSD-T energy                      -115.419978594460
 !CCSD(T) total energy               -115.420126707619

 Timing summary (sec):

 STEP                 CPU(USER)    SYS     CPU(TOT)    WALL
 Transformation          0.02      0.01      0.03      0.04
 CCSD iterations         0.33      0.06      0.39      0.64
 Triples                 0.08      0.00      0.08      0.08

 Program statistics:

 Available memory in ccsd:               999999795
 Min. memory needed in ccsd:                136177
 Max. memory used in ccsd:                  162910
 Max. memory used in cckext:                178997 (19 integral passes)



 **********************************************************************************************************************************
 DATASETS  * FILE   NREC   LENGTH (MB)   RECORD NAMES
              1      19       31.13       500      610      700      900      950      970     1000      129      960     1100   
                                          VAR    BASINP    GEOM    SYMINP    ZMAT    AOBASIS   BASIS     P2S    ABASIS      S 
                                         1400     1410     1200     1210     1080     1600     1650     1700     1380   
                                           T        V       H0       H01     AOSYM     SMH    MOLCAS    OPER     JKOP   

              2       4        0.47       700     1000      520     2100   
                                         GEOM     BASIS   MCVARS     RHF  

 PROGRAMS   *        TOTAL   CCSD(T)   RHF-SCF       INT
 CPU TIMES  *         0.89      0.47      0.04      0.25
 REAL TIME  *         2.10 SEC
 DISK USED  *        35.56 MB (local),      116.33 MB (total)
 SF USED    *         5.97 MB
 GA USED    *         0.00 MB       (max)       0.00 MB       (current)
 **********************************************************************************************************************************

 CCSD(T)/cc-pVDZ energy=   -115.420126707619

         CCSD(T)         RHF-SCF
   -115.42012671   -115.04931404
 **********************************************************************************************************************************
 Molpro calculation terminated
