
 Primary working directories    : /tmp/330808.1.debug.q
 Secondary working directories  : /tmp/330808.1.debug.q
 Wavefunction directory         : /home/vulcan/mel64643/wfu/
 Main file repository           : /tmp/330808.1.debug.q/

 ARCHNAME  : Linux/x86_64
 FC        : /opt/intel/compilers_and_libraries_2016.1.150/linux/bin/intel64/ifort
 FCVERSION : 16.0.1
 BLASLIB   : -mkl
 id        : ccgc

 Nodes     nprocs
 n045         3
 Number of processes for MPI-2 version of Molpro:   nprocs(total)=    4   nprocs(compute)=    3   nprocs(helper)=    1
 ga_uses_ma=false, calling ma_init with nominal heap.
 GA-space will be limited to   8.0 MW (determined by -G option)

 Using customized tuning parameters: mindgm=10; mindgv=16; mindgc=4; mindgr=1; noblas=0; mincuda=1000; minvec=7
 default implementation of scratch files=sf  

 ***,Optimization of min3
 memory,1000,m
 gthresh,energy=1.0d-10,orbital=1.0d-10,oneint=1.0d-16,twoint=1.0d-16,optgrad=1.0d-6,compress=1.0d-13
 geomtyp=xyz
 
  bohr
  geometry = {
  3
  arbitrary comment
  H         -1.8897259886          1.4550890112          0.0000000000
  O          0.0000000000          0.0000000000          0.0000000000
  H          1.8897259886          1.4550890112          0.0000000000
 }
 
 basis=cc-pvtz
 {rhf;maxit,200}
 {uccsd(t);maxit,200}
 {optg}

 Variables initialized (661), CPU time= 0.01 sec
 Commands  initialized (458), CPU time= 0.01 sec, 486 directives.
 Default parameters read. Elapsed time= 0.08 sec

 Checking input...
 Passed
1


                                         ***  PROGRAM SYSTEM MOLPRO  ***
                         Copyright, University College Cardiff Consultants Limited, 2008

                                    Version 2010.1 linked May 16 2016 07:17:05


 **********************************************************************************************************************************
 LABEL *   Optimization of min3                                                          
 Linux-4.4.3/n045(x86_64) 64 bit mpp version                                             DATE: 19-Jun-20          TIME: 11:30:50  
 **********************************************************************************************************************************

 SHA1:             9e8077add272b0f3cad6f7df79ec5211205f459d
 **********************************************************************************************************************************

 THRESHOLDS:

 ZERO    =  1.00D-12  ONEINT  =  1.00D-16  TWOINT  =  1.00D-16  PREFAC  =  1.00D-14  LOCALI  =  1.00D-09  EORDER  =  1.00D-04
 ENERGY  =  1.00D-10  ETEST   =  0.00D+00  EDENS   =  0.00D+00  THRDEDEF=  1.00D-06  GRADIENT=  1.00D-02  STEP    =  1.00D-03
 ORBITAL =  1.00D-10  CIVEC   =  1.00D-05  COEFF   =  1.00D-04  PRINTCI =  5.00D-02  PUNCHCI =  9.90D+01  OPTGRAD =  1.00D-06
 OPTENERG=  1.00D-06  OPTSTEP =  3.00D-04  THRGRAD =  1.00D-10  COMPRESS=  1.00D-13  VARMIN  =  1.00D-07  VARMAX  =  1.00D-03
 THRDOUB =  0.00D+00  THRDIV  =  1.00D-05  THRRED  =  1.00D-07  THRPSP  =  1.00D+00  THRDC   =  1.00D-10  THRCS   =  1.00D-10
 THRNRM  =  1.00D-08  THREQ   =  0.00D+00  THRDE   =  1.00D+00  THRREF  =  1.00D-05  SPARFAC =  1.00D+00  THRDLP  =  1.00D-07
 THRDIA  =  1.00D-10  THRDLS  =  1.00D-07  THRGPS  =  0.00D+00  THRKEX  =  0.00D+00  THRDIS  =  2.00D-01  THRVAR  =  1.00D-10
 THRLOC  =  1.00D-06  THRGAP  =  1.00D-06  THRLOCT = -1.00D+00  THRGAPT = -1.00D+00  THRORB  =  1.00D-06  THRMLTP =  0.00D+00
 THRCPQCI=  1.00D-10  KEXTA   =  0.00D+00  THRCOARS=  0.00D+00  SYMTOL  =  1.00D-06  GRADTOL =  1.00D-06  THROVL  =  1.00D-08
 THRORTH =  1.00D-08  GRID    =  1.00D-06  GRIDMAX =  1.00D-03  DTMAX   =  0.00D+00

 SETTING GEOMTYP        =    XYZ
 ZUNIT=BOHR
 

 Variable memory set to 1000000000 words,  buffer space   230000 words

 SETTING BASIS          =    CC-PVTZ


 Recomputing integrals since basis changed


 Using spherical harmonics

 Library entry H      S cc-pVTZ              selected for orbital group  1
 Library entry H      P cc-pVTZ              selected for orbital group  1
 Library entry H      D cc-pVTZ              selected for orbital group  1
 Library entry O      S cc-pVTZ              selected for orbital group  2
 Library entry O      P cc-pVTZ              selected for orbital group  2
 Library entry O      D cc-pVTZ              selected for orbital group  2
 Library entry O      F cc-pVTZ              selected for orbital group  2

1PROGRAM * SEWARD (Integral evaluation for generally contracted gaussian basis sets)     Author: Roland Lindh, 1990

 Geometry written to block  1 of record 700


 Point group  C2v 



 ATOMIC COORDINATES

 NR  ATOM    CHARGE       X              Y              Z

   1  H       1.00   -1.889725989    1.455089011    0.000000000
   2  H       1.00    1.889725989    1.455089011    0.000000000
   3  O       8.00    0.000000000    0.000000000    0.000000000

 Bond lengths in Bohr (Angstrom)

 1-3  2.385025858  2-3  2.385025858
     ( 1.262101327)     ( 1.262101327)

 Bond angles

  1-3-2  104.80745771

 NUCLEAR CHARGE:                   10
 NUMBER OF PRIMITIVE AOS:          81
 NUMBER OF SYMMETRY AOS:           74
 NUMBER OF CONTRACTIONS:           58   (  23A1  +  17B1  +  11B2  +   7A2  )
 NUMBER OF CORE ORBITALS:           1   (   1A1  +   0B1  +   0B2  +   0A2  )
 NUMBER OF VALENCE ORBITALS:        6   (   3A1  +   2B1  +   1B2  +   0A2  )


 NUCLEAR REPULSION ENERGY    6.97311128


 Eigenvalues of metric

         1 0.471E-02 0.109E-01 0.288E-01 0.547E-01 0.147E+00 0.188E+00 0.296E+00 0.354E+00
         2 0.790E-02 0.274E-01 0.549E-01 0.108E+00 0.189E+00 0.283E+00 0.366E+00 0.604E+00
         3 0.490E-01 0.180E+00 0.411E+00 0.472E+00 0.733E+00 0.903E+00 0.108E+01 0.115E+01
         4 0.251E+00 0.427E+00 0.739E+00 0.989E+00 0.116E+01 0.137E+01 0.199E+01


 Contracted 2-electron integrals neglected if value below      1.0D-16
 AO integral compression algorithm  1   Integral accuracy      1.0D-16

     4.456 MB (compressed) written to integral file (100.0%)

     Node minimum: 1.311 MB, node maximum: 1.573 MB


 NUMBER OF SORTED TWO-ELECTRON INTEGRALS:     132111.     BUFFER LENGTH:  32768
 NUMBER OF SEGMENTS:   1  SEGMENT LENGTH:     132111      RECORD LENGTH: 524288

 Memory used in sort:       0.69 MW

 SORT1 READ      546378. AND WROTE      121337. INTEGRALS IN      1 RECORDS. CPU TIME:     0.01 SEC, REAL TIME:     0.02 SEC
 SORT2 READ      367036. AND WROTE      396151. INTEGRALS IN     15 RECORDS. CPU TIME:     0.01 SEC, REAL TIME:     0.00 SEC

 Node minimum:      130764.  Node maximum:      133276. integrals

 OPERATOR DM      FOR CENTER  0  COORDINATES:    0.000000    0.000000    0.000000


 **********************************************************************************************************************************
 DATASETS  * FILE   NREC   LENGTH (MB)   RECORD NAMES
              1      18        2.63       500      610      700      900      950      970     1000      129      960     1100   
                                          VAR    BASINP    GEOM    SYMINP    ZMAT    AOBASIS   BASIS     P2S    ABASIS      S 
                                         1400     1410     1200     1210     1080     1600     1650     1700   
                                           T        V       H0       H01     AOSYM     SMH    MOLCAS    OPER   

 PROGRAMS   *        TOTAL       INT
 CPU TIMES  *         0.50      0.39
 REAL TIME  *         0.72 SEC
 DISK USED  *        15.71 MB      
 GA USED    *         0.00 MB       (max)       0.00 MB       (current)
 **********************************************************************************************************************************

1PROGRAM * RHF-SCF (CLOSED SHELL)       Authors: W. Meyer, H.-J. Werner


 NUMBER OF ELECTRONS:       5+    5-
 CONVERGENCE THRESHOLDS:    1.00E-10 (Density)    1.00E-11 (Energy)
 MAX. NUMBER OF ITERATIONS:      200
 INTERPOLATION TYPE:            DIIS
 INTERPOLATION STEPS:              2 (START)      1 (STEP)
 LEVEL SHIFTS:                  0.00 (CLOSED)  0.00 (OPEN) 



 Orbital guess generated from atomic densities. Full valence occupancy:    4   2   1   0

 Molecular orbital dump at record        2100.2

 Initial alpha occupancy:   3   1   1   0
 Initial beta  occupancy:   3   1   1   0
 Wave function symmetry:    1

 ITERATION    DDIFF          GRAD             ENERGY        2-EL.EN.            DIPOLE MOMENTS         DIIS
    1      0.000D+00      0.000D+00       -75.87658481     75.149298    0.00000    1.58082    0.00000    0
    2      0.000D+00      0.212D-01       -75.90617642     69.585341    0.00000    0.64475    0.00000    1
    3      0.364D-01      0.186D-01       -75.93673918     72.124985    0.00000    0.91098    0.00000    2
    4      0.163D-01      0.165D-02       -75.93740724     72.079835    0.00000    0.88191    0.00000    3
    5      0.265D-02      0.679D-03       -75.93752872     72.104110    0.00000    0.86620    0.00000    4
    6      0.142D-02      0.112D-03       -75.93753365     72.097441    0.00000    0.86269    0.00000    5
    7      0.289D-03      0.214D-04       -75.93753378     72.097769    0.00000    0.86227    0.00000    6
    8      0.521D-04      0.293D-05       -75.93753379     72.097732    0.00000    0.86225    0.00000    5
    9      0.595D-05      0.119D-05       -75.93753379     72.097755    0.00000    0.86223    0.00000    6
   10      0.363D-05      0.345D-06       -75.93753379     72.097749    0.00000    0.86222    0.00000    6
   11      0.134D-05      0.418D-07       -75.93753379     72.097750    0.00000    0.86222    0.00000    6
   12      0.140D-06      0.716D-08       -75.93753379     72.097749    0.00000    0.86222    0.00000    6
   13      0.182D-07      0.206D-08       -75.93753379     72.097749    0.00000    0.86222    0.00000    6
   14      0.377D-08      0.407D-09       -75.93753379     72.097749    0.00000    0.86222    0.00000    6
   15      0.766D-09      0.206D-09       -75.93753379     72.097749    0.00000    0.86222    0.00000    6
   16      0.461D-09      0.401D-10       -75.93753379     72.097749    0.00000    0.86222    0.00000    6
   17      0.729D-10      0.968D-11       -75.93753379     72.097749    0.00000    0.86222    0.00000    0

 Final occupancy:   3   1   1   0

 !RHF STATE 1.1 Energy                -75.937533787791
 Nuclear energy                         6.97311128
 One-electron energy                 -118.95951973
 Two-electron energy                   36.04887467
 Virial quotient                       -1.00877133
 !RHF STATE 1.1 Dipole moment           0.00000000     0.86222258     0.00000000
 Dipole moment /Debye                   0.00000000     2.19140767     0.00000000

 Orbital energies:

         1.1          2.1          3.1          4.1          5.1
    -20.600013    -1.241182    -0.520702     0.092987     0.454192

         1.2          2.2          3.2
     -0.576513     0.155987     0.435627

         1.3          2.3          3.3
     -0.492475     0.744300     0.961137

         1.4          2.4
      0.802488     1.928206


 **********************************************************************************************************************************
 DATASETS  * FILE   NREC   LENGTH (MB)   RECORD NAMES
              1      18        2.63       500      610      700      900      950      970     1000      129      960     1100   
                                          VAR    BASINP    GEOM    SYMINP    ZMAT    AOBASIS   BASIS     P2S    ABASIS      S 
                                         1400     1410     1200     1210     1080     1600     1650     1700   
                                           T        V       H0       H01     AOSYM     SMH    MOLCAS    OPER   

              2       3        0.32       700     1000     2100   
                                         GEOM     BASIS     RHF  

 PROGRAMS   *        TOTAL       RHF       INT
 CPU TIMES  *         0.52      0.02      0.39
 REAL TIME  *         0.77 SEC
 DISK USED  *        25.65 MB      
 SF USED    *         0.00 MB      
 GA USED    *         0.00 MB       (max)       0.00 MB       (current)
 **********************************************************************************************************************************


1PROGRAM * CCSD (Unrestricted open-shell coupled cluster)     Authors: C. Hampel, H.-J. Werner, 1991, M. Deegan, P.J. Knowles, 1992


 Convergence thresholds:  THRVAR = 1.00D-14  THRDEN = 1.00D-10

 CCSD(T)     terms to be evaluated (factor= 1.000)


 Number of core orbitals:           1 (   1   0   0   0 )
 Number of closed-shell orbitals:   4 (   2   1   1   0 )
 Number of external orbitals:      53 (  20  16  10   7 )

 Memory could be reduced to 0.77 Mwords without degradation in triples

 Number of N-1 electron functions:               8
 Number of N-2 electron functions:              28
 Number of singly external CSFs:               132
 Number of doubly external CSFs:             15806
 Total number of CSFs:                       15938

 Molecular orbitals read from record     2100.2  Type=RHF/CANONICAL (state 1.1)

 Integral transformation finished. Total CPU:   0.01 sec, npass=  1  Memory used:   0.12 MW

 Starting RMP2 calculation

 ITER.      SQ.NORM     CORR.ENERGY   TOTAL ENERGY   ENERGY CHANGE        DEN1      VAR(S)    VAR(P)  DIIS     TIME
   1      1.08420210    -0.28479646   -76.22233025    -0.28479646    -0.00104878  0.62D-22  0.45D-03  1  1     0.01
   2      1.08525609    -0.28592402   -76.22345781    -0.00112756    -0.00000130  0.66D-24  0.69D-06  2  2     0.01
   3      1.08528676    -0.28594364   -76.22347743    -0.00001962    -0.00000000  0.60D-26  0.12D-08  3  3     0.01
   4      1.08528724    -0.28594378   -76.22347757    -0.00000014    -0.00000000  0.46D-28  0.13D-11  4  4     0.01
   5      1.08528725    -0.28594378   -76.22347757    -0.00000000    -0.00000000  0.46D-30  0.19D-14  5  5     0.01
   6      1.08528725    -0.28594378   -76.22347757     0.00000000    -0.00000000  0.48D-32  0.30D-17  6  6     0.01

 Norm of t1 vector:      0.00000000      S-energy:    -0.00000000      T1 diagnostic:  0.00000000
 Norm of t2 vector:      0.29203980      P-energy:    -0.28594378
                                         Alpha-Beta:  -0.21793564
                                         Alpha-Alpha: -0.03400407
                                         Beta-Beta:   -0.03400407

 Spin contamination <S**2-Sz**2-Sz>     0.00000000
  Reference energy                    -75.937533787791
  RHF-RMP2 correlation energy          -0.285943783348
 !RHF-RMP2 energy                     -76.223477571139

 Starting UCCSD calculation

 ITER.      SQ.NORM     CORR.ENERGY   TOTAL ENERGY   ENERGY CHANGE        DEN1      VAR(S)    VAR(P)  DIIS     TIME
   1      1.08234966    -0.27896299   -76.21649677    -0.27896299    -0.00879694  0.10D-02  0.19D-02  1  1     0.02
   2      1.09167572    -0.28732868   -76.22486246    -0.00836569    -0.00102623  0.67D-04  0.41D-03  2  2     0.03
   3      1.09690274    -0.28973192   -76.22726570    -0.00240324    -0.00010290  0.15D-04  0.36D-04  3  3     0.03
   4      1.09905688    -0.29050062   -76.22803441    -0.00076871    -0.00000889  0.31D-05  0.26D-05  4  4     0.04
   5      1.09950275    -0.29059372   -76.22812751    -0.00009310    -0.00000138  0.76D-06  0.28D-06  5  5     0.05
   6      1.09963130    -0.29060839   -76.22814218    -0.00001467    -0.00000020  0.12D-06  0.39D-07  6  6     0.05
   7      1.09966885    -0.29061175   -76.22814554    -0.00000336    -0.00000002  0.12D-07  0.45D-08  6  1     0.06
   8      1.09968080    -0.29061152   -76.22814531     0.00000023    -0.00000000  0.93D-09  0.55D-09  6  2     0.07
   9      1.09968279    -0.29061192   -76.22814570    -0.00000040    -0.00000000  0.40D-10  0.77D-10  6  3     0.08
  10      1.09968324    -0.29061169   -76.22814547     0.00000023    -0.00000000  0.34D-11  0.95D-11  6  4     0.09
  11      1.09968335    -0.29061177   -76.22814555    -0.00000008    -0.00000000  0.24D-12  0.86D-12  6  5     0.09
  12      1.09968336    -0.29061175   -76.22814554     0.00000002    -0.00000000  0.32D-13  0.90D-13  6  6     0.10
  13      1.09968331    -0.29061174   -76.22814553     0.00000001    -0.00000000  0.27D-14  0.67D-14  6  2     0.11
  14      1.09968330    -0.29061174   -76.22814553     0.00000000    -0.00000000  0.42D-15  0.38D-15  6  1     0.11
  15      1.09968330    -0.29061174   -76.22814552     0.00000000    -0.00000000  0.67D-16  0.48D-16  6  3     0.12
  16      1.09968330    -0.29061174   -76.22814552     0.00000000    -0.00000000  0.97D-17  0.42D-17  6  4     0.12
  17      1.09968330    -0.29061174   -76.22814552     0.00000000    -0.00000000  0.61D-18  0.39D-18  6  5     0.13
  18      1.09968330    -0.29061174   -76.22814552    -0.00000000    -0.00000000  0.74D-19  0.57D-19  6  6     0.14

 Norm of t1 vector:      0.05121944      S-energy:     0.00000000      T1 diagnostic:  0.01280486
                                                                       D1 diagnostic:  0.02510213
 Norm of t2 vector:      0.31154432      P-energy:    -0.29061174
                                         Alpha-Beta:  -0.23438519
                                         Alpha-Alpha: -0.02811327
                                         Beta-Beta:   -0.02811327

 Doubles amplitudes (print threshold =  0.500E-01):

         I         J         SYM. A    SYM. B    A         B      T(IJ, AB) [Alpha-Beta]

         2         2         1         1         1         1     -0.05322023
         3         3         2         2         1         1     -0.05830489

 Spin contamination <S**2-Sz**2-Sz>     0.00000000

 Memory could be reduced to 0.78 Mwords without degradation in triples
 

 RESULTS
 =======

  Reference energy                    -75.937533787791
  UCCSD singles energy                  0.000000000001
  UCCSD pair energy                    -0.290611735898
  UCCSD correlation energy             -0.290611735897
  Triples (T) contribution             -0.010817991805
  Total correlation energy             -0.301429727702
 
  RHF-UCCSD energy                    -76.228145523688
  RHF-UCCSD[T] energy                 -76.239393545706
  RHF-UCCSD-T energy                  -76.238686477319
 !RHF-UCCSD(T) energy                 -76.238963515493

 Program statistics:

 Available memory in ccsd:               999999732
 Min. memory needed in ccsd:                 67584
 Max. memory used in ccsd:                   84132
 Max. memory used in cckext:                106140 (18 integral passes)
 Max. memory used in cckint:                119873 ( 1 integral passes)



 **********************************************************************************************************************************
 DATASETS  * FILE   NREC   LENGTH (MB)   RECORD NAMES
              1      18        2.63       500      610      700      900      950      970     1000      129      960     1100   
                                          VAR    BASINP    GEOM    SYMINP    ZMAT    AOBASIS   BASIS     P2S    ABASIS      S 
                                         1400     1410     1200     1210     1080     1600     1650     1700   
                                           T        V       H0       H01     AOSYM     SMH    MOLCAS    OPER   

              2       3        0.32       700     1000     2100   
                                         GEOM     BASIS     RHF  

 PROGRAMS   *        TOTAL  UCCSD(T)       RHF       INT
 CPU TIMES  *         0.71      0.19      0.02      0.39
 REAL TIME  *         1.03 SEC
 DISK USED  *        31.15 MB      
 SF USED    *         5.59 MB      
 GA USED    *         0.00 MB       (max)       0.00 MB       (current)
 **********************************************************************************************************************************


 PROGRAM * OPT (Geometry optimization)     Authors: F. Eckert and H.-J. Werner


 BFGS update of hessian

 Running default procedure: RHF-SCF000  UCCSD(T)

 Geometry optimization using default procedure for command UCCSD(T)

 Geometry written to block  1 of record 700
 

 Generated   2 symmetrical displacements

 Number of displacements for numerical gradient:      4

 Starting numerical gradient for UCCSD(T)
 Starting task   1   Incrementing displacement  1 by  1.   CPU=    0.00 sec, Elapsed=    0.00 sec


 Recomputing integrals since geometry changed

1PROGRAM * SEWARD (Integral evaluation for generally contracted gaussian basis sets)     Author: Roland Lindh, 1990

 Geometry written to block  1 of record 700


 Point group  C2v 



 ATOMIC COORDINATES

 NR  ATOM    CHARGE       X              Y              Z

   1  H       1.00   -1.884189734    1.457628689    0.000000000
   2  H       1.00    1.884189734    1.457628689    0.000000000
   3  O       8.00    0.000000000   -0.005079355    0.000000000

 Bond lengths in Bohr (Angstrom)

 1-3  2.385306223  2-3  2.385306223
     ( 1.262249689)     ( 1.262249689)

 Bond angles

  1-3-2  104.35518224

 NUCLEAR CHARGE:                   10
 NUMBER OF PRIMITIVE AOS:          81
 NUMBER OF SYMMETRY AOS:           74
 NUMBER OF CONTRACTIONS:           58   (  23A1  +  17B1  +  11B2  +   7A2  )
 NUMBER OF CORE ORBITALS:           1   (   1A1  +   0B1  +   0B2  +   0A2  )
 NUMBER OF VALENCE ORBITALS:        6   (   3A1  +   2B1  +   1B2  +   0A2  )


 NUCLEAR REPULSION ENERGY    6.97310020


 Eigenvalues of metric

         1 0.471E-02 0.109E-01 0.288E-01 0.548E-01 0.147E+00 0.188E+00 0.296E+00 0.354E+00
         2 0.790E-02 0.275E-01 0.550E-01 0.107E+00 0.189E+00 0.283E+00 0.365E+00 0.605E+00
         3 0.490E-01 0.180E+00 0.411E+00 0.472E+00 0.733E+00 0.903E+00 0.108E+01 0.115E+01
         4 0.251E+00 0.427E+00 0.739E+00 0.989E+00 0.116E+01 0.137E+01 0.199E+01


 Contracted 2-electron integrals neglected if value below      1.0D-16
 AO integral compression algorithm  1   Integral accuracy      1.0D-16

     4.719 MB (compressed) written to integral file (100.0%)

     Node minimum: 1.573 MB, node maximum: 1.573 MB


 NUMBER OF SORTED TWO-ELECTRON INTEGRALS:     132111.     BUFFER LENGTH:  32768
 NUMBER OF SEGMENTS:   1  SEGMENT LENGTH:     132111      RECORD LENGTH: 524288

 Memory used in sort:       0.69 MW

 SORT1 READ      546378. AND WROTE      121337. INTEGRALS IN      1 RECORDS. CPU TIME:     0.01 SEC, REAL TIME:     0.01 SEC
 SORT2 READ      367036. AND WROTE      396151. INTEGRALS IN     18 RECORDS. CPU TIME:     0.01 SEC, REAL TIME:     0.01 SEC

 Node minimum:      130764.  Node maximum:      133276. integrals

 OPERATOR DM      FOR CENTER  0  COORDINATES:    0.000000    0.000000    0.000000
1PROGRAM * RHF-SCF (CLOSED SHELL)       Authors: W. Meyer, H.-J. Werner


 NUMBER OF ELECTRONS:       5+    5-
 CONVERGENCE THRESHOLDS:    1.00E-10 (Density)    1.00E-11 (Energy)
 MAX. NUMBER OF ITERATIONS:      200
 INTERPOLATION TYPE:            DIIS
 INTERPOLATION STEPS:              2 (START)      1 (STEP)
 LEVEL SHIFTS:                  0.00 (CLOSED)  0.00 (OPEN) 

 Number of closed-shell orbitals:    5 (   3   1   1   0 )


 Molecular orbitals read from record     2100.2  Type=RHF/CANONICAL (state 1.1)

 Molecular orbital dump at record        2100.1

 ITERATION    DDIFF          GRAD             ENERGY        2-EL.EN.            DIPOLE MOMENTS         DIIS
    1      0.000D+00      0.000D+00       -75.93759953     72.096185    0.00000    0.86663    0.00000    0
    2      0.000D+00      0.101D-03       -75.93760099     72.093637    0.00000    0.86605    0.00000    1
    3      0.206D-03      0.235D-04       -75.93760114     72.095491    0.00000    0.86606    0.00000    2
    4      0.526D-04      0.101D-04       -75.93760117     72.093761    0.00000    0.86577    0.00000    3
    5      0.154D-04      0.587D-05       -75.93760118     72.094190    0.00000    0.86569    0.00000    4
    6      0.130D-04      0.150D-05       -75.93760118     72.094153    0.00000    0.86565    0.00000    5
    7      0.539D-05      0.331D-06       -75.93760118     72.094152    0.00000    0.86564    0.00000    6
    8      0.124D-05      0.711D-07       -75.93760118     72.094150    0.00000    0.86564    0.00000    7
    9      0.159D-06      0.130D-07       -75.93760118     72.094150    0.00000    0.86564    0.00000    7
   10      0.316D-07      0.241D-08       -75.93760118     72.094151    0.00000    0.86564    0.00000    7
   11      0.602D-08      0.303D-09       -75.93760118     72.094151    0.00000    0.86564    0.00000    6
   12      0.718D-09      0.601D-10       -75.93760118     72.094151    0.00000    0.86564    0.00000    5
   13      0.123D-09      0.167D-10       -75.93760118     72.094151    0.00000    0.86564    0.00000    5
   14      0.308D-10      0.129D-10       -75.93760118     72.094151    0.00000    0.86564    0.00000    0

 Final occupancy:   3   1   1   0

 !RHF STATE 1.1 Energy                -75.937601181599
 Nuclear energy                         6.97310020
 One-electron energy                 -118.95777665
 Two-electron energy                   36.04707526
 Virial quotient                       -1.00876965
 !RHF STATE 1.1 Dipole moment           0.00000000     0.86564141     0.00000000
 Dipole moment /Debye                   0.00000000     2.20009689     0.00000000

 Orbital energies:

         1.1          2.1          3.1          4.1          5.1
    -20.600337    -1.241392    -0.521354     0.093107     0.455183

         1.2          2.2          3.2
     -0.576043     0.155797     0.434990

         1.3          2.3          3.3
     -0.492687     0.743902     0.959991

         1.4          2.4
      0.803269     1.927362


 **********************************************************************************************************************************
 DATASETS  * FILE   NREC   LENGTH (MB)   RECORD NAMES
              1      19        2.70       500      610      700      900      950      970     1000      129      960     1100   
                                          VAR    BASINP    GEOM    SYMINP    ZMAT    AOBASIS   BASIS     P2S    ABASIS      S 
                                         1400     1410     1200     1210     1080     1600     1650     1700     2100   
                                           T        V       H0       H01     AOSYM     SMH    MOLCAS    OPER      RHF  

              2       4        0.34       700     1000     2100     5600   
                                         GEOM     BASIS     RHF     GINFO   

 PROGRAMS   *        TOTAL       RHF  UCCSD(T)       RHF       INT
 CPU TIMES  *         2.20      0.33      0.19      0.02      0.39
 REAL TIME  *         3.00 SEC
 DISK USED  *        31.15 MB      
 SF USED    *         5.59 MB      
 GA USED    *         0.00 MB       (max)       0.00 MB       (current)
 **********************************************************************************************************************************


1PROGRAM * CCSD (Unrestricted open-shell coupled cluster)     Authors: C. Hampel, H.-J. Werner, 1991, M. Deegan, P.J. Knowles, 1992


 Convergence thresholds:  THRVAR = 1.00D-14  THRDEN = 1.00D-10

 CCSD(T)     terms to be evaluated (factor= 1.000)


 Number of core orbitals:           1 (   1   0   0   0 )
 Number of closed-shell orbitals:   4 (   2   1   1   0 )
 Number of external orbitals:      53 (  20  16  10   7 )

 Memory could be reduced to 0.79 Mwords without degradation in triples

 Number of N-1 electron functions:               8
 Number of N-2 electron functions:              28
 Number of singly external CSFs:               132
 Number of doubly external CSFs:             15806
 Total number of CSFs:                       15938

 Molecular orbitals read from record     2100.1  Type=RHF/CANONICAL (state 1.1)

 Integral transformation finished. Total CPU:   0.01 sec, npass=  1  Memory used:   0.12 MW

 Starting RMP2 calculation

 ITER.      SQ.NORM     CORR.ENERGY   TOTAL ENERGY   ENERGY CHANGE        DEN1      VAR(S)    VAR(P)  DIIS     TIME
   1      1.08427111    -0.28488193   -76.22248311    -0.28488193    -0.00105013  0.25D-21  0.45D-03  1  1     0.01
   2      1.08532709    -0.28601100   -76.22361218    -0.00112906    -0.00000130  0.42D-23  0.70D-06  2  2     0.01
   3      1.08535782    -0.28603064   -76.22363183    -0.00001965    -0.00000000  0.62D-25  0.12D-08  3  3     0.01
   4      1.08535830    -0.28603079   -76.22363197    -0.00000014    -0.00000000  0.80D-27  0.13D-11  4  4     0.01
   5      1.08535830    -0.28603079   -76.22363197    -0.00000000    -0.00000000  0.12D-28  0.19D-14  5  5     0.01
   6      1.08535830    -0.28603079   -76.22363197     0.00000000    -0.00000000  0.16D-30  0.30D-17  6  6     0.01

 Norm of t1 vector:      0.00000000      S-energy:    -0.00000000      T1 diagnostic:  0.00000000
 Norm of t2 vector:      0.29216143      P-energy:    -0.28603079
                                         Alpha-Beta:  -0.21799872
                                         Alpha-Alpha: -0.03401603
                                         Beta-Beta:   -0.03401603

 Spin contamination <S**2-Sz**2-Sz>     0.00000000
  Reference energy                    -75.937601181599
  RHF-RMP2 correlation energy          -0.286030786742
 !RHF-RMP2 energy                     -76.223631968341

 Starting UCCSD calculation

 ITER.      SQ.NORM     CORR.ENERGY   TOTAL ENERGY   ENERGY CHANGE        DEN1      VAR(S)    VAR(P)  DIIS     TIME
   1      1.08239482    -0.27901878   -76.21661996    -0.27901878    -0.00880643  0.10D-02  0.19D-02  1  1     0.02
   2      1.09172664    -0.28739108   -76.22499226    -0.00837230    -0.00102746  0.66D-04  0.41D-03  2  2     0.02
   3      1.09695574    -0.28979627   -76.22739746    -0.00240520    -0.00010278  0.15D-04  0.36D-04  3  3     0.03
   4      1.09910707    -0.29056540   -76.22816658    -0.00076912    -0.00000877  0.30D-05  0.26D-05  4  4     0.04
   5      1.09954770    -0.29065785   -76.22825903    -0.00009245    -0.00000135  0.74D-06  0.28D-06  5  5     0.04
   6      1.09967277    -0.29067218   -76.22827336    -0.00001432    -0.00000020  0.12D-06  0.38D-07  6  6     0.05
   7      1.09970927    -0.29067545   -76.22827664    -0.00000328    -0.00000002  0.12D-07  0.44D-08  6  1     0.06
   8      1.09972100    -0.29067521   -76.22827639     0.00000024    -0.00000000  0.93D-09  0.54D-09  6  2     0.06
   9      1.09972296    -0.29067561   -76.22827679    -0.00000039    -0.00000000  0.40D-10  0.76D-10  6  3     0.07
  10      1.09972340    -0.29067538   -76.22827656     0.00000023    -0.00000000  0.34D-11  0.94D-11  6  4     0.08
  11      1.09972351    -0.29067545   -76.22827664    -0.00000008    -0.00000000  0.24D-12  0.86D-12  6  5     0.08
  12      1.09972352    -0.29067544   -76.22827662     0.00000002    -0.00000000  0.31D-13  0.89D-13  6  6     0.09
  13      1.09972348    -0.29067543   -76.22827661     0.00000001    -0.00000000  0.27D-14  0.66D-14  6  2     0.09
  14      1.09972347    -0.29067543   -76.22827661     0.00000000    -0.00000000  0.42D-15  0.38D-15  6  1     0.10
  15      1.09972346    -0.29067543   -76.22827661     0.00000000    -0.00000000  0.67D-16  0.47D-16  6  3     0.11
  16      1.09972346    -0.29067542   -76.22827661     0.00000000    -0.00000000  0.97D-17  0.43D-17  6  4     0.11
  17      1.09972346    -0.29067542   -76.22827661     0.00000000    -0.00000000  0.63D-18  0.40D-18  6  5     0.12
  18      1.09972346    -0.29067542   -76.22827661    -0.00000000    -0.00000000  0.76D-19  0.57D-19  6  6     0.13

 Norm of t1 vector:      0.05110520      S-energy:    -0.00000000      T1 diagnostic:  0.01277630
                                                                       D1 diagnostic:  0.02492526
 Norm of t2 vector:      0.31162754      P-energy:    -0.29067542
                                         Alpha-Beta:  -0.23444086
                                         Alpha-Alpha: -0.02811728
                                         Beta-Beta:   -0.02811728

 Doubles amplitudes (print threshold =  0.500E-01):

         I         J         SYM. A    SYM. B    A         B      T(IJ, AB) [Alpha-Beta]

         2         2         1         1         1         1     -0.05321192
         3         3         2         2         1         1     -0.05854143

 Spin contamination <S**2-Sz**2-Sz>     0.00000000

 Memory could be reduced to 0.78 Mwords without degradation in triples
 

 RESULTS
 =======

  Reference energy                    -75.937601181599
  UCCSD singles energy                 -0.000000000000
  UCCSD pair energy                    -0.290675424640
  UCCSD correlation energy             -0.290675424640
  Triples (T) contribution             -0.010826177687
  Total correlation energy             -0.301501602327
 
  RHF-UCCSD energy                    -76.228276606239
  RHF-UCCSD[T] energy                 -76.239533461527
  RHF-UCCSD-T energy                  -76.238825088324
 !RHF-UCCSD(T) energy                 -76.239102783926

 Program statistics:

 Available memory in ccsd:               999999146
 Min. memory needed in ccsd:                 67584
 Max. memory used in ccsd:                   84132
 Max. memory used in cckext:                106140 (18 integral passes)
 Max. memory used in cckint:                119873 ( 1 integral passes)



 **********************************************************************************************************************************
 DATASETS  * FILE   NREC   LENGTH (MB)   RECORD NAMES
              1      19        2.70       500      610      700      900      950      970     1000      129      960     1100   
                                          VAR    BASINP    GEOM    SYMINP    ZMAT    AOBASIS   BASIS     P2S    ABASIS      S 
                                         1400     1410     1200     1210     1080     1600     1650     1700     2100   
                                           T        V       H0       H01     AOSYM     SMH    MOLCAS    OPER      RHF  

              2       4        0.34       700     1000     2100     5600   
                                         GEOM     BASIS     RHF     GINFO   

 PROGRAMS   *        TOTAL  UCCSD(T)  UCCSD(T)       RHF       INT
 CPU TIMES  *         2.37      0.17      0.19      0.02      0.39
 REAL TIME  *         3.28 SEC
 DISK USED  *        31.45 MB      
 SF USED    *         5.59 MB      
 GA USED    *         0.00 MB       (max)       0.00 MB       (current)
 **********************************************************************************************************************************
 Starting task   2   Incrementing displacement  1 by -1.   CPU=    0.55 sec, Elapsed=    0.67 sec


 Recomputing integrals since geometry changed

1PROGRAM * SEWARD (Integral evaluation for generally contracted gaussian basis sets)     Author: Roland Lindh, 1990

 Geometry written to block  1 of record 700


 Point group  C2v 



 ATOMIC COORDINATES

 NR  ATOM    CHARGE       X              Y              Z

   1  H       1.00   -1.895262243    1.452549334    0.000000000
   2  H       1.00    1.895262243    1.452549334    0.000000000
   3  O       8.00    0.000000000    0.005079355    0.000000000

 Bond lengths in Bohr (Angstrom)

 1-3  2.384782655  2-3  2.384782655
     ( 1.261972629)     ( 1.261972629)

 Bond angles

  1-3-2  105.25983246

 NUCLEAR CHARGE:                   10
 NUMBER OF PRIMITIVE AOS:          81
 NUMBER OF SYMMETRY AOS:           74
 NUMBER OF CONTRACTIONS:           58   (  23A1  +  17B1  +  11B2  +   7A2  )
 NUMBER OF CORE ORBITALS:           1   (   1A1  +   0B1  +   0B2  +   0A2  )
 NUMBER OF VALENCE ORBITALS:        6   (   3A1  +   2B1  +   1B2  +   0A2  )


 NUCLEAR REPULSION ENERGY    6.97302253


 Eigenvalues of metric

         1 0.470E-02 0.109E-01 0.288E-01 0.547E-01 0.148E+00 0.187E+00 0.296E+00 0.355E+00
         2 0.790E-02 0.274E-01 0.548E-01 0.108E+00 0.189E+00 0.283E+00 0.366E+00 0.602E+00
         3 0.490E-01 0.180E+00 0.411E+00 0.472E+00 0.732E+00 0.904E+00 0.108E+01 0.115E+01
         4 0.250E+00 0.427E+00 0.740E+00 0.988E+00 0.116E+01 0.137E+01 0.199E+01


 Contracted 2-electron integrals neglected if value below      1.0D-16
 AO integral compression algorithm  1   Integral accuracy      1.0D-16

     4.719 MB (compressed) written to integral file (100.0%)

     Node minimum: 1.573 MB, node maximum: 1.573 MB


 NUMBER OF SORTED TWO-ELECTRON INTEGRALS:     132111.     BUFFER LENGTH:  32768
 NUMBER OF SEGMENTS:   1  SEGMENT LENGTH:     132111      RECORD LENGTH: 524288

 Memory used in sort:       0.69 MW

 SORT1 READ      546378. AND WROTE      121337. INTEGRALS IN      1 RECORDS. CPU TIME:     0.01 SEC, REAL TIME:     0.02 SEC
 SORT2 READ      367036. AND WROTE      396151. INTEGRALS IN     18 RECORDS. CPU TIME:     0.01 SEC, REAL TIME:     0.01 SEC

 Node minimum:      130764.  Node maximum:      133276. integrals

 OPERATOR DM      FOR CENTER  0  COORDINATES:    0.000000    0.000000    0.000000
1PROGRAM * RHF-SCF (CLOSED SHELL)       Authors: W. Meyer, H.-J. Werner


 NUMBER OF ELECTRONS:       5+    5-
 CONVERGENCE THRESHOLDS:    1.00E-10 (Density)    1.00E-11 (Energy)
 MAX. NUMBER OF ITERATIONS:      200
 INTERPOLATION TYPE:            DIIS
 INTERPOLATION STEPS:              2 (START)      1 (STEP)
 LEVEL SHIFTS:                  0.00 (CLOSED)  0.00 (OPEN) 

 Number of closed-shell orbitals:    5 (   3   1   1   0 )


 Molecular orbitals read from record     2100.2  Type=RHF/CANONICAL (state 1.1)

 Molecular orbital dump at record        2100.1

 ITERATION    DDIFF          GRAD             ENERGY        2-EL.EN.            DIPOLE MOMENTS         DIIS
    1      0.000D+00      0.000D+00       -75.93744583     72.099282    0.00000    0.85783    0.00000    0
    2      0.000D+00      0.101D-03       -75.93744727     72.101609    0.00000    0.85837    0.00000    1
    3      0.205D-03      0.231D-04       -75.93744743     72.099966    0.00000    0.85839    0.00000    2
    4      0.519D-04      0.952D-05       -75.93744745     72.101602    0.00000    0.85867    0.00000    3
    5      0.152D-04      0.583D-05       -75.93744746     72.101156    0.00000    0.85874    0.00000    4
    6      0.125D-04      0.149D-05       -75.93744746     72.101197    0.00000    0.85878    0.00000    5
    7      0.533D-05      0.331D-06       -75.93744746     72.101198    0.00000    0.85879    0.00000    6
    8      0.124D-05      0.706D-07       -75.93744746     72.101199    0.00000    0.85879    0.00000    7
    9      0.157D-06      0.128D-07       -75.93744746     72.101199    0.00000    0.85879    0.00000    7
   10      0.311D-07      0.241D-08       -75.93744746     72.101199    0.00000    0.85879    0.00000    7
   11      0.605D-08      0.308D-09       -75.93744746     72.101199    0.00000    0.85879    0.00000    6
   12      0.731D-09      0.599D-10       -75.93744746     72.101199    0.00000    0.85879    0.00000    5
   13      0.122D-09      0.164D-10       -75.93744746     72.101199    0.00000    0.85879    0.00000    5
   14      0.305D-10      0.128D-10       -75.93744746     72.101199    0.00000    0.85879    0.00000    0

 Final occupancy:   3   1   1   0

 !RHF STATE 1.1 Energy                -75.937447461964
 Nuclear energy                         6.97302253
 One-electron energy                 -118.96106969
 Two-electron energy                   36.05059969
 Virial quotient                       -1.00877307
 !RHF STATE 1.1 Dipole moment           0.00000000     0.85878688     0.00000000
 Dipole moment /Debye                   0.00000000     2.18267556     0.00000000

 Orbital energies:

         1.1          2.1          3.1          4.1          5.1
    -20.599689    -1.240967    -0.520045     0.092859     0.453189

         1.2          2.2          3.2
     -0.576973     0.156173     0.436267

         1.3          2.3          3.3
     -0.492261     0.744689     0.962280

         1.4          2.4
      0.801711     1.929044


 **********************************************************************************************************************************
 DATASETS  * FILE   NREC   LENGTH (MB)   RECORD NAMES
              1      19        2.70       500      610      700      900      950      970     1000      129      960     1100   
                                          VAR    BASINP    GEOM    SYMINP    ZMAT    AOBASIS   BASIS     P2S    ABASIS      S 
                                         1400     1410     1200     1210     1080     1600     1650     1700     2100   
                                           T        V       H0       H01     AOSYM     SMH    MOLCAS    OPER      RHF  

              2       4        0.34       700     1000     2100     5600   
                                         GEOM     BASIS     RHF     GINFO   

 PROGRAMS   *        TOTAL       RHF  UCCSD(T)       RHF       INT
 CPU TIMES  *         2.70      0.32      0.19      0.02      0.39
 REAL TIME  *         3.67 SEC
 DISK USED  *        31.45 MB      
 SF USED    *         5.59 MB      
 GA USED    *         0.00 MB       (max)       0.00 MB       (current)
 **********************************************************************************************************************************


1PROGRAM * CCSD (Unrestricted open-shell coupled cluster)     Authors: C. Hampel, H.-J. Werner, 1991, M. Deegan, P.J. Knowles, 1992


 Convergence thresholds:  THRVAR = 1.00D-14  THRDEN = 1.00D-10

 CCSD(T)     terms to be evaluated (factor= 1.000)


 Number of core orbitals:           1 (   1   0   0   0 )
 Number of closed-shell orbitals:   4 (   2   1   1   0 )
 Number of external orbitals:      53 (  20  16  10   7 )

 Memory could be reduced to 0.79 Mwords without degradation in triples

 Number of N-1 electron functions:               8
 Number of N-2 electron functions:              28
 Number of singly external CSFs:               132
 Number of doubly external CSFs:             15806
 Total number of CSFs:                       15938

 Molecular orbitals read from record     2100.1  Type=RHF/CANONICAL (state 1.1)

 Integral transformation finished. Total CPU:   0.01 sec, npass=  1  Memory used:   0.12 MW

 Starting RMP2 calculation

 ITER.      SQ.NORM     CORR.ENERGY   TOTAL ENERGY   ENERGY CHANGE        DEN1      VAR(S)    VAR(P)  DIIS     TIME
   1      1.08413577    -0.28471374   -76.22216120    -0.28471374    -0.00104748  0.25D-21  0.44D-03  1  1     0.01
   2      1.08518786    -0.28583986   -76.22328733    -0.00112612    -0.00000129  0.42D-23  0.69D-06  2  2     0.01
   3      1.08521848    -0.28585945   -76.22330691    -0.00001959    -0.00000000  0.63D-25  0.12D-08  3  3     0.01
   4      1.08521896    -0.28585959   -76.22330705    -0.00000014    -0.00000000  0.81D-27  0.14D-11  4  4     0.01
   5      1.08521896    -0.28585959   -76.22330705    -0.00000000    -0.00000000  0.12D-28  0.19D-14  5  5     0.01
   6      1.08521896    -0.28585959   -76.22330705     0.00000000    -0.00000000  0.16D-30  0.31D-17  6  6     0.01

 Norm of t1 vector:      0.00000000      S-energy:    -0.00000000      T1 diagnostic:  0.00000000
 Norm of t2 vector:      0.29192287      P-energy:    -0.28585959
                                         Alpha-Beta:  -0.21787452
                                         Alpha-Alpha: -0.03399253
                                         Beta-Beta:   -0.03399253

 Spin contamination <S**2-Sz**2-Sz>     0.00000000
  Reference energy                    -75.937447461965
  RHF-RMP2 correlation energy          -0.285859590997
 !RHF-RMP2 energy                     -76.223307052962

 Starting UCCSD calculation

 ITER.      SQ.NORM     CORR.ENERGY   TOTAL ENERGY   ENERGY CHANGE        DEN1      VAR(S)    VAR(P)  DIIS     TIME
   1      1.08230656    -0.27890894   -76.21635641    -0.27890894    -0.00878781  0.10D-02  0.19D-02  1  1     0.02
   2      1.09162747    -0.28726829   -76.22471575    -0.00835934    -0.00102509  0.67D-04  0.41D-03  2  2     0.03
   3      1.09685300    -0.28966972   -76.22711718    -0.00240143    -0.00010304  0.16D-04  0.36D-04  3  3     0.03
   4      1.09901035    -0.29043810   -76.22788556    -0.00076838    -0.00000900  0.32D-05  0.27D-05  4  4     0.04
   5      1.09946166    -0.29053188   -76.22797934    -0.00009377    -0.00000142  0.79D-06  0.29D-06  5  5     0.05
   6      1.09959381    -0.29054690   -76.22799436    -0.00001502    -0.00000021  0.12D-06  0.40D-07  6  6     0.05
   7      1.09963243    -0.29055035   -76.22799781    -0.00000345    -0.00000002  0.12D-07  0.46D-08  6  1     0.06
   8      1.09964460    -0.29055012   -76.22799759     0.00000022    -0.00000000  0.93D-09  0.56D-09  6  2     0.07
   9      1.09964662    -0.29055052   -76.22799799    -0.00000040    -0.00000000  0.39D-10  0.78D-10  6  3     0.07
  10      1.09964708    -0.29055030   -76.22799776     0.00000023    -0.00000000  0.33D-11  0.96D-11  6  4     0.08
  11      1.09964718    -0.29055037   -76.22799784    -0.00000008    -0.00000000  0.24D-12  0.87D-12  6  5     0.09
  12      1.09964719    -0.29055036   -76.22799782     0.00000002    -0.00000000  0.33D-13  0.91D-13  6  6     0.09
  13      1.09964715    -0.29055035   -76.22799781     0.00000001    -0.00000000  0.27D-14  0.68D-14  6  2     0.10
  14      1.09964714    -0.29055035   -76.22799781     0.00000000    -0.00000000  0.42D-15  0.38D-15  6  1     0.11
  15      1.09964714    -0.29055034   -76.22799781     0.00000000    -0.00000000  0.67D-16  0.48D-16  6  3     0.12
  16      1.09964713    -0.29055034   -76.22799781     0.00000000    -0.00000000  0.98D-17  0.42D-17  6  4     0.12
  17      1.09964713    -0.29055034   -76.22799781     0.00000000    -0.00000000  0.60D-18  0.39D-18  6  5     0.13
  18      1.09964713    -0.29055034   -76.22799781    -0.00000000    -0.00000000  0.72D-19  0.56D-19  6  6     0.14

 Norm of t1 vector:      0.05133915      S-energy:     0.00000000      T1 diagnostic:  0.01283479
                                                                       D1 diagnostic:  0.02528171
 Norm of t2 vector:      0.31146657      P-energy:    -0.29055034
                                         Alpha-Beta:  -0.23433156
                                         Alpha-Alpha: -0.02810939
                                         Beta-Beta:   -0.02810939

 Doubles amplitudes (print threshold =  0.500E-01):

         I         J         SYM. A    SYM. B    A         B      T(IJ, AB) [Alpha-Beta]

         2         2         1         1         1         1     -0.05323399
         3         3         2         2         1         1     -0.05807231

 Spin contamination <S**2-Sz**2-Sz>     0.00000000

 Memory could be reduced to 0.78 Mwords without degradation in triples
 

 RESULTS
 =======

  Reference energy                    -75.937447461965
  UCCSD singles energy                  0.000000000000
  UCCSD pair energy                    -0.290550343920
  UCCSD correlation energy             -0.290550343919
  Triples (T) contribution             -0.010810253175
  Total correlation energy             -0.301360597094
 
  RHF-UCCSD energy                    -76.227997805884
  RHF-UCCSD[T] energy                 -76.239237481808
  RHF-UCCSD-T energy                  -76.238531658164
 !RHF-UCCSD(T) energy                 -76.238808059058

 Program statistics:

 Available memory in ccsd:               999999146
 Min. memory needed in ccsd:                 67584
 Max. memory used in ccsd:                   84132
 Max. memory used in cckext:                106140 (18 integral passes)
 Max. memory used in cckint:                119873 ( 1 integral passes)



 **********************************************************************************************************************************
 DATASETS  * FILE   NREC   LENGTH (MB)   RECORD NAMES
              1      19        2.70       500      610      700      900      950      970     1000      129      960     1100   
                                          VAR    BASINP    GEOM    SYMINP    ZMAT    AOBASIS   BASIS     P2S    ABASIS      S 
                                         1400     1410     1200     1210     1080     1600     1650     1700     2100   
                                           T        V       H0       H01     AOSYM     SMH    MOLCAS    OPER      RHF  

              2       4        0.34       700     1000     2100     5600   
                                         GEOM     BASIS     RHF     GINFO   

 PROGRAMS   *        TOTAL  UCCSD(T)  UCCSD(T)       RHF       INT
 CPU TIMES  *         2.89      0.18      0.19      0.02      0.39
 REAL TIME  *         3.93 SEC
 DISK USED  *        31.45 MB      
 SF USED    *         5.59 MB      
 GA USED    *         0.00 MB       (max)       0.00 MB       (current)
 **********************************************************************************************************************************
 Starting task   3   Incrementing displacement  2 by  1.   CPU=    1.10 sec, Elapsed=    1.32 sec


 Recomputing integrals since geometry changed

1PROGRAM * SEWARD (Integral evaluation for generally contracted gaussian basis sets)     Author: Roland Lindh, 1990

 Geometry written to block  1 of record 700


 Point group  C2v 



 ATOMIC COORDINATES

 NR  ATOM    CHARGE       X              Y              Z

   1  H       1.00   -1.885327138    1.451892653    0.000000000
   2  H       1.00    1.885327138    1.451892653    0.000000000
   3  O       8.00    0.000000000    0.006392716    0.000000000

 Bond lengths in Bohr (Angstrom)

 1-3  2.375695369  2-3  2.375695369
     ( 1.257163845)     ( 1.257163845)

 Bond angles

  1-3-2  105.04448417

 NUCLEAR CHARGE:                   10
 NUMBER OF PRIMITIVE AOS:          81
 NUMBER OF SYMMETRY AOS:           74
 NUMBER OF CONTRACTIONS:           58   (  23A1  +  17B1  +  11B2  +   7A2  )
 NUMBER OF CORE ORBITALS:           1   (   1A1  +   0B1  +   0B2  +   0A2  )
 NUMBER OF VALENCE ORBITALS:        6   (   3A1  +   2B1  +   1B2  +   0A2  )


 NUCLEAR REPULSION ENERGY    7.00007619


 Eigenvalues of metric

         1 0.466E-02 0.108E-01 0.284E-01 0.546E-01 0.147E+00 0.186E+00 0.295E+00 0.353E+00
         2 0.784E-02 0.270E-01 0.547E-01 0.107E+00 0.187E+00 0.282E+00 0.365E+00 0.599E+00
         3 0.490E-01 0.179E+00 0.410E+00 0.472E+00 0.728E+00 0.901E+00 0.108E+01 0.115E+01
         4 0.249E+00 0.425E+00 0.736E+00 0.988E+00 0.116E+01 0.137E+01 0.200E+01


 Contracted 2-electron integrals neglected if value below      1.0D-16
 AO integral compression algorithm  1   Integral accuracy      1.0D-16

     4.719 MB (compressed) written to integral file (100.0%)

     Node minimum: 1.573 MB, node maximum: 1.573 MB


 NUMBER OF SORTED TWO-ELECTRON INTEGRALS:     132111.     BUFFER LENGTH:  32768
 NUMBER OF SEGMENTS:   1  SEGMENT LENGTH:     132111      RECORD LENGTH: 524288

 Memory used in sort:       0.69 MW

 SORT1 READ      546378. AND WROTE      121337. INTEGRALS IN      1 RECORDS. CPU TIME:     0.01 SEC, REAL TIME:     0.02 SEC
 SORT2 READ      367036. AND WROTE      396151. INTEGRALS IN     18 RECORDS. CPU TIME:     0.00 SEC, REAL TIME:     0.01 SEC

 Node minimum:      130764.  Node maximum:      133276. integrals

 OPERATOR DM      FOR CENTER  0  COORDINATES:    0.000000    0.000000    0.000000
1PROGRAM * RHF-SCF (CLOSED SHELL)       Authors: W. Meyer, H.-J. Werner


 NUMBER OF ELECTRONS:       5+    5-
 CONVERGENCE THRESHOLDS:    1.00E-10 (Density)    1.00E-11 (Energy)
 MAX. NUMBER OF ITERATIONS:      200
 INTERPOLATION TYPE:            DIIS
 INTERPOLATION STEPS:              2 (START)      1 (STEP)
 LEVEL SHIFTS:                  0.00 (CLOSED)  0.00 (OPEN) 

 Number of closed-shell orbitals:    5 (   3   1   1   0 )


 Molecular orbitals read from record     2100.2  Type=RHF/CANONICAL (state 1.1)

 Molecular orbital dump at record        2100.1

 ITERATION    DDIFF          GRAD             ENERGY        2-EL.EN.            DIPOLE MOMENTS         DIIS
    1      0.000D+00      0.000D+00       -75.94008843     72.126028    0.00000    0.85598    0.00000    0
    2      0.000D+00      0.236D-03       -75.94009555     72.158041    0.00000    0.85909    0.00000    1
    3      0.536D-03      0.110D-03       -75.94009668     72.140016    0.00000    0.85806    0.00000    2
    4      0.156D-03      0.466D-04       -75.94009707     72.147629    0.00000    0.85940    0.00000    3
    5      0.645D-04      0.127D-04       -75.94009713     72.147192    0.00000    0.85968    0.00000    4
    6      0.288D-04      0.366D-05       -75.94009714     72.147240    0.00000    0.85982    0.00000    5
    7      0.118D-04      0.107D-05       -75.94009714     72.147245    0.00000    0.85983    0.00000    6
    8      0.378D-05      0.220D-06       -75.94009714     72.147248    0.00000    0.85983    0.00000    7
    9      0.669D-06      0.372D-07       -75.94009714     72.147248    0.00000    0.85983    0.00000    7
   10      0.100D-06      0.506D-08       -75.94009714     72.147248    0.00000    0.85983    0.00000    6
   11      0.136D-07      0.742D-09       -75.94009714     72.147248    0.00000    0.85983    0.00000    6
   12      0.158D-08      0.468D-09       -75.94009714     72.147248    0.00000    0.85983    0.00000    6
   13      0.584D-09      0.449D-10       -75.94009714     72.147248    0.00000    0.85983    0.00000    6
   14      0.710D-10      0.127D-10       -75.94009714     72.147248    0.00000    0.85983    0.00000    0

 Final occupancy:   3   1   1   0

 !RHF STATE 1.1 Energy                -75.940097137557
 Nuclear energy                         7.00007619
 One-electron energy                 -119.01379716
 Two-electron energy                   36.07362383
 Virial quotient                       -1.00872051
 !RHF STATE 1.1 Dipole moment           0.00000000     0.85983205     0.00000000
 Dipole moment /Debye                   0.00000000     2.18533194     0.00000000

 Orbital energies:

         1.1          2.1          3.1          4.1          5.1
    -20.599223    -1.242038    -0.521216     0.093932     0.455227

         1.2          2.2          3.2
     -0.578426     0.157167     0.437177

         1.3          2.3          3.3
     -0.492370     0.745384     0.961541

         1.4          2.4
      0.802857     1.930813


 **********************************************************************************************************************************
 DATASETS  * FILE   NREC   LENGTH (MB)   RECORD NAMES
              1      19        2.70       500      610      700      900      950      970     1000      129      960     1100   
                                          VAR    BASINP    GEOM    SYMINP    ZMAT    AOBASIS   BASIS     P2S    ABASIS      S 
                                         1400     1410     1200     1210     1080     1600     1650     1700     2100   
                                           T        V       H0       H01     AOSYM     SMH    MOLCAS    OPER      RHF  

              2       4        0.34       700     1000     2100     5600   
                                         GEOM     BASIS     RHF     GINFO   

 PROGRAMS   *        TOTAL       RHF  UCCSD(T)       RHF       INT
 CPU TIMES  *         3.22      0.32      0.19      0.02      0.39
 REAL TIME  *         4.32 SEC
 DISK USED  *        31.45 MB      
 SF USED    *         5.59 MB      
 GA USED    *         0.00 MB       (max)       0.00 MB       (current)
 **********************************************************************************************************************************


1PROGRAM * CCSD (Unrestricted open-shell coupled cluster)     Authors: C. Hampel, H.-J. Werner, 1991, M. Deegan, P.J. Knowles, 1992


 Convergence thresholds:  THRVAR = 1.00D-14  THRDEN = 1.00D-10

 CCSD(T)     terms to be evaluated (factor= 1.000)


 Number of core orbitals:           1 (   1   0   0   0 )
 Number of closed-shell orbitals:   4 (   2   1   1   0 )
 Number of external orbitals:      53 (  20  16  10   7 )

 Memory could be reduced to 0.79 Mwords without degradation in triples

 Number of N-1 electron functions:               8
 Number of N-2 electron functions:              28
 Number of singly external CSFs:               132
 Number of doubly external CSFs:             15806
 Total number of CSFs:                       15938

 Molecular orbitals read from record     2100.1  Type=RHF/CANONICAL (state 1.1)

 Integral transformation finished. Total CPU:   0.01 sec, npass=  1  Memory used:   0.12 MW

 Starting RMP2 calculation

 ITER.      SQ.NORM     CORR.ENERGY   TOTAL ENERGY   ENERGY CHANGE        DEN1      VAR(S)    VAR(P)  DIIS     TIME
   1      1.08367987    -0.28433218   -76.22442931    -0.28433218    -0.00103753  0.15D-21  0.44D-03  1  1     0.01
   2      1.08471551    -0.28544724   -76.22554438    -0.00111506    -0.00000126  0.23D-23  0.67D-06  2  2     0.01
   3      1.08474535    -0.28546643   -76.22556357    -0.00001919    -0.00000000  0.33D-25  0.12D-08  3  3     0.01
   4      1.08474582    -0.28546657   -76.22556370    -0.00000014    -0.00000000  0.41D-27  0.13D-11  4  4     0.01
   5      1.08474582    -0.28546657   -76.22556370    -0.00000000    -0.00000000  0.59D-29  0.18D-14  5  5     0.01
   6      1.08474582    -0.28546657   -76.22556370     0.00000000    -0.00000000  0.80D-31  0.29D-17  6  6     0.01

 Norm of t1 vector:      0.00000000      S-energy:    -0.00000000      T1 diagnostic:  0.00000000
 Norm of t2 vector:      0.29111135      P-energy:    -0.28546657
                                         Alpha-Beta:  -0.21753968
                                         Alpha-Alpha: -0.03396344
                                         Beta-Beta:   -0.03396344

 Spin contamination <S**2-Sz**2-Sz>     0.00000000
  Reference energy                    -75.940097137557
  RHF-RMP2 correlation energy          -0.285466566368
 !RHF-RMP2 energy                     -76.225563703925

 Starting UCCSD calculation

 ITER.      SQ.NORM     CORR.ENERGY   TOTAL ENERGY   ENERGY CHANGE        DEN1      VAR(S)    VAR(P)  DIIS     TIME
   1      1.08188467    -0.27863865   -76.21873578    -0.27863865    -0.00870865  0.10D-02  0.19D-02  1  1     0.02
   2      1.09106422    -0.28692924   -76.22702638    -0.00829060    -0.00100620  0.65D-04  0.40D-03  2  2     0.03
   3      1.09616069    -0.28928968   -76.22938682    -0.00236044    -0.00010031  0.15D-04  0.35D-04  3  3     0.03
   4      1.09824883    -0.29003958   -76.23013672    -0.00074990    -0.00000866  0.30D-05  0.26D-05  4  4     0.04
   5      1.09868142    -0.29013012   -76.23022726    -0.00009054    -0.00000135  0.75D-06  0.27D-06  5  5     0.05
   6      1.09880668    -0.29014437   -76.23024150    -0.00001425    -0.00000020  0.12D-06  0.37D-07  6  6     0.05
   7      1.09884342    -0.29014764   -76.23024478    -0.00000328    -0.00000002  0.11D-07  0.43D-08  6  1     0.06
   8      1.09885511    -0.29014744   -76.23024458     0.00000020    -0.00000000  0.88D-09  0.54D-09  6  2     0.07
   9      1.09885705    -0.29014783   -76.23024497    -0.00000039    -0.00000000  0.36D-10  0.73D-10  6  3     0.07
  10      1.09885750    -0.29014761   -76.23024475     0.00000022    -0.00000000  0.31D-11  0.89D-11  6  4     0.08
  11      1.09885760    -0.29014769   -76.23024482    -0.00000007    -0.00000000  0.23D-12  0.80D-12  6  5     0.09
  12      1.09885761    -0.29014767   -76.23024481     0.00000002    -0.00000000  0.31D-13  0.83D-13  6  6     0.09
  13      1.09885757    -0.29014766   -76.23024480     0.00000001    -0.00000000  0.24D-14  0.62D-14  6  2     0.10
  14      1.09885756    -0.29014766   -76.23024480     0.00000000    -0.00000000  0.38D-15  0.35D-15  6  1     0.10
  15      1.09885755    -0.29014766   -76.23024479     0.00000000    -0.00000000  0.60D-16  0.43D-16  6  3     0.11
  16      1.09885755    -0.29014766   -76.23024479     0.00000000    -0.00000000  0.88D-17  0.37D-17  6  4     0.12
  17      1.09885755    -0.29014766   -76.23024479     0.00000000    -0.00000000  0.54D-18  0.34D-18  6  5     0.13
  18      1.09885755    -0.29014766   -76.23024479    -0.00000000    -0.00000000  0.64D-19  0.49D-19  6  6     0.13

 Norm of t1 vector:      0.05073539      S-energy:    -0.00000000      T1 diagnostic:  0.01268385
                                                                       D1 diagnostic:  0.02485869
 Norm of t2 vector:      0.31029578      P-energy:    -0.29014766
                                         Alpha-Beta:  -0.23389695
                                         Alpha-Alpha: -0.02812535
                                         Beta-Beta:   -0.02812535

 Doubles amplitudes (print threshold =  0.500E-01):

         I         J         SYM. A    SYM. B    A         B      T(IJ, AB) [Alpha-Beta]

         2         2         1         1         1         1     -0.05220197
         3         3         2         2         1         1     -0.05728394

 Spin contamination <S**2-Sz**2-Sz>     0.00000000

 Memory could be reduced to 0.78 Mwords without degradation in triples
 

 RESULTS
 =======

  Reference energy                    -75.940097137557
  UCCSD singles energy                 -0.000000000000
  UCCSD pair energy                    -0.290147656712
  UCCSD correlation energy             -0.290147656712
  Triples (T) contribution             -0.010749297591
  Total correlation energy             -0.300896954303
 
  RHF-UCCSD energy                    -76.230244794269
  RHF-UCCSD[T] energy                 -76.241418514204
  RHF-UCCSD-T energy                  -76.240720052904
 !RHF-UCCSD(T) energy                 -76.240994091860

 Program statistics:

 Available memory in ccsd:               999999146
 Min. memory needed in ccsd:                 67584
 Max. memory used in ccsd:                   84132
 Max. memory used in cckext:                106140 (18 integral passes)
 Max. memory used in cckint:                119873 ( 1 integral passes)



 **********************************************************************************************************************************
 DATASETS  * FILE   NREC   LENGTH (MB)   RECORD NAMES
              1      19        2.70       500      610      700      900      950      970     1000      129      960     1100   
                                          VAR    BASINP    GEOM    SYMINP    ZMAT    AOBASIS   BASIS     P2S    ABASIS      S 
                                         1400     1410     1200     1210     1080     1600     1650     1700     2100   
                                           T        V       H0       H01     AOSYM     SMH    MOLCAS    OPER      RHF  

              2       4        0.34       700     1000     2100     5600   
                                         GEOM     BASIS     RHF     GINFO   

 PROGRAMS   *        TOTAL  UCCSD(T)  UCCSD(T)       RHF       INT
 CPU TIMES  *         3.39      0.17      0.19      0.02      0.39
 REAL TIME  *         4.58 SEC
 DISK USED  *        31.45 MB      
 SF USED    *         5.59 MB      
 GA USED    *         0.00 MB       (max)       0.00 MB       (current)
 **********************************************************************************************************************************
 Starting task   4   Incrementing displacement  2 by -1.   CPU=    1.64 sec, Elapsed=    1.97 sec


 Recomputing integrals since geometry changed

1PROGRAM * SEWARD (Integral evaluation for generally contracted gaussian basis sets)     Author: Roland Lindh, 1990

 Geometry written to block  1 of record 700


 Point group  C2v 



 ATOMIC COORDINATES

 NR  ATOM    CHARGE       X              Y              Z

   1  H       1.00   -1.894124839    1.458285369    0.000000000
   2  H       1.00    1.894124839    1.458285369    0.000000000
   3  O       8.00    0.000000000   -0.006392716    0.000000000

 Bond lengths in Bohr (Angstrom)

 1-3  2.394366471  2-3  2.394366471
     ( 1.267044167)     ( 1.267044167)

 Bond angles

  1-3-2  104.57227956

 NUCLEAR CHARGE:                   10
 NUMBER OF PRIMITIVE AOS:          81
 NUMBER OF SYMMETRY AOS:           74
 NUMBER OF CONTRACTIONS:           58   (  23A1  +  17B1  +  11B2  +   7A2  )
 NUMBER OF CORE ORBITALS:           1   (   1A1  +   0B1  +   0B2  +   0A2  )
 NUMBER OF VALENCE ORBITALS:        6   (   3A1  +   2B1  +   1B2  +   0A2  )


 NUCLEAR REPULSION ENERGY    6.94632633


 Eigenvalues of metric

         1 0.475E-02 0.109E-01 0.292E-01 0.549E-01 0.148E+00 0.190E+00 0.298E+00 0.356E+00
         2 0.796E-02 0.278E-01 0.551E-01 0.108E+00 0.191E+00 0.285E+00 0.367E+00 0.608E+00
         3 0.491E-01 0.181E+00 0.412E+00 0.472E+00 0.737E+00 0.906E+00 0.108E+01 0.114E+01
         4 0.253E+00 0.428E+00 0.743E+00 0.989E+00 0.116E+01 0.137E+01 0.199E+01


 Contracted 2-electron integrals neglected if value below      1.0D-16
 AO integral compression algorithm  1   Integral accuracy      1.0D-16

     4.719 MB (compressed) written to integral file (100.0%)

     Node minimum: 1.573 MB, node maximum: 1.573 MB


 NUMBER OF SORTED TWO-ELECTRON INTEGRALS:     132111.     BUFFER LENGTH:  32768
 NUMBER OF SEGMENTS:   1  SEGMENT LENGTH:     132111      RECORD LENGTH: 524288

 Memory used in sort:       0.69 MW

 SORT1 READ      546378. AND WROTE      121337. INTEGRALS IN      1 RECORDS. CPU TIME:     0.01 SEC, REAL TIME:     0.02 SEC
 SORT2 READ      367036. AND WROTE      396151. INTEGRALS IN     18 RECORDS. CPU TIME:     0.00 SEC, REAL TIME:     0.01 SEC

 Node minimum:      130764.  Node maximum:      133276. integrals

 OPERATOR DM      FOR CENTER  0  COORDINATES:    0.000000    0.000000    0.000000
1PROGRAM * RHF-SCF (CLOSED SHELL)       Authors: W. Meyer, H.-J. Werner


 NUMBER OF ELECTRONS:       5+    5-
 CONVERGENCE THRESHOLDS:    1.00E-10 (Density)    1.00E-11 (Energy)
 MAX. NUMBER OF ITERATIONS:      200
 INTERPOLATION TYPE:            DIIS
 INTERPOLATION STEPS:              2 (START)      1 (STEP)
 LEVEL SHIFTS:                  0.00 (CLOSED)  0.00 (OPEN) 

 Number of closed-shell orbitals:    5 (   3   1   1   0 )


 Molecular orbitals read from record     2100.2  Type=RHF/CANONICAL (state 1.1)

 Molecular orbital dump at record        2100.1

 ITERATION    DDIFF          GRAD             ENERGY        2-EL.EN.            DIPOLE MOMENTS         DIIS
    1      0.000D+00      0.000D+00       -75.93495227     72.069682    0.00000    0.86848    0.00000    0
    2      0.000D+00      0.235D-03       -75.93495930     72.037607    0.00000    0.86530    0.00000    1
    3      0.532D-03      0.110D-03       -75.93496044     72.055785    0.00000    0.86639    0.00000    2
    4      0.156D-03      0.468D-04       -75.93496083     72.048096    0.00000    0.86503    0.00000    3
    5      0.646D-04      0.127D-04       -75.93496089     72.048542    0.00000    0.86475    0.00000    4
    6      0.290D-04      0.371D-05       -75.93496089     72.048494    0.00000    0.86461    0.00000    5
    7      0.121D-04      0.110D-05       -75.93496089     72.048488    0.00000    0.86459    0.00000    6
    8      0.397D-05      0.229D-06       -75.93496089     72.048486    0.00000    0.86459    0.00000    7
    9      0.707D-06      0.382D-07       -75.93496089     72.048486    0.00000    0.86459    0.00000    7
   10      0.104D-06      0.517D-08       -75.93496089     72.048486    0.00000    0.86459    0.00000    6
   11      0.139D-07      0.788D-09       -75.93496089     72.048486    0.00000    0.86459    0.00000    6
   12      0.166D-08      0.497D-09       -75.93496089     72.048486    0.00000    0.86459    0.00000    6
   13      0.622D-09      0.465D-10       -75.93496089     72.048486    0.00000    0.86459    0.00000    6
   14      0.729D-10      0.128D-10       -75.93496089     72.048486    0.00000    0.86459    0.00000    0

 Final occupancy:   3   1   1   0

 !RHF STATE 1.1 Energy                -75.934960894332
 Nuclear energy                         6.94632633
 One-electron energy                 -118.90553005
 Two-electron energy                   36.02424283
 Virial quotient                       -1.00882076
 !RHF STATE 1.1 Dipole moment           0.00000000     0.86459107     0.00000000
 Dipole moment /Debye                   0.00000000     2.19742736     0.00000000

 Orbital energies:

         1.1          2.1          3.1          4.1          5.1
    -20.600799    -1.240341    -0.520181     0.092039     0.453163

         1.2          2.2          3.2
     -0.574617     0.154793     0.434107

         1.3          2.3          3.3
     -0.492584     0.743217     0.960743

         1.4          2.4
      0.802119     1.925621


 **********************************************************************************************************************************
 DATASETS  * FILE   NREC   LENGTH (MB)   RECORD NAMES
              1      19        2.70       500      610      700      900      950      970     1000      129      960     1100   
                                          VAR    BASINP    GEOM    SYMINP    ZMAT    AOBASIS   BASIS     P2S    ABASIS      S 
                                         1400     1410     1200     1210     1080     1600     1650     1700     2100   
                                           T        V       H0       H01     AOSYM     SMH    MOLCAS    OPER      RHF  

              2       4        0.34       700     1000     2100     5600   
                                         GEOM     BASIS     RHF     GINFO   

 PROGRAMS   *        TOTAL       RHF  UCCSD(T)       RHF       INT
 CPU TIMES  *         3.72      0.32      0.19      0.02      0.39
 REAL TIME  *         4.97 SEC
 DISK USED  *        31.45 MB      
 SF USED    *         5.59 MB      
 GA USED    *         0.00 MB       (max)       0.00 MB       (current)
 **********************************************************************************************************************************


1PROGRAM * CCSD (Unrestricted open-shell coupled cluster)     Authors: C. Hampel, H.-J. Werner, 1991, M. Deegan, P.J. Knowles, 1992


 Convergence thresholds:  THRVAR = 1.00D-14  THRDEN = 1.00D-10

 CCSD(T)     terms to be evaluated (factor= 1.000)


 Number of core orbitals:           1 (   1   0   0   0 )
 Number of closed-shell orbitals:   4 (   2   1   1   0 )
 Number of external orbitals:      53 (  20  16  10   7 )

 Memory could be reduced to 0.79 Mwords without degradation in triples

 Number of N-1 electron functions:               8
 Number of N-2 electron functions:              28
 Number of singly external CSFs:               132
 Number of doubly external CSFs:             15806
 Total number of CSFs:                       15938

 Molecular orbitals read from record     2100.1  Type=RHF/CANONICAL (state 1.1)

 Integral transformation finished. Total CPU:   0.00 sec, npass=  1  Memory used:   0.12 MW

 Starting RMP2 calculation

 ITER.      SQ.NORM     CORR.ENERGY   TOTAL ENERGY   ENERGY CHANGE        DEN1      VAR(S)    VAR(P)  DIIS     TIME
   1      1.08472907    -0.28526303   -76.22022393    -0.28526303    -0.00106017  0.15D-21  0.45D-03  1  1     0.00
   2      1.08580177    -0.28640326   -76.22136416    -0.00114023    -0.00000133  0.24D-23  0.72D-06  2  2     0.01
   3      1.08583330    -0.28642332   -76.22138421    -0.00002006    -0.00000000  0.34D-25  0.12D-08  3  3     0.01
   4      1.08583380    -0.28642346   -76.22138436    -0.00000014    -0.00000000  0.42D-27  0.14D-11  4  4     0.01
   5      1.08583380    -0.28642346   -76.22138436    -0.00000000    -0.00000000  0.61D-29  0.20D-14  5  5     0.01
   6      1.08583380    -0.28642346   -76.22138436     0.00000000    -0.00000000  0.83D-31  0.31D-17  6  6     0.01

 Norm of t1 vector:      0.00000000      S-energy:    -0.00000000      T1 diagnostic:  0.00000000
 Norm of t2 vector:      0.29297406      P-energy:    -0.28642346
                                         Alpha-Beta:  -0.21833380
                                         Alpha-Alpha: -0.03404483
                                         Beta-Beta:   -0.03404483

 Spin contamination <S**2-Sz**2-Sz>     0.00000000
  Reference energy                    -75.934960894332
  RHF-RMP2 correlation energy          -0.286423464662
 !RHF-RMP2 energy                     -76.221384358995

 Starting UCCSD calculation

 ITER.      SQ.NORM     CORR.ENERGY   TOTAL ENERGY   ENERGY CHANGE        DEN1      VAR(S)    VAR(P)  DIIS     TIME
   1      1.08281830    -0.27928827   -76.21424917    -0.27928827    -0.00888615  0.11D-02  0.20D-02  1  1     0.01
   2      1.09229298    -0.28772972   -76.22269062    -0.00844145    -0.00104660  0.68D-04  0.42D-03  2  2     0.02
   3      1.09765346    -0.29017640   -76.22513729    -0.00244667    -0.00010555  0.16D-04  0.37D-04  3  3     0.03
   4      1.09987540    -0.29096431   -76.22592521    -0.00078792    -0.00000911  0.31D-05  0.27D-05  4  4     0.03
   5      1.10033485    -0.29106003   -76.22602093    -0.00009572    -0.00000142  0.78D-06  0.30D-06  5  5     0.04
   6      1.10046672    -0.29107512   -76.22603602    -0.00001509    -0.00000021  0.12D-06  0.41D-07  6  6     0.05
   7      1.10050509    -0.29107857   -76.22603947    -0.00000345    -0.00000002  0.12D-07  0.47D-08  6  1     0.05
   8      1.10051731    -0.29107831   -76.22603921     0.00000026    -0.00000000  0.99D-09  0.57D-09  6  2     0.06
   9      1.10051933    -0.29107872   -76.22603961    -0.00000040    -0.00000000  0.43D-10  0.81D-10  6  3     0.07
  10      1.10051979    -0.29107848   -76.22603937     0.00000024    -0.00000000  0.37D-11  0.10D-10  6  4     0.08
  11      1.10051990    -0.29107856   -76.22603945    -0.00000008    -0.00000000  0.26D-12  0.93D-12  6  5     0.08
  12      1.10051991    -0.29107854   -76.22603944     0.00000002    -0.00000000  0.33D-13  0.98D-13  6  6     0.09
  13      1.10051987    -0.29107853   -76.22603943     0.00000001    -0.00000000  0.30D-14  0.73D-14  6  2     0.09
  14      1.10051986    -0.29107853   -76.22603943     0.00000000    -0.00000000  0.46D-15  0.42D-15  6  1     0.10
  15      1.10051986    -0.29107853   -76.22603942     0.00000000    -0.00000000  0.75D-16  0.53D-16  6  3     0.11
  16      1.10051985    -0.29107853   -76.22603942     0.00000000    -0.00000000  0.11D-16  0.49D-17  6  4     0.11
  17      1.10051985    -0.29107853   -76.22603942     0.00000000    -0.00000000  0.70D-18  0.46D-18  6  5     0.12
  18      1.10051985    -0.29107853   -76.22603942    -0.00000000    -0.00000000  0.86D-19  0.65D-19  6  6     0.13

 Norm of t1 vector:      0.05170295      S-energy:     0.00000000      T1 diagnostic:  0.01292574
                                                                       D1 diagnostic:  0.02534375
 Norm of t2 vector:      0.31280451      P-energy:    -0.29107853
                                         Alpha-Beta:  -0.23487691
                                         Alpha-Alpha: -0.02810081
                                         Beta-Beta:   -0.02810081

 Doubles amplitudes (print threshold =  0.500E-01):

         I         J         SYM. A    SYM. B    A         B      T(IJ, AB) [Alpha-Beta]

         2         2         1         1         1         1     -0.05424966
         3         3         2         2         1         1     -0.05933650

 Spin contamination <S**2-Sz**2-Sz>     0.00000000

 Memory could be reduced to 0.78 Mwords without degradation in triples
 

 RESULTS
 =======

  Reference energy                    -75.934960894332
  UCCSD singles energy                  0.000000000000
  UCCSD pair energy                    -0.291078528780
  UCCSD correlation energy             -0.291078528780
  Triples (T) contribution             -0.010887331716
  Total correlation energy             -0.301965860496
 
  RHF-UCCSD energy                    -76.226039423112
  RHF-UCCSD[T] energy                 -76.237362438367
  RHF-UCCSD-T energy                  -76.236646702709
 !RHF-UCCSD(T) energy                 -76.236926754828

 Program statistics:

 Available memory in ccsd:               999999146
 Min. memory needed in ccsd:                 67584
 Max. memory used in ccsd:                   84132
 Max. memory used in cckext:                106140 (18 integral passes)
 Max. memory used in cckint:                119873 ( 1 integral passes)



 **********************************************************************************************************************************
 DATASETS  * FILE   NREC   LENGTH (MB)   RECORD NAMES
              1      19        2.70       500      610      700      900      950      970     1000      129      960     1100   
                                          VAR    BASINP    GEOM    SYMINP    ZMAT    AOBASIS   BASIS     P2S    ABASIS      S 
                                         1400     1410     1200     1210     1080     1600     1650     1700     2100   
                                           T        V       H0       H01     AOSYM     SMH    MOLCAS    OPER      RHF  

              2       4        0.34       700     1000     2100     5600   
                                         GEOM     BASIS     RHF     GINFO   

 PROGRAMS   *        TOTAL  UCCSD(T)  UCCSD(T)       RHF       INT
 CPU TIMES  *         3.89      0.17      0.19      0.02      0.39
 REAL TIME  *         5.23 SEC
 DISK USED  *        31.45 MB      
 SF USED    *         5.59 MB      
 GA USED    *         0.00 MB       (max)       0.00 MB       (current)
 **********************************************************************************************************************************
 Numerical gradient completed. CPU-time:     2.19 sec, Elapsed:     2.62 sec

 Numerical gradient for UCCSD(T)

 Total Energy           -76.23896352  Dipole moments:    0.000000    0.000000    0.000000

 Atom          dE/dx               dE/dy               dE/dz                  d2E/dx2             d2E/dy2             d2E/dz2
   1        -0.097616397         0.061260797         0.000000000            0.000000000         0.000000000         0.000000000
   2        -0.000000000        -0.122521594         0.000000000            0.000000000         0.000000000         0.000000000
   3         0.097616397         0.061260797         0.000000000            0.000000000         0.000000000         0.000000000
 Reading points  1 to  1 from record 700.2,  wavefunction type=UCCSD(T)        

 Making model hessian for cartesian coordinates
 No hessian update for point  1

 Quadratic Steepest Descent - Minimum Search

 Optimization point  1

 Variable                      Last           Current        Next           Gradient       Hessian
 E(UCCSD(T)) / Hartree       0.00000000   -76.23896352     0.00000000
 GX1 / BOHR                  0.00000000    -1.88972599    -1.62281540    -0.09761640    -0.00000000
 GY1 / BOHR                  0.00000000     1.45508901     1.36031290     0.06126080     0.00000000
 GZ1 / BOHR                  0.00000000     0.00000000     0.00000000     0.00000000     0.00000000
 GX2 / BOHR                  0.00000000     0.00000000     0.00000000     0.00000000     0.00000000
 GY2 / BOHR                  0.00000000     0.00000000     0.18955222    -0.12252159     0.00000000
 GZ2 / BOHR                  0.00000000     0.00000000     0.00000000     0.00000000     0.00000000
 GX3 / BOHR                  0.00000000     1.88972599     1.62281540     0.09761640     0.02170138
 GY3 / BOHR                  0.00000000     1.45508901     1.36031290     0.06126080     0.48102632
 GZ3 / BOHR                  0.00000000     0.00000000     0.00000000     0.00000000     0.61267293
 Convergence:                0.00000000  (line search)     0.44314511     0.20390006  (total)

 Geometry written to block  2 of record 700


 Recomputing integrals since geometry changed

1PROGRAM * SEWARD (Integral evaluation for generally contracted gaussian basis sets)     Author: Roland Lindh, 1990

 Geometry written to block  2 of record 700


 Point group  C2v 



 ATOMIC COORDINATES

 NR  ATOM    CHARGE       X              Y              Z

[...]
 DISK USED  *        31.45 MB      
 SF USED    *         5.59 MB      
 GA USED    *         0.00 MB       (max)       0.00 MB       (current)
 **********************************************************************************************************************************
 Numerical gradient completed. CPU-time:     2.06 sec, Elapsed:     2.46 sec

 Numerical gradient for UCCSD(T)

 Total Energy           -76.33221652  Dipole moments:    0.000000    0.000000    0.000000

 Atom          dE/dx               dE/dy               dE/dz                  d2E/dx2             d2E/dy2             d2E/dz2
   1         0.000000054        -0.000000034         0.000000000            0.000000000         0.000000000         0.000000000
   2         0.000000000         0.000000069        -0.000000000            0.000000000         0.000000000         0.000000000
   3        -0.000000054        -0.000000034         0.000000000            0.000000000         0.000000000         0.000000000
 Reading points  1 to 10 from record 700.2,  wavefunction type=UCCSD(T)        

 Making model hessian for cartesian coordinates
 BFGS update of hessian using  5 points

 Quadratic Steepest Descent - Minimum Search

 In QSD: Minimum
   1-  3   -1.321775   -1.775018   -0.000000

 Optimization point 10

 Variable                      Last           Current        Next           Gradient       Hessian
 E(UCCSD(T)) / Hartree     -76.33221652   -76.33221652     0.00000000
 GX1 / BOHR                 -1.42466357    -1.42466278    -1.42466287     0.00000005     0.00000000
 GY1 / BOHR                  1.34387856     1.34387958     1.34387960    -0.00000003     0.00000000
 GZ1 / BOHR                  0.00000000     0.00000000     0.00000000     0.00000000     0.00000000
 GX2 / BOHR                  0.00000000     0.00000000     0.00000000     0.00000000     0.00000000
 GY2 / BOHR                  0.22242089     0.22241886     0.22241882     0.00000007     0.00000000
 GZ2 / BOHR                  0.00000000     0.00000000     0.00000000     0.00000000     0.00000000
 GX3 / BOHR                  1.42466357     1.42466278     1.42466287    -0.00000005     0.23405524
 GY3 / BOHR                  1.34387856     1.34387958     1.34387960    -0.00000003     1.33527339
 GZ3 / BOHR                  0.00000000     0.00000000     0.00000000     0.00000000     1.56686550
 Convergence:                0.00000000  (line search)     0.00000014     0.00000011  (total)

 Geometry written to block 11 of record 700


 Recomputing integrals since geometry changed

1PROGRAM * SEWARD (Integral evaluation for generally contracted gaussian basis sets)     Author: Roland Lindh, 1990

 Geometry written to block 11 of record 700


 Point group  C2v 



 ATOMIC COORDINATES

 NR  ATOM    CHARGE       X              Y              Z

   1  H       1.00   -1.424662871    1.343879603    0.000000000
   2  H       1.00    1.424662871    1.343879603    0.000000000
   3  O       8.00    0.000000000    0.222418816    0.000000000

 Bond lengths in Bohr (Angstrom)

 1-3  1.813101926  2-3  1.813101926
     ( 0.959452217)     ( 0.959452217)

 Bond angles

  1-3-2  103.58203738

 NUCLEAR CHARGE:                   10
 NUMBER OF PRIMITIVE AOS:          81
 NUMBER OF SYMMETRY AOS:           74
 NUMBER OF CONTRACTIONS:           58   (  23A1  +  17B1  +  11B2  +   7A2  )
 NUMBER OF CORE ORBITALS:           1   (   1A1  +   0B1  +   0B2  +   0A2  )
 NUMBER OF VALENCE ORBITALS:        6   (   3A1  +   2B1  +   1B2  +   0A2  )


 NUCLEAR REPULSION ENERGY    9.17561579


 Eigenvalues of metric

         1 0.259E-02 0.582E-02 0.109E-01 0.419E-01 0.841E-01 0.114E+00 0.167E+00 0.270E+00
         2 0.475E-02 0.762E-02 0.480E-01 0.690E-01 0.923E-01 0.170E+00 0.278E+00 0.322E+00
         3 0.403E-01 0.109E+00 0.245E+00 0.448E+00 0.525E+00 0.703E+00 0.110E+01 0.134E+01
         4 0.116E+00 0.317E+00 0.540E+00 0.880E+00 0.121E+01 0.132E+01 0.229E+01


 Contracted 2-electron integrals neglected if value below      1.0D-16
 AO integral compression algorithm  1   Integral accuracy      1.0D-16

     4.719 MB (compressed) written to integral file (100.0%)

     Node minimum: 1.573 MB, node maximum: 1.573 MB


 NUMBER OF SORTED TWO-ELECTRON INTEGRALS:     132111.     BUFFER LENGTH:  32768
 NUMBER OF SEGMENTS:   1  SEGMENT LENGTH:     132111      RECORD LENGTH: 524288

 Memory used in sort:       0.69 MW

 SORT1 READ      546378. AND WROTE      121337. INTEGRALS IN      1 RECORDS. CPU TIME:     0.01 SEC, REAL TIME:     0.02 SEC
 SORT2 READ      367039. AND WROTE      396151. INTEGRALS IN     18 RECORDS. CPU TIME:     0.00 SEC, REAL TIME:     0.01 SEC

 Node minimum:      130764.  Node maximum:      133276. integrals

 OPERATOR DM      FOR CENTER  0  COORDINATES:    0.000000    0.000000    0.000000
1PROGRAM * RHF-SCF (CLOSED SHELL)       Authors: W. Meyer, H.-J. Werner


 NUMBER OF ELECTRONS:       5+    5-
 CONVERGENCE THRESHOLDS:    1.00E-10 (Density)    1.00E-11 (Energy)
 MAX. NUMBER OF ITERATIONS:      200
 INTERPOLATION TYPE:            DIIS
 INTERPOLATION STEPS:              2 (START)      1 (STEP)
 LEVEL SHIFTS:                  0.00 (CLOSED)  0.00 (OPEN) 

 Number of closed-shell orbitals:    5 (   3   1   1   0 )


 Molecular orbitals read from record     2100.2  Type=RHF/CANONICAL (state 1.1)

 Molecular orbital dump at record        2100.2

 ITERATION    DDIFF          GRAD             ENERGY        2-EL.EN.            DIPOLE MOMENTS         DIIS
    1      0.000D+00      0.000D+00       -76.05694425     75.699669    0.00000    0.80323    0.00000    0
    2      0.000D+00      0.469D-08       -76.05694425     75.699669    0.00000    0.80323    0.00000    1
    3      0.130D-07      0.145D-08       -76.05694425     75.699669    0.00000    0.80323    0.00000    2
    4      0.237D-08      0.590D-09       -76.05694425     75.699669    0.00000    0.80323    0.00000    3
    5      0.739D-09      0.115D-09       -76.05694425     75.699669    0.00000    0.80323    0.00000    4
    6      0.213D-09      0.310D-10       -76.05694425     75.699669    0.00000    0.80323    0.00000    5
    7      0.785D-10      0.699D-11       -76.05694425     75.699669    0.00000    0.80323    0.00000    0

 Final occupancy:   3   1   1   0

 !RHF STATE 1.1 Energy                -76.056944248679
 Nuclear energy                         9.17561579
 One-electron energy                 -123.08239461
 Two-electron energy                   37.84983458
 Virial quotient                       -1.00076841
 !RHF STATE 1.1 Dipole moment           0.00000000     0.80322555     0.00000000
 Dipole moment /Debye                   0.00000000     2.04146200     0.00000000

 Orbital energies:

         1.1          2.1          3.1          4.1          5.1
    -20.555590    -1.345227    -0.579150     0.141861     0.604339

         1.2          2.2          3.2
     -0.706790     0.204044     0.541737

         1.3          2.3          3.3
     -0.504606     0.787211     0.951093

         1.4          2.4
      0.862643     2.063139


 **********************************************************************************************************************************
 DATASETS  * FILE   NREC   LENGTH (MB)   RECORD NAMES
              1      18        2.63       500      610      700      900      950      970     1000      129      960     1100   
                                          VAR    BASINP    GEOM    SYMINP    ZMAT    AOBASIS   BASIS     P2S    ABASIS      S 
                                         1400     1410     1200     1210     1080     1600     1650     1700   
                                           T        V       H0       H01     AOSYM     SMH    MOLCAS    OPER   

              2       4        0.34       700     1000     2100     5600   
                                         GEOM     BASIS     RHF     GINFO   

 PROGRAMS   *        TOTAL       RHF  UCCSD(T)       RHF       INT
 CPU TIMES  *        34.59      0.31      0.19      0.02      0.39
 REAL TIME  *        42.16 SEC
 DISK USED  *        31.45 MB      
 SF USED    *         5.59 MB      
 GA USED    *         0.00 MB       (max)       0.00 MB       (current)
 **********************************************************************************************************************************


1PROGRAM * CCSD (Unrestricted open-shell coupled cluster)     Authors: C. Hampel, H.-J. Werner, 1991, M. Deegan, P.J. Knowles, 1992


 Convergence thresholds:  THRVAR = 1.00D-14  THRDEN = 1.00D-10

 CCSD(T)     terms to be evaluated (factor= 1.000)


 Number of core orbitals:           1 (   1   0   0   0 )
 Number of closed-shell orbitals:   4 (   2   1   1   0 )
 Number of external orbitals:      53 (  20  16  10   7 )

 Memory could be reduced to 0.79 Mwords without degradation in triples

 Number of N-1 electron functions:               8
 Number of N-2 electron functions:              28
 Number of singly external CSFs:               132
 Number of doubly external CSFs:             15806
 Total number of CSFs:                       15938

 Molecular orbitals read from record     2100.2  Type=RHF/CANONICAL (state 1.1)

 Integral transformation finished. Total CPU:   0.01 sec, npass=  1  Memory used:   0.12 MW

 Starting RMP2 calculation

 ITER.      SQ.NORM     CORR.ENERGY   TOTAL ENERGY   ENERGY CHANGE        DEN1      VAR(S)    VAR(P)  DIIS     TIME
   1      1.05983042    -0.26109489   -76.31803914    -0.26109489    -0.00057955  0.15D-22  0.18D-03  1  1     0.01
   2      1.06023736    -0.26170723   -76.31865148    -0.00061234    -0.00000029  0.17D-24  0.11D-06  2  2     0.01
   3      1.06024396    -0.26171304   -76.31865729    -0.00000581    -0.00000000  0.24D-26  0.13D-09  3  3     0.01
   4      1.06024402    -0.26171306   -76.31865731    -0.00000002    -0.00000000  0.25D-28  0.23D-12  4  4     0.01
   5      1.06024402    -0.26171306   -76.31865731    -0.00000000    -0.00000000  0.20D-30  0.26D-15  5  5     0.01
   6      1.06024402    -0.26171306   -76.31865731    -0.00000000    -0.00000000  0.17D-32  0.31D-18  6  6     0.01

 Norm of t1 vector:      0.00000000      S-energy:    -0.00000000      T1 diagnostic:  0.00000000
 Norm of t2 vector:      0.24544657      P-energy:    -0.26171306
                                         Alpha-Beta:  -0.19814992
                                         Alpha-Alpha: -0.03178157
                                         Beta-Beta:   -0.03178157

 Spin contamination <S**2-Sz**2-Sz>     0.00000000
  Reference energy                    -76.056944248679
  RHF-RMP2 correlation energy          -0.261713058677
 !RHF-RMP2 energy                     -76.318657307356

 Starting UCCSD calculation

 ITER.      SQ.NORM     CORR.ENERGY   TOTAL ENERGY   ENERGY CHANGE        DEN1      VAR(S)    VAR(P)  DIIS     TIME
   1      1.06014083    -0.26171215   -76.31865640    -0.26171215    -0.00495442  0.37D-03  0.82D-03  1  1     0.02
   2      1.06376375    -0.26667654   -76.32362078    -0.00496439    -0.00029145  0.16D-04  0.78D-04  2  2     0.02
   3      1.06481160    -0.26743336   -76.32437761    -0.00075682    -0.00001816  0.15D-05  0.44D-05  3  3     0.03
   4      1.06508461    -0.26759018   -76.32453443    -0.00015682    -0.00000082  0.14D-06  0.20D-06  4  4     0.04
   5      1.06511722    -0.26760082   -76.32454507    -0.00001064    -0.00000007  0.38D-07  0.10D-07  5  5     0.04
   6      1.06512123    -0.26760071   -76.32454496     0.00000011    -0.00000001  0.57D-08  0.15D-08  6  6     0.05
   7      1.06512300    -0.26760070   -76.32454495     0.00000001    -0.00000000  0.62D-09  0.14D-09  6  1     0.06
   8      1.06512394    -0.26760075   -76.32454500    -0.00000005    -0.00000000  0.15D-10  0.16D-10  6  2     0.06
   9      1.06512413    -0.26760083   -76.32454508    -0.00000008    -0.00000000  0.70D-12  0.81D-12  6  3     0.07
  10      1.06512416    -0.26760081   -76.32454506     0.00000002    -0.00000000  0.31D-13  0.48D-13  6  4     0.08
  11      1.06512417    -0.26760082   -76.32454507    -0.00000000    -0.00000000  0.22D-14  0.33D-14  6  5     0.08
  12      1.06512417    -0.26760082   -76.32454506     0.00000000    -0.00000000  0.13D-15  0.25D-15  6  6     0.09
  13      1.06512416    -0.26760082   -76.32454506     0.00000000    -0.00000000  0.20D-16  0.17D-16  6  1     0.10

 Norm of t1 vector:      0.02624514      S-energy:    -0.00000000      T1 diagnostic:  0.00656129
                                                                       D1 diagnostic:  0.01083415
 Norm of t2 vector:      0.25384120      P-energy:    -0.26760082
                                         Alpha-Beta:  -0.21092690
                                         Alpha-Alpha: -0.02833696
                                         Beta-Beta:   -0.02833696

 Spin contamination <S**2-Sz**2-Sz>     0.00000000

 Memory could be reduced to 0.78 Mwords without degradation in triples
 

 RESULTS
 =======

  Reference energy                    -76.056944248679
  UCCSD singles energy                 -0.000000000000
  UCCSD pair energy                    -0.267600816043
  UCCSD correlation energy             -0.267600816043
  Triples (T) contribution             -0.007671453063
  Total correlation energy             -0.275272269106
 
  RHF-UCCSD energy                    -76.324545064723
  RHF-UCCSD[T] energy                 -76.332410241349
  RHF-UCCSD-T energy                  -76.332079408408
 !RHF-UCCSD(T) energy                 -76.332216517785

 Program statistics:

 Available memory in ccsd:               999999273
 Min. memory needed in ccsd:                 67584
 Max. memory used in ccsd:                   84132
 Max. memory used in cckext:                106140 (13 integral passes)
 Max. memory used in cckint:                119873 ( 1 integral passes)



 **********************************************************************************************************************************
 DATASETS  * FILE   NREC   LENGTH (MB)   RECORD NAMES
              1      18        2.63       500      610      700      900      950      970     1000      129      960     1100   
                                          VAR    BASINP    GEOM    SYMINP    ZMAT    AOBASIS   BASIS     P2S    ABASIS      S 
                                         1400     1410     1200     1210     1080     1600     1650     1700   
                                           T        V       H0       H01     AOSYM     SMH    MOLCAS    OPER   

              2       4        0.34       700     1000     2100     5600   
                                         GEOM     BASIS     RHF     GINFO   

 PROGRAMS   *        TOTAL  UCCSD(T)  UCCSD(T)       RHF       INT
 CPU TIMES  *        34.73      0.14      0.19      0.02      0.39
 REAL TIME  *        42.38 SEC
 DISK USED  *        31.45 MB      
 SF USED    *         5.59 MB      
 GA USED    *         0.00 MB       (max)       0.00 MB       (current)
 **********************************************************************************************************************************

 PROGRESS OF GEOMETRY OPTIMIZATION.    TOTAL CPU:        34.0 SEC

 ITER.   ENERGY(OLD)    ENERGY(NEW)      DE          GRADMAX     GRADNORM    GRADRMS     STEPMAX     STEPLEN     STEPRMS
   1   -76.23896352   -76.31557347    -0.07660996  0.20225393  0.20390006  0.06796669  0.40767723  0.44314511  0.25584995
   2   -76.31557347   -76.30557665     0.00999683  0.12164203  0.12581228  0.04193743  0.40574531  0.44807950  0.25869882
   3   -76.30557665   -76.32941162    -0.02383498  0.26717571  0.27320959  0.09106986  0.25974126  0.29430089  0.16991470
   4   -76.32941162   -76.33188485    -0.00247323  0.04855237  0.05341867  0.01780622  0.08640094  0.09332109  0.05387896
   5   -76.33188485   -76.33221384    -0.00032899  0.01936915  0.02073019  0.00691006  0.03914281  0.04481510  0.02587401
   6   -76.33221384   -76.33221651    -0.00000266  0.00206843  0.00214358  0.00071453  0.00265173  0.00336289  0.00194157
   7   -76.33221651   -76.33221652    -0.00000001  0.00004154  0.00005570  0.00001857  0.00019524  0.00019800  0.00011432
   8   -76.33221652   -76.33221652    -0.00000000  0.00000621  0.00000801  0.00000267  0.00002996  0.00003081  0.00001779
   9   -76.33221652   -76.33221652     0.00000000  0.00000149  0.00000152  0.00000051  0.00000219  0.00000274  0.00000158
  10   -76.33221652   -76.33221652     0.00000000  0.00000011  0.00000011  0.00000004  0.00000011  0.00000014  0.00000008

 **********************************************************************************************************************************

 Current geometry (xyz format, in Angstrom)

    3
 UCCSD(T)/CC-PVTZ  ENERGY=-76.33221652
 H         -0.7538991220        0.7111504577        0.0000000000
 O          0.0000000000        0.1176989682        0.0000000000
 H          0.7538991220        0.7111504577        0.0000000000

 **********************************************************************************************************************************

 END OF GEOMETRY OPTIMIZATION.    TOTAL CPU:        34.0 SEC

 ITER.   ENERGY(OLD)    ENERGY(NEW)      DE          GRADMAX     GRADNORM    GRADRMS     STEPMAX     STEPLEN     STEPRMS
   1   -76.23896352   -76.31557347    -0.07660996  0.20225393  0.20390006  0.06796669  0.40767723  0.44314511  0.25584995
   2   -76.31557347   -76.30557665     0.00999683  0.12164203  0.12581228  0.04193743  0.40574531  0.44807950  0.25869882
   3   -76.30557665   -76.32941162    -0.02383498  0.26717571  0.27320959  0.09106986  0.25974126  0.29430089  0.16991470
   4   -76.32941162   -76.33188485    -0.00247323  0.04855237  0.05341867  0.01780622  0.08640094  0.09332109  0.05387896
   5   -76.33188485   -76.33221384    -0.00032899  0.01936915  0.02073019  0.00691006  0.03914281  0.04481510  0.02587401
   6   -76.33221384   -76.33221651    -0.00000266  0.00206843  0.00214358  0.00071453  0.00265173  0.00336289  0.00194157
   7   -76.33221651   -76.33221652    -0.00000001  0.00004154  0.00005570  0.00001857  0.00019524  0.00019800  0.00011432
   8   -76.33221652   -76.33221652    -0.00000000  0.00000621  0.00000801  0.00000267  0.00002996  0.00003081  0.00001779
   9   -76.33221652   -76.33221652     0.00000000  0.00000149  0.00000152  0.00000051  0.00000219  0.00000274  0.00000158
  10   -76.33221652   -76.33221652     0.00000000  0.00000011  0.00000011  0.00000004  0.00000011  0.00000014  0.00000008

 Geometry written to block  1 of record 700


 **********************************************************************************************************************************
 DATASETS  * FILE   NREC   LENGTH (MB)   RECORD NAMES
              1      18        2.63       500      610      700      900      950      970     1000      129      960     1100   
                                          VAR    BASINP    GEOM    SYMINP    ZMAT    AOBASIS   BASIS     P2S    ABASIS      S 
                                         1400     1410     1200     1210     1080     1600     1650     1700   
                                           T        V       H0       H01     AOSYM     SMH    MOLCAS    OPER   

              2       4        0.34       700     1000     2100     5600   
                                         GEOM     BASIS     RHF     GINFO   

 PROGRAMS   *        TOTAL      OPTG  UCCSD(T)       RHF       INT
 CPU TIMES  *        34.73     34.02      0.19      0.02      0.39
 REAL TIME  *        42.38 SEC
 DISK USED  *        31.45 MB      
 SF USED    *         5.59 MB      
 GA USED    *         0.00 MB       (max)       0.00 MB       (current)
 **********************************************************************************************************************************

  OPTG(UCCSD(T))        UCCSD(T)        RHF-SCF 
    -76.33221652    -76.23896352    -75.93753379
 **********************************************************************************************************************************
 Variable memory released
