
 Primary working directories    : /tmp/795519.28.gen4.q
 Secondary working directories  : /tmp/795519.28.gen4.q
 Wavefunction directory         : /home/vulcan/mel64643/wfu/
 Main file repository           : /tmp/795519.28.gen4.q/

 ARCHNAME  : Linux/x86_64
 FC        : /opt/intel/compilers_and_libraries_2016.1.150/linux/bin/intel64/ifort
 FCVERSION : 16.0.1
 BLASLIB   : -mkl
 id        : ccgc

 Nodes     nprocs
 n040         1
 ga_uses_ma=false, calling ma_init with nominal heap.
 GA-space will be limited to   8.0 MW (determined by -G option)

 Using customized tuning parameters: mindgm=10; mindgv=16; mindgc=4; mindgr=1; noblas=0; mincuda=1000; minvec=7
 default implementation of scratch files=df  

 ***,Optimization of min3
 memory,1000,m
 gthresh,energy=1.0d-12,orbital=1.0d-10,oneint=1.0d-16,twoint=1.0d-16,optgrad=1.0d-6,compress=1.0d-13
 geomtyp=xyz
 
  bohr
  geometry = {
  6
  arbitrary comment
  C   -1.3777192326   -0.0250947945   -0.0027323625
  O    1.3063262955    0.1209676284    0.0009094082
  H   -2.0770446877    1.9098885719    0.0008512362
  H   -2.1081200493   -0.9787675356    1.6827528861
  H   -2.1083179617   -0.9796098068   -1.6815948645
  H    1.9411514758   -1.5775161835   -0.0001947135
 }
 
 basis=cc-pvdz
 {rhf;maxit,200}
 {ccsd(t);maxit,200}

 Variables initialized (661), CPU time= 0.00 sec
 Commands  initialized (458), CPU time= 0.00 sec, 486 directives.
 Default parameters read. Elapsed time= 0.06 sec

 Checking input...
 Passed
1


                                         ***  PROGRAM SYSTEM MOLPRO  ***
                         Copyright, University College Cardiff Consultants Limited, 2008

                                    Version 2010.1 linked May 16 2016 07:17:05


 **********************************************************************************************************************************
 LABEL *   Optimization of min3                                                          
 Linux-4.4.3/n040(x86_64) 64 bit mpp version                                             DATE: 24-Oct-22          TIME: 15:41:06  
 **********************************************************************************************************************************

 SHA1:             9e8077add272b0f3cad6f7df79ec5211205f459d
 **********************************************************************************************************************************

 THRESHOLDS:

 ZERO    =  1.00D-12  ONEINT  =  1.00D-16  TWOINT  =  1.00D-16  PREFAC  =  1.00D-14  LOCALI  =  1.00D-09  EORDER  =  1.00D-04
 ENERGY  =  1.00D-12  ETEST   =  0.00D+00  EDENS   =  0.00D+00  THRDEDEF=  1.00D-06  GRADIENT=  1.00D-02  STEP    =  1.00D-03
 ORBITAL =  1.00D-10  CIVEC   =  1.00D-05  COEFF   =  1.00D-04  PRINTCI =  5.00D-02  PUNCHCI =  9.90D+01  OPTGRAD =  1.00D-06
 OPTENERG=  1.00D-06  OPTSTEP =  3.00D-04  THRGRAD =  1.00D-10  COMPRESS=  1.00D-13  VARMIN  =  1.00D-07  VARMAX  =  1.00D-03
 THRDOUB =  0.00D+00  THRDIV  =  1.00D-05  THRRED  =  1.00D-07  THRPSP  =  1.00D+00  THRDC   =  1.00D-10  THRCS   =  1.00D-10
 THRNRM  =  1.00D-08  THREQ   =  0.00D+00  THRDE   =  1.00D+00  THRREF  =  1.00D-05  SPARFAC =  1.00D+00  THRDLP  =  1.00D-07
 THRDIA  =  1.00D-10  THRDLS  =  1.00D-07  THRGPS  =  0.00D+00  THRKEX  =  0.00D+00  THRDIS  =  2.00D-01  THRVAR  =  1.00D-10
 THRLOC  =  1.00D-06  THRGAP  =  1.00D-06  THRLOCT = -1.00D+00  THRGAPT = -1.00D+00  THRORB  =  1.00D-06  THRMLTP =  0.00D+00
 THRCPQCI=  1.00D-10  KEXTA   =  0.00D+00  THRCOARS=  0.00D+00  SYMTOL  =  1.00D-06  GRADTOL =  1.00D-06  THROVL  =  1.00D-08
 THRORTH =  1.00D-08  GRID    =  1.00D-06  GRIDMAX =  1.00D-03  DTMAX   =  0.00D+00

 SETTING GEOMTYP        =    XYZ
 ZUNIT=BOHR
 

 Variable memory set to 1000000000 words,  buffer space   230000 words

 SETTING BASIS          =    CC-PVDZ


 Recomputing integrals since basis changed


 Using spherical harmonics

 Library entry C      S cc-pVDZ              selected for orbital group  1
 Library entry C      P cc-pVDZ              selected for orbital group  1
 Library entry C      D cc-pVDZ              selected for orbital group  1
 Library entry O      S cc-pVDZ              selected for orbital group  2
 Library entry O      P cc-pVDZ              selected for orbital group  2
 Library entry O      D cc-pVDZ              selected for orbital group  2
 Library entry H      S cc-pVDZ              selected for orbital group  3
 Library entry H      P cc-pVDZ              selected for orbital group  3

1PROGRAM * SEWARD (Integral evaluation for generally contracted gaussian basis sets)     Author: Roland Lindh, 1990

 Geometry written to block  1 of record 700


 Point group  C1  



 ATOMIC COORDINATES

 NR  ATOM    CHARGE       X              Y              Z

   1  C       6.00   -1.377719233   -0.025094794   -0.002732363
   2  O       8.00    1.306326295    0.120967628    0.000909408
   3  H       1.00   -2.077044688    1.909888572    0.000851236
   4  H       1.00   -2.108120049   -0.978767536    1.682752886
   5  H       1.00   -2.108317962   -0.979609807   -1.681594865
   6  H       1.00    1.941151476   -1.577516184   -0.000194714

 Bond lengths in Bohr (Angstrom)

 1-2  2.688019325  1-3  2.057481364  1-4  2.069743359  1-5  2.064812997  2-6  1.813243361
     ( 1.422438564)     ( 1.088772246)     ( 1.095261014)     ( 1.092651979)     ( 0.959527061)

 Bond angles

  1-2-6  107.37876639   2-1-3  106.75536816   2-1-4  112.10510350   2-1-5  112.30461667

  3-1-4  108.17801525   3-1-5  108.41541432   4-1-5  108.92081768

 NUCLEAR CHARGE:                   18
 NUMBER OF PRIMITIVE AOS:          82
 NUMBER OF SYMMETRY AOS:           80
 NUMBER OF CONTRACTIONS:           48   (  48A   )
 NUMBER OF CORE ORBITALS:           2   (   2A   )
 NUMBER OF VALENCE ORBITALS:       12   (  12A   )


 NUCLEAR REPULSION ENERGY   40.29125367


 Eigenvalues of metric

         1 0.966E-02 0.177E-01 0.368E-01 0.374E-01 0.382E-01 0.473E-01 0.477E-01 0.517E-01


 Contracted 2-electron integrals neglected if value below      1.0D-16
 AO integral compression algorithm  1   Integral accuracy      1.0D-16

     6.816 MB (compressed) written to integral file (100.0%)

     Node minimum: 6.816 MB, node maximum: 6.816 MB


 NUMBER OF SORTED TWO-ELECTRON INTEGRALS:     692076.     BUFFER LENGTH:  32768
 NUMBER OF SEGMENTS:   1  SEGMENT LENGTH:     692076      RECORD LENGTH: 524288

 Memory used in sort:       1.25 MW

 SORT1 READ      832256. AND WROTE      682150. INTEGRALS IN      2 RECORDS. CPU TIME:     0.01 SEC, REAL TIME:     0.01 SEC
 SORT2 READ      682150. AND WROTE      692076. INTEGRALS IN     26 RECORDS. CPU TIME:     0.02 SEC, REAL TIME:     0.03 SEC

 FILE SIZES:   FILE 1:     8.4 MBYTE,  FILE 4:     8.4 MBYTE,   TOTAL:     16.8 MBYTE

 OPERATOR DM      FOR CENTER  0  COORDINATES:    0.000000    0.000000    0.000000


 **********************************************************************************************************************************
 DATASETS  * FILE   NREC   LENGTH (MB)   RECORD NAMES
              1      19        8.40       500      610      700      900      950      970     1000      129      960     1100   
                                          VAR    BASINP    GEOM    SYMINP    ZMAT    AOBASIS   BASIS     P2S    ABASIS      S 
                                         1400     1410     1200     1210     1080     1600     1650     1300     1700   
                                           T        V       H0       H01     AOSYM     SMH    MOLCAS    ERIS     OPER   

 PROGRAMS   *        TOTAL       INT
 CPU TIMES  *         0.34      0.28
 REAL TIME  *         0.52 SEC
 DISK USED  *        24.23 MB      
 GA USED    *         0.00 MB       (max)       0.00 MB       (current)
 **********************************************************************************************************************************

1PROGRAM * RHF-SCF (CLOSED SHELL)       Authors: W. Meyer, H.-J. Werner


 NUMBER OF ELECTRONS:       9+    9-    SPACE SYMMETRY=1    SPIN SYMMETRY: Singlet 
 CONVERGENCE THRESHOLDS:    1.00E-10 (Density)    1.00E-13 (Energy)
 MAX. NUMBER OF ITERATIONS:      200
 INTERPOLATION TYPE:            DIIS
 INTERPOLATION STEPS:              2 (START)      1 (STEP)
 LEVEL SHIFTS:                  0.00 (CLOSED)  0.00 (OPEN) 



 Orbital guess generated from atomic densities. Full valence occupancy:   14

 Molecular orbital dump at record        2100.2

 ITERATION    DDIFF          GRAD             ENERGY        2-EL.EN.            DIPOLE MOMENTS         DIIS
    1      0.000D+00      0.000D+00      -115.01415717    164.359838   -0.49804   -0.90097   -0.00089    0
    2      0.000D+00      0.110D-01      -115.04252376    162.140963   -0.31890   -0.53585   -0.00130    1
    3      0.205D-01      0.531D-02      -115.04857408    163.166006   -0.40291   -0.61119   -0.00172    2
    4      0.640D-02      0.112D-02      -115.04903781    163.010178   -0.39277   -0.60012   -0.00187    3
    5      0.204D-02      0.202D-03      -115.04905884    163.016530   -0.39562   -0.59585   -0.00194    4
    6      0.433D-03      0.355D-04      -115.04905964    163.016694   -0.39593   -0.59565   -0.00196    5
    7      0.931D-04      0.738D-05      -115.04905967    163.015499   -0.39606   -0.59548   -0.00196    6
    8      0.150D-04      0.238D-05      -115.04905967    163.015881   -0.39610   -0.59546   -0.00196    7
    9      0.506D-05      0.490D-06      -115.04905967    163.015840   -0.39611   -0.59546   -0.00196    6
   10      0.141D-05      0.873D-07      -115.04905967    163.015839   -0.39612   -0.59546   -0.00196    6
   11      0.234D-06      0.326D-07      -115.04905967    163.015845   -0.39612   -0.59546   -0.00196    6
   12      0.589D-07      0.136D-07      -115.04905967    163.015843   -0.39612   -0.59546   -0.00196    7
   13      0.253D-07      0.303D-08      -115.04905967    163.015843   -0.39612   -0.59546   -0.00196    7
   14      0.755D-08      0.651D-09      -115.04905967    163.015843   -0.39612   -0.59546   -0.00196    7
   15      0.166D-08      0.151D-09      -115.04905967    163.015843   -0.39612   -0.59546   -0.00196    7
   16      0.336D-09      0.455D-10      -115.04905967    163.015843   -0.39612   -0.59546   -0.00196    7
   17      0.880D-10      0.150D-10      -115.04905967    163.015843   -0.39612   -0.59546   -0.00196    0

 Final occupancy:   9

 !RHF STATE 1.1 Energy               -115.049059673988
 Nuclear energy                        40.29125367
 One-electron energy                 -236.84823481
 Two-electron energy                   81.50792146
 Virial quotient                       -1.00092967
 !RHF STATE 1.1 Dipole moment          -0.39611691    -0.59545796    -0.00195866
 Dipole moment /Debye                  -1.00676282    -1.51340404    -0.00497810

 Orbital energies:

         1.1          2.1          3.1          4.1          5.1          6.1          7.1          8.1          9.1         10.1
    -20.549786   -11.274646    -1.349228    -0.921444    -0.682404    -0.613808    -0.584331    -0.497256    -0.443293     0.184585

        11.1
      0.224509


 **********************************************************************************************************************************
 DATASETS  * FILE   NREC   LENGTH (MB)   RECORD NAMES
              1      19        8.40       500      610      700      900      950      970     1000      129      960     1100   
                                          VAR    BASINP    GEOM    SYMINP    ZMAT    AOBASIS   BASIS     P2S    ABASIS      S 
                                         1400     1410     1200     1210     1080     1600     1650     1300     1700   
                                           T        V       H0       H01     AOSYM     SMH    MOLCAS    ERIS     OPER   

              2       3        0.39       700     1000     2100   
                                         GEOM     BASIS     RHF  

 PROGRAMS   *        TOTAL       RHF       INT
 CPU TIMES  *         0.43      0.09      0.28
 REAL TIME  *         0.65 SEC
 DISK USED  *        24.23 MB      
 GA USED    *         0.00 MB       (max)       0.00 MB       (current)
 **********************************************************************************************************************************


1PROGRAM * CCSD (Closed-shell coupled cluster)     Authors: C. Hampel, H.-J. Werner, 1991, M. Deegan, P.J. Knowles, 1992


 Convergence thresholds:  THRVAR = 1.00D-08  THRDEN = 1.00D-12

 CCSD(T)     terms to be evaluated (factor= 1.000)


 Number of core orbitals:           2 (   2 )
 Number of closed-shell orbitals:   7 (   7 )
 Number of external orbitals:      39 (  39 )

 Molecular orbitals read from record     2100.2  Type=RHF/CANONICAL (state 1.1)

 Number of N-1 electron functions:               7
 Number of N-2 electron functions:              28
 Number of singly external CSFs:               273
 Number of doubly external CSFs:             37401
 Total number of CSFs:                       37675

 Length of J-op  integral file:               0.00 MB
 Length of K-op  integral file:               0.19 MB
 Length of 3-ext integral record:             0.00 MB

 Memory could be reduced to 0.96 Mwords without degradation in triples

 Integral transformation finished. Total CPU:   0.02 sec, npass=  1  Memory used:   0.66 MW

 Reference energy:                   -115.04905967

 MP2 singlet pair energy:              -0.21866439
 MP2 triplet pair energy:              -0.11983413
 MP2 correlation energy:               -0.33849853
 MP2 total energy:                   -115.38755820

 SCS-MP2 correlation energy:           -0.33696073   (PS=  1.200000  PT=  0.333333)
 SCS-MP2 total energy:               -115.38602041

 ITER.      SQ.NORM     CORR.ENERGY   TOTAL ENERGY   ENERGY CHANGE        DEN1      VAR(S)    VAR(P)  DIIS     TIME
   1      1.10734884    -0.36129408  -115.41035376    -0.02279556    -0.01411000  0.91D-03  0.17D-02  1  1     0.07
   2      1.11587917    -0.36323998  -115.41229966    -0.00194590    -0.00925408  0.20D-04  0.16D-03  2  2     0.12
   3      1.11776437    -0.36336755  -115.41242723    -0.00012757    -0.00120636  0.95D-05  0.86D-05  3  3     0.17
   4      1.11828083    -0.36336620  -115.41242588     0.00000135    -0.00025536  0.34D-06  0.68D-06  4  4     0.22
   5      1.11837938    -0.36336661  -115.41242628    -0.00000040    -0.00003618  0.10D-06  0.49D-07  5  5     0.27
   6      1.11839855    -0.36336524  -115.41242492     0.00000137    -0.00000437  0.16D-07  0.41D-08  6  6     0.32
   7      1.11840334    -0.36336482  -115.41242449     0.00000042    -0.00000035  0.20D-08  0.73D-09  6  1     0.37
   8      1.11840462    -0.36336492  -115.41242460    -0.00000010     0.00000075  0.26D-09  0.73D-10  6  3     0.42
   9      1.11840569    -0.36336480  -115.41242447     0.00000012    -0.00000038  0.13D-10  0.10D-10  6  2     0.47
  10      1.11840562    -0.36336480  -115.41242447    -0.00000000     0.00000007  0.11D-11  0.88D-12  6  5     0.52
  11      1.11840565    -0.36336480  -115.41242447     0.00000000    -0.00000000  0.19D-12  0.51D-13  6  4     0.57
  12      1.11840563    -0.36336480  -115.41242447    -0.00000000     0.00000001  0.19D-13  0.10D-13  6  1     0.61
  13      1.11840563    -0.36336480  -115.41242448    -0.00000000    -0.00000000  0.24D-14  0.95D-15  6  6     0.66
  14      1.11840563    -0.36336480  -115.41242447     0.00000000    -0.00000000  0.22D-15  0.12D-15  6  3     0.71
  15      1.11840563    -0.36336480  -115.41242447    -0.00000000    -0.00000000  0.25D-16  0.17D-16  6  2     0.76
  16      1.11840563    -0.36336480  -115.41242447    -0.00000000    -0.00000000  0.57D-17  0.16D-17  6  5     0.81
  17      1.11840563    -0.36336480  -115.41242447    -0.00000000    -0.00000000  0.55D-18  0.25D-18  6  4     0.86
  18      1.11840563    -0.36336480  -115.41242447     0.00000000    -0.00000000  0.86D-19  0.43D-19  6  1     0.91
  19      1.11840563    -0.36336480  -115.41242447    -0.00000000    -0.00000000  0.10D-19  0.44D-20  6  6     0.96
  20      1.11840563    -0.36336480  -115.41242447     0.00000000     0.00000000  0.16D-20  0.59D-21  6  3     1.01

 Norm of t1 vector:      0.04170729      S-energy:    -0.00000000      T1 diagnostic:  0.00788194
                                                                       D1 diagnostic:  0.01761376


 Total CPU time for triples:      0.25 sec


 RESULTS
 =======

  Reference energy                   -115.049059673988
  CCSD singlet pair energy             -0.254624902074
  CCSD triplet pair energy             -0.108739898829
  CCSD correlation energy              -0.363364800904

  Triples (T) contribution             -0.007741416662
  Total correlation energy             -0.371106217566

  CCSD total energy                  -115.412424474892
  CCSD[T] energy                     -115.420456250526
  CCSD-T energy                      -115.420015709499
 !CCSD(T) total energy               -115.420165891554

 Timing summary (sec):

 STEP                 CPU(USER)    SYS     CPU(TOT)    WALL
 Transformation          0.02      0.00      0.02      0.03
 CCSD iterations         0.99      0.06      1.05      1.07
 Triples                 0.25      0.00      0.25      0.26

 Program statistics:

 Available memory in ccsd:               999999704
 Min. memory needed in ccsd:                136801
 Max. memory used in ccsd:                  163198
 Max. memory used in cckext:                182024 (20 integral passes)



 **********************************************************************************************************************************
 DATASETS  * FILE   NREC   LENGTH (MB)   RECORD NAMES
              1      20       10.93       500      610      700      900      950      970     1000      129      960     1100   
                                          VAR    BASINP    GEOM    SYMINP    ZMAT    AOBASIS   BASIS     P2S    ABASIS      S 
                                         1400     1410     1200     1210     1080     1600     1650     1300     1700     1380   
                                           T        V       H0       H01     AOSYM     SMH    MOLCAS    ERIS     OPER     JKOP   

              2       3        0.39       700     1000     2100   
                                         GEOM     BASIS     RHF  

 PROGRAMS   *        TOTAL   CCSD(T)       RHF       INT
 CPU TIMES  *         1.71      1.28      0.09      0.28
 REAL TIME  *         2.03 SEC
 DISK USED  *        25.66 MB      
 GA USED    *         0.00 MB       (max)       0.00 MB       (current)
 **********************************************************************************************************************************

        CCSD(T)         RHF-SCF 
   -115.42016589   -115.04905967
 **********************************************************************************************************************************
 Variable memory released
