
    -----------------------------------------------------------------------
          Psi4: An Open-Source Ab Initio Electronic Structure Package
                               Psi4 1.4a2.dev629 

                         Git: Rev {master} 2938fc2 dirty


    D. G. A. Smith, L. A. Burns, A. C. Simmonett, R. M. Parrish,
    M. C. Schieber, R. Galvelis, P. Kraus, H. Kruse, R. Di Remigio,
    A. Alenaizan, A. M. James, S. Lehtola, J. P. Misiewicz, M. Scheurer,
    R. A. Shaw, J. B. Schriber, Y. Xie, Z. L. Glick, D. A. Sirianni,
    J. S. O'Brien, J. M. Waldrop, A. Kumar, E. G. Hohenstein,
    B. P. Pritchard, B. R. Brooks, H. F. Schaefer III, A. Yu. Sokolov,
    K. Patkowski, A. E. DePrince III, U. Bozkaya, R. A. King,
    F. A. Evangelista, J. M. Turney, T. D. Crawford, C. D. Sherrill,
    J. Chem. Phys. 152(18) 184108 (2020). https://doi.org/10.1063/5.0006002

                            Additional Code Authors
    E. T. Seidl, C. L. Janssen, E. F. Valeev, M. L. Leininger,
    J. F. Gonthier, R. M. Richard, H. R. McAlexander, M. Saitow, X. Wang,
    P. Verma, and M. H. Lechner

             Previous Authors, Complete List of Code Contributors,
                       and Citations for Specific Modules
    https://github.com/psi4/psi4/blob/master/codemeta.json
    https://github.com/psi4/psi4/graphs/contributors
    http://psicode.org/psi4manual/master/introduction.html#citing-psifour

    -----------------------------------------------------------------------


    Psi4 started on: Friday, 19 June 2020 12:33PM

    Process ID: 7852
    Host:       n045
    PSIDATADIR: /opt/psi/4/master/share/psi4
    Memory:     500.0 MiB
    Threads:    4
    
  ==> Input File <==

--------------------------------------------------------------------------
# o-Benzyne preliminary computations

memory 30 gb

molecule P1P2_CN_Singlet
{
  0 1
  H         -1.8897259886          1.4550890112          0.0000000000  
  O          0.0000000000          0.0000000000          0.0000000000  
  H          1.8897259886          1.4550890112          0.0000000000  
  no_reorient
  units bohr
}

set {
  reference rhf
  basis cc-pvtz
  e_convergence 9 
  d_convergence 10
  maxiter 300
  normal_modes_write true
}

freq('ccsd(t)')
--------------------------------------------------------------------------

  Memory set to  27.940 GiB by Python driver.

Scratch directory: /tmp/330817.1.debug.q/
gradient() will perform analytic gradient computation.

*** tstart() called on n045
*** at Fri Jun 19 12:33:36 2020

   => Loading Basis Set <=

    Name: CC-PVTZ
    Role: ORBITAL
    Keyword: BASIS
    atoms 1, 3 entry H          line    23 file /opt/psi/4/master/share/psi4/basis/cc-pvtz.gbs 
    atoms 2    entry O          line   262 file /opt/psi/4/master/share/psi4/basis/cc-pvtz.gbs 


         ---------------------------------------------------------
                                   SCF
               by Justin Turney, Rob Parrish, Andy Simmonett
                          and Daniel G. A. Smith
                              RHF Reference
                        4 Threads,  28610 MiB Core
         ---------------------------------------------------------

  ==> Geometry <==

    Molecular point group: c2v
    Full point group: C2v

    Geometry (in Bohr), charge = 0, multiplicity = 1:

       Center              X                  Y                   Z               Mass       
    ------------   -----------------  -----------------  -----------------  -----------------
         H           -1.889725988600     1.292242908889     0.000000000000     1.007825032230
         O            0.000000000000    -0.162846102311     0.000000000000    15.994914619570
         H            1.889725988600     1.292242908889     0.000000000000     1.007825032230

  Running in c2v symmetry.

  Rotational constants: A =     15.88347  B =      8.36337  C =      5.47863 [cm^-1]
  Rotational constants: A = 476174.43856  B = 250727.58955  C = 164245.06270 [MHz]
  Nuclear repulsion =    6.973111279498809

  Charge       = 0
  Multiplicity = 1
  Electrons    = 10
  Nalpha       = 5
  Nbeta        = 5

  ==> Algorithm <==

  SCF Algorithm Type is PK.
  DIIS enabled.
  MOM disabled.
  Fractional occupation disabled.
  Guess Type is SAD.
  Energy threshold   = 1.00e-09
  Density threshold  = 1.00e-10
  Integral threshold = 0.00e+00

  ==> Primary Basis <==

  Basis Set: CC-PVTZ
    Blend: CC-PVTZ
    Number of shells: 22
    Number of basis function: 58
    Number of Cartesian functions: 65
    Spherical Harmonics?: true
    Max angular momentum: 3

  ==> Integral Setup <==

  Using in-core PK algorithm.
   Calculation information:
      Number of atoms:                   3
      Number of AO shells:              22
      Number of primitives:             42
      Number of atomic orbitals:        65
      Number of basis functions:        58

      Integral cutoff                 1.00e-12
      Number of threads:                 4

  Performing in-core PK
  Using 2929232 doubles for integral storage.
  We computed 43467 shell quartets total.
  Whereas there are 32131 unique shell quartets.
    35.28 percent of shell quartets recomputed by reordering.

  ==> DiskJK: Disk-Based J/K Matrices <==

    J tasked:                  Yes
    K tasked:                  Yes
    wK tasked:                  No
    Memory [MiB]:            21457
    Schwarz Cutoff:          1E-12

    OpenMP threads:              4

  Minimum eigenvalue in the overlap matrix is 7.6171802149E-03.
  Reciprocal condition number of the overlap matrix is 1.9918785885E-03.
    Using symmetric orthogonalization.

  ==> Pre-Iterations <==

  SCF Guess: Superposition of Atomic Densities via on-the-fly atomic UHF (no occupation information).

   -------------------------
    Irrep   Nso     Nmo    
   -------------------------
     A1        23      23 
     A2         7       7 
     B1        17      17 
     B2        11      11 
   -------------------------
    Total      58      58
   -------------------------

  ==> Iterations <==

                        Total Energy        Delta E     RMS |[F,P]|

   @RHF iter SAD:   -75.12841130317550   -7.51284e+01   0.00000e+00 
   @RHF iter   1:   -75.82212931844677   -6.93718e-01   1.53750e-02 DIIS
   @RHF iter   2:   -75.86913127075283   -4.70020e-02   1.41040e-02 DIIS
   @RHF iter   3:   -75.93614780360028   -6.70165e-02   1.18086e-03 DIIS
   @RHF iter   4:   -75.93737678444570   -1.22898e-03   3.88062e-04 DIIS
   @RHF iter   5:   -75.93752685124895   -1.50067e-04   6.75907e-05 DIIS
   @RHF iter   6:   -75.93753355014648   -6.69890e-06   1.28288e-05 DIIS
   @RHF iter   7:   -75.93753377051537   -2.20369e-07   2.88833e-06 DIIS
   @RHF iter   8:   -75.93753378513328   -1.46179e-08   1.04079e-06 DIIS
   @RHF iter   9:   -75.93753378763417   -2.50088e-09   2.79809e-07 DIIS
   @RHF iter  10:   -75.93753378778942   -1.55254e-10   2.36505e-08 DIIS
   @RHF iter  11:   -75.93753378779061   -1.19371e-12   2.68650e-09 DIIS
   @RHF iter  12:   -75.93753378779063   -1.42109e-14   4.73775e-10 DIIS
   @RHF iter  13:   -75.93753378779064   -1.42109e-14   4.04150e-11 DIIS
  Energy and wave function converged.


  ==> Post-Iterations <==

    Orbital Energies [Eh]
    ---------------------

    Doubly Occupied:                                                      

       1A1   -20.600013     2A1    -1.241182     1B1    -0.576513  
       3A1    -0.520702     1B2    -0.492475  

    Virtual:                                                              

       4A1     0.092987     2B1     0.155987     3B1     0.435627  
       5A1     0.454192     6A1     0.697970     2B2     0.744300  
       1A2     0.802488     7A1     0.817093     4B1     0.824206  
       3B2     0.961137     5B1     1.050003     8A1     1.186465  
       6B1     1.284273     9A1     1.385476     4B2     1.904983  
       2A2     1.928206    10A1     1.999093    11A1     2.292202  
       7B1     2.396231     8B1     2.679011    12A1     2.716804  
       5B2     3.370586    13A1     3.409751     9B1     3.413162  
       3A2     3.428594    10B1     3.473042     6B2     3.609847  
      14A1     3.695274    11B1     3.751342     4A2     3.756405  
      15A1     3.849704     5A2     3.964518    16A1     3.989057  
       7B2     3.989524    12B1     4.113147     8B2     4.348241  
      17A1     4.375306    13B1     4.383333    18A1     5.116266  
      14B1     5.434528     9B2     5.673940    19A1     5.808009  
      10B2     6.055296     6A2     6.119976    15B1     6.256199  
      20A1     6.516996    16B1     6.832322    11B2     6.948712  
       7A2     7.043119    21A1     7.139790    22A1     7.439202  
      17B1     7.630944    23A1     9.279791  

    Final Occupation by Irrep:
             A1    A2    B1    B2 
    DOCC [     3,    0,    1,    1 ]

  @RHF Final Energy:   -75.93753378779064

   => Energetics <=

    Nuclear Repulsion Energy =              6.9731112794988093
    One-Electron Energy =                -118.9595197332286318
    Two-Electron Energy =                  36.0488746659391808
    Total Energy =                        -75.9375337877906418

Computation Completed


Properties will be evaluated at   0.000000,   0.000000,   0.000000 [a0]

Properties computed using the SCF density matrix

  Nuclear Dipole Moment: [e a0]
     X:     0.0000      Y:     1.2817      Z:     0.0000

  Electronic Dipole Moment: [e a0]
     X:     0.0000      Y:    -0.4195      Z:     0.0000

  Dipole Moment: [e a0]
     X:     0.0000      Y:     0.8622      Z:     0.0000     Total:     0.8622

  Dipole Moment: [D]
     X:     0.0000      Y:     2.1916      Z:     0.0000     Total:     2.1916


*** tstop() called on n045 at Fri Jun 19 12:33:37 2020
Module time:
	user time   =       2.06 seconds =       0.03 minutes
	system time =       0.02 seconds =       0.00 minutes
	total time  =          1 seconds =       0.02 minutes
Total time:
	user time   =       2.06 seconds =       0.03 minutes
	system time =       0.02 seconds =       0.00 minutes
	total time  =          1 seconds =       0.02 minutes
 MINTS: Wrapper to libmints.
   by Justin Turney

   Calculation information:
      Number of threads:                 4
      Number of atoms:                   3
      Number of AO shells:              22
      Number of SO shells:              16
      Number of primitives:             42
      Number of atomic orbitals:        65
      Number of basis functions:        58

      Number of irreps:                  4
      Integral cutoff                 0.00e+00
      Number of functions per irrep: [  23    7   17   11 ]

 OEINTS: Overlap, kinetic, potential, dipole, and quadrupole integrals
         stored in file 35.

      Computing two-electron integrals...done
      Computed 358809 non-zero two-electron integrals.
        Stored in file 33.


*** tstart() called on n045
*** at Fri Jun 19 12:33:37 2020


	Wfn Parameters:
	--------------------
	Wavefunction         = CCSD_T
	Number of irreps     = 4
	Number of MOs        = 58
	Number of active MOs = 58
	AO-Basis             = NONE
	Semicanonical        = false
	Reference            = RHF
	Print Level          = 1

	IRREP	# MOs	# FZDC	# DOCC	# SOCC	# VIRT	# FZVR
	-----	-----	------	------	------	------	------
	 A1	   23	    0	    3	    0	    20	    0
	 A2	   7	    0	    0	    0	    7	    0
	 B1	   17	    0	    1	    0	    16	    0
	 B2	   11	    0	    1	    0	    10	    0
	Transforming integrals...
	IWL integrals will be deleted.
	(OO|OO)...
	Presorting SO-basis two-electron integrals.
	Sorting File: SO Ints (nn|nn) nbuckets = 1
	Transforming the one-electron integrals and constructing Fock matrices
	Starting first half-transformation.
	Sorting half-transformed integrals.
	First half integral transformation complete.
	Starting second half-transformation.
	Two-electron integral transformation complete.
	(OO|OV)...
	Starting second half-transformation.
	Two-electron integral transformation complete.
	(OO|VV)...
	Starting second half-transformation.
	Two-electron integral transformation complete.
	(OV|OO)...
	Starting first half-transformation.
	Sorting half-transformed integrals.
	First half integral transformation complete.
	Starting second half-transformation.
	Two-electron integral transformation complete.
	(OV|OV)...
	Starting second half-transformation.
	Two-electron integral transformation complete.
	(OV|VV)...
	Starting second half-transformation.
	Two-electron integral transformation complete.
	(VV|OO)...
	Starting first half-transformation.
	Sorting half-transformed integrals.
	First half integral transformation complete.
	Starting second half-transformation.
	Two-electron integral transformation complete.
	(VV|OV)...
	Starting second half-transformation.
	Two-electron integral transformation complete.
	(VV|VV)...
	Starting second half-transformation.
	Two-electron integral transformation complete.
	Frozen core energy     =      0.00000000000000

	Size of irrep 0 of <ab|cd> integrals:      0.648 (MW) /      5.184 (MB)
	Size of irrep 1 of <ab|cd> integrals:      0.360 (MW) /      2.880 (MB)
	Size of irrep 2 of <ab|cd> integrals:      0.608 (MW) /      4.867 (MB)
	Size of irrep 3 of <ab|cd> integrals:      0.389 (MW) /      3.115 (MB)
	Total:                                     2.006 (MW) /     16.046 (MB)

	Size of irrep 0 of <ia|bc> integrals:      0.069 (MW) /      0.554 (MB)
	Size of irrep 1 of <ia|bc> integrals:      0.028 (MW) /      0.226 (MB)
	Size of irrep 2 of <ia|bc> integrals:      0.059 (MW) /      0.468 (MB)
	Size of irrep 3 of <ia|bc> integrals:      0.036 (MW) /      0.285 (MB)
	Total:                                     0.191 (MW) /      1.532 (MB)

	Size of irrep 0 of tijab amplitudes:       0.009 (MW) /      0.071 (MB)
	Size of irrep 1 of tijab amplitudes:       0.001 (MW) /      0.010 (MB)
	Size of irrep 2 of tijab amplitudes:       0.005 (MW) /      0.037 (MB)
	Size of irrep 3 of tijab amplitudes:       0.004 (MW) /      0.030 (MB)
	Total:                                     0.018 (MW) /      0.148 (MB)

	Nuclear Rep. energy          =      6.97311127949881
	SCF energy                   =    -75.93753378779064
	One-electron energy          =   -118.95951973472826
	Two-electron energy          =     36.04887466743881
	Reference energy             =    -75.93753378779064

*** tstop() called on n045 at Fri Jun 19 12:33:38 2020
Module time:
	user time   =       0.43 seconds =       0.01 minutes
	system time =       0.08 seconds =       0.00 minutes
	total time  =          1 seconds =       0.02 minutes
Total time:
	user time   =       3.06 seconds =       0.05 minutes
	system time =       0.12 seconds =       0.00 minutes
	total time  =          2 seconds =       0.03 minutes
            **************************
            *                        *
            *        CCENERGY        *
            *                        *
            **************************

    Nuclear Rep. energy (wfn)     =    6.973111279498809
    SCF energy          (wfn)     =  -75.937533787790642
    Reference energy    (file100) =  -75.937533787790642

    Input parameters:
    -----------------
    Wave function   =     CCSD_T
    Reference wfn   =     RHF
    Brueckner       =     No
    Memory (Mbytes) =     30000.0
    Maxiter         =    300
    R_Convergence   =     1.0e-07
    E_Convergence   =     1.0e-09
    Restart         =     Yes
    DIIS            =     Yes
    AO Basis        =     NONE
    ABCD            =     NEW
    Cache Level     =     2
    Cache Type      =     LOW
    Print Level     =     1
    Num. of threads =     4
    # Amps to Print =     10
    Print MP2 Amps? =     No
    Analyze T2 Amps =     No
    Print Pair Ener =     No
    Local CC        =     No
    SCS-MP2         =     False
    SCSN-MP2        =     False
    SCS-CCSD        =     False

MP2 correlation energy -0.2981371196279663
                Solving CC Amplitude Equations
                ------------------------------
  Iter             Energy              RMS        T1Diag      D1Diag    New D1Diag    D2Diag
  ----     ---------------------    ---------   ----------  ----------  ----------   --------
     0        -0.298137119627966    0.000e+00    0.000000    0.000000    0.000000    0.151129
     1        -0.290762102289100    4.750e-02    0.008740    0.016680    0.016680    0.156136
     2        -0.299833912423224    2.223e-02    0.009061    0.017589    0.017589    0.167263
     3        -0.302413357271779    9.407e-03    0.010870    0.022446    0.022446    0.174626
     4        -0.302458471092659    2.197e-03    0.011089    0.023357    0.023357    0.175513
     5        -0.302556627019117    9.599e-04    0.011252    0.024166    0.024166    0.175749
     6        -0.302553773079518    3.349e-04    0.011312    0.024481    0.024481    0.175679
     7        -0.302552982771463    1.040e-04    0.011334    0.024581    0.024581    0.175655
     8        -0.302551910272255    3.161e-05    0.011341    0.024610    0.024610    0.175650
     9        -0.302551010881178    9.100e-06    0.011342    0.024615    0.024615    0.175647
    10        -0.302550982712373    3.006e-06    0.011342    0.024616    0.024616    0.175647
    11        -0.302550964963797    7.139e-07    0.011343    0.024617    0.024617    0.175647
    12        -0.302550982170080    1.924e-07    0.011343    0.024617    0.024617    0.175647
    13        -0.302550987964242    5.318e-08    0.011343    0.024617    0.024617    0.175647
    14        -0.302550989177474    1.799e-08    0.011343    0.024617    0.024617    0.175647
    15        -0.302550989711396    7.695e-09    0.011343    0.024617    0.024617    0.175647
    16        -0.302550989797044    2.435e-09    0.011343    0.024617    0.024617    0.175647

    Iterations converged.


    Largest TIA Amplitudes:
              2   0         0.0174784872
              4  43        -0.0143134645
              2   4        -0.0114835147
              3  31        -0.0112920052
              3  29        -0.0104469095
              2   1         0.0085356208
              3  36         0.0069117639
              2  10         0.0063656439
              1   2        -0.0061803747
              3  33         0.0044377869

    Largest TIjAb Amplitudes:
      3   3  27  27        -0.0582237494
      2   2   0   0        -0.0530541586
      2   3   0  27        -0.0413951725
      3   2  27   0        -0.0413951725
      4   4  43  43        -0.0400570423
      3   3  27  28        -0.0359401186
      3   3  28  27        -0.0359401186
      3   3  28  28        -0.0345757929
      3   3   0   0        -0.0337678282
      2   2   2   2        -0.0296406429

    SCF energy       (wfn)                    =  -75.937533787790642
    Reference energy (file100)                =  -75.937533787790642

    Opposite-spin MP2 correlation energy      =   -0.227345726566602
    Same-spin MP2 correlation energy          =   -0.070791393061365
    Singles MP2 correlation energy            =   -0.000000000000000
    MP2 correlation energy                    =   -0.298137119627966
      * MP2 total energy                      =  -76.235670907418609

    Opposite-spin CCSD correlation energy     =   -0.243624254419834
    Same-spin CCSD correlation energy         =   -0.058926735377210
    Singles CCSD correlation energy           =    0.000000000000000
    CCSD correlation energy                   =   -0.302550989797044
      * CCSD total energy                     =  -76.240084777587683

            **************************
            *                        *
            *        CCTRIPLES       *
            *                        *
            **************************


    Wave function   =    CCSD_T
    Reference wfn   =      RHF

    Nuclear Rep. energy (wfn)                =    6.973111279498809
    SCF energy          (wfn)                =  -75.937533787790642
    Reference energy    (file100)            =  -75.937533787790642
    CCSD energy         (file100)            =   -0.302550989797044
    Total CCSD energy   (file100)            =  -76.240084777587683

    Number of ijk index combinations:              125

    Number of abc index combinations:           148877
    Memory available in words        :      3750000000
    ~Words needed per explicit thread:           32000
    Number of threads for explicit ijk threading:    4

    MKL num_threads set to 1 for explicit threading.

    (T) energy                                =   -0.010990421446150
      * CCSD(T) total energy                  =  -76.251075199033835


			**************************
			*                        *
			*         CCHBAR         *
			*                        *
			**************************


			**************************
			*        CCLAMBDA        *
			**************************


	Nuclear Rep. energy (wfn)     =    6.973111279498809
	Reference           (wfn)     =                    0
	SCF energy          (wfn)     =  -76.251075199033835
	Reference energy    (CC_INFO) =  -75.937533787790642

	Input parameters:
	-----------------
	Maxiter           =    300
	Convergence       = 1.0e-07
	Restart           =     No
	Cache Level       =     2
	Model III         =     No
	DIIS              =     Yes
	AO Basis          =     No
	ABCD              =     NEW
	Local CC          =     No
	Parameters for left-handed eigenvectors:
	    Irr   Root  Ground-State?    EOM energy        R0
	  1   0     0        Yes       0.0000000000   1.0000000000
	Labels for eigenvector 1:
	LIA 0 -1, Lia 0 -1, LIJAB 0 -1, Lijab 0 -1, LIjAb 0 -1, 2LIjAb - LIjbA 0 -1
	Symmetry of left-hand state: A1
	Symmetry of left-hand eigenvector: A1

	          Solving Lambda Equations
	          ------------------------
	Iter     PseudoEnergy or Norm         RMS  
	----     ---------------------     --------
	   0        -0.302626928842943    0.000e+00
	   1        -0.315363767913242    2.641e-02
	   2        -0.313520054014684    5.944e-03
	   3        -0.313901568594410    2.978e-03
	   4        -0.314000127641232    1.102e-03
	   5        -0.314010230759543    3.745e-04
	   6        -0.314008944462729    1.652e-04
	   7        -0.314005396448929    4.511e-05
	   8        -0.314005805344044    1.243e-05
	   9        -0.314005743012038    3.123e-06
	  10        -0.314005763841686    1.151e-06
	  11        -0.314005775581407    3.247e-07
	  12        -0.314005771709598    9.602e-08

	Largest LIA Amplitudes:
	          2   0         0.0205171967
	          2   1         0.0132664094
	          4  43        -0.0089748220
	          3  31        -0.0085579783
	          2   4        -0.0084042822
	          3  29        -0.0073970707
	          3  28         0.0072995895
	          3  36         0.0050899373
	          1   0        -0.0046552822
	          2  10         0.0045707267

	Largest LIjAb Amplitudes:
	  3   3  27  27        -0.0647179588
	  2   2   0   0        -0.0630904876
	  2   3   0  27        -0.0484784972
	  3   2  27   0        -0.0484784972
	  4   4  43  43        -0.0444426086
	  3   3  27  28        -0.0387402451
	  3   3  28  27        -0.0387402451
	  3   3  28  28        -0.0368536442
	  3   3   0   0        -0.0356802598
	  2   3  27   0        -0.0341749276

	Iterations converged.

	Overlap <L|e^T> =        0.89411293944

			**************************
			*                        *
			*        CCDENSITY       *
			*                        *
			**************************


	Input parameters:
	-----------------
	Wave function    = CCSD_T
	Reference wfn    =   RHF
	Dertype          = 1
	Tolerance        = 1.0e-14
	Cache Level      = 2
	AO Basis         = No
	OPDM Only        = No
	Relax OPDM       = Yes
	Compute Xi       = No
	Use Zeta         = No
	Xi connected     = Yes
	Compute NO       = No

	Nuclear Rep. energy (wfn)     =    6.973111279498809
	SCF energy          (wfn)     =  -76.251075199033835
	Reference energy    (file100) =  -75.937533787790642
	CCSD energy         (CC_INFO) =   -0.302550989797044
	(T) energy          (CC_INFO) =   -0.010990421446150
	Total CCSD(T) energy(CC_INFO) =  -76.251075199033835
	Number of States = 1

	Ground?  State     EOM Energy       R0
	  Yes     0 A1    0.0000000000   1.00000000

	Virial Theorem Data:
	--------------------
	Kinetic energy (ref)   =   75.277252036340130
	Kinetic energy (corr)  =    0.404465539985416
	Kinetic energy (total) =   75.681717576325539
	-V/T (ref)             =    2.008771331758122
	-V/T (corr)            =    1.748026617565377
	-V/T (total)           =    2.007377834689059
  Cartesian Displacement SALCs
  By SALC:
  Number of SALCs: 3, nirreps: A1
  Project out translations: False
  Project out rotations: False
	irrep = 0, ncomponent = 2
		0: atom 0, direction x, coef 0.707107
		1: atom 2, direction x, coef -0.707107
	irrep = 0, ncomponent = 2
		0: atom 0, direction y, coef 0.707107
		1: atom 2, direction y, coef 0.707107
	irrep = 0, ncomponent = 1
		0: atom 1, direction y, coef 1.000000

  By Atomic Center:
  Number of atomic centers: 3
   Atomic Center 0:
	x component, size = 1
		0: salc 0, irrep 0, coef 0.707107
	y component, size = 1
		0: salc 1, irrep 0, coef 0.707107
	z component, size = 0
   Atomic Center 1:
	x component, size = 0
	y component, size = 1
		0: salc 2, irrep 0, coef 1.000000
	z component, size = 0
   Atomic Center 2:
	x component, size = 1
		0: salc 0, irrep 0, coef -0.707107
	y component, size = 1
		0: salc 1, irrep 0, coef 0.707107
	z component, size = 0

    Molecular point group: c2v
    Full point group: C2v

    Geometry (in Bohr), charge = 0, multiplicity = 1:

       Center              X                  Y                   Z       
    ------------   -----------------  -----------------  -----------------
         H           -1.889725988600     1.292242908889     0.000000000000
         O            0.000000000000    -0.162846102311     0.000000000000
         H            1.889725988600     1.292242908889     0.000000000000

	Presorting MO-basis TPDM.
	Sorting File: MO TPDM (AA|AA) nbuckets = 1
	Starting first half-transformation.
	Sorting half-transformed TPDM.
	First half integral transformation complete.


  -Nuclear Repulsion Energy 1st Derivatives:
     Atom            X                  Y                   Z
    ------   -----------------  -----------------  -----------------
       1        1.184326169477    -0.858025652520     0.000000000000
       2        0.000000000000     1.716051305040     0.000000000000
       3       -1.184326169477    -0.858025652520     0.000000000000


  -Core Hamiltonian Gradient:
     Atom            X                  Y                   Z
    ------   -----------------  -----------------  -----------------
       1       -3.159523284171     2.267198462231     0.000000000000
       2        0.000000000000    -4.534396924462     0.000000000000
       3        3.159523284171     2.267198462231     0.000000000000


  -Lagrangian contribution to gradient:
     Atom            X                  Y                   Z
    ------   -----------------  -----------------  -----------------
       1        0.171004401649    -0.129215272698     0.000000000000
       2        0.000000000000     0.258430545396     0.000000000000
       3       -0.171004401649    -0.129215272698     0.000000000000


  -Two-electron contribution to gradient:
     Atom            X                  Y                   Z
    ------   -----------------  -----------------  -----------------
       1        1.705863443572    -1.218150922713     0.000000000000
       2        0.000000000000     2.436301845427     0.000000000000
       3       -1.705863443572    -1.218150922713     0.000000000000


  -Total gradient:
     Atom            X                  Y                   Z
    ------   -----------------  -----------------  -----------------
       1       -0.098329269473     0.061806614299     0.000000000000
       2        0.000000000000    -0.123613228599     0.000000000000
       3        0.098329269473     0.061806614299     0.000000000000


  Based on options and gradient (rms=6.85E-02), recommend projecting translations and not projecting rotations.
hessian() will perform frequency computation by finite difference of analytic gradients.

         ----------------------------------------------------------
                                   FINDIF
                     R. A. King and Jonathon Misiewicz
         ---------------------------------------------------------

  Using finite-differences of gradients to determine vibrational frequencies and 
  normal modes. Resulting frequencies are only valid at stationary points.
    Generating geometries for use with 3-point formula.
    Displacement size will be 5.00e-03.
    Number of atoms is 3.
    Number of irreps is 4.
    Number of SALCs is 6.
    Translations projected? 1. Rotations projected? 0.
    Index of SALCs per irrep:
     1 :  0  1 
     2 :  2 
     3 :  3  4 
     4 :  5 
    Number of SALCs per irrep:
     Irrep 1: 2
     Irrep 2: 1
     Irrep 3: 2
     Irrep 4: 1
    Number of geometries (including reference) is 9.
    Number of displacements per irrep:
      Irrep 1: 4
      Irrep 2: 1
      Irrep 3: 2
      Irrep 4: 1

  //>>>>>>>>>>>>>>>>>>>>>>>>>>>>>>>>>>>//
  //    Loading displacement 1 of 9    //
  //<<<<<<<<<<<<<<<<<<<<<<<<<<<<<<<<<<<//

Scratch directory: /tmp/330817.1.debug.q/
gradient() will perform analytic gradient computation.

*** tstart() called on n045
*** at Fri Jun 19 12:33:46 2020

   => Loading Basis Set <=

    Name: CC-PVTZ
    Role: ORBITAL
    Keyword: BASIS
    atoms 1, 3 entry H          line    23 file /opt/psi/4/master/share/psi4/basis/cc-pvtz.gbs 
    atoms 2    entry O          line   262 file /opt/psi/4/master/share/psi4/basis/cc-pvtz.gbs 


         ---------------------------------------------------------
                                   SCF
               by Justin Turney, Rob Parrish, Andy Simmonett
                          and Daniel G. A. Smith
                              RHF Reference
                        4 Threads,  28610 MiB Core
         ---------------------------------------------------------

  ==> Geometry <==

    Molecular point group: c2v
    Full point group: C2v

    Geometry (in Bohr), charge = 0, multiplicity = 1:

       Center              X                  Y                   Z               Mass       
    ------------   -----------------  -----------------  -----------------  -----------------
         H           -1.889725988600     1.292242908889     0.000000000000     1.007825032230
         O            0.000000000000    -0.162846102311     0.000000000000    15.994914619570
         H            1.889725988600     1.292242908889     0.000000000000     1.007825032230

  Running in c2v symmetry.

  Rotational constants: A =     15.88347  B =      8.36337  C =      5.47863 [cm^-1]
  Rotational constants: A = 476174.43856  B = 250727.58955  C = 164245.06270 [MHz]
  Nuclear repulsion =    6.973111279498809

  Charge       = 0
  Multiplicity = 1
  Electrons    = 10
  Nalpha       = 5
  Nbeta        = 5

  ==> Algorithm <==

  SCF Algorithm Type is PK.
  DIIS enabled.
  MOM disabled.
  Fractional occupation disabled.
  Guess Type is SAD.
  Energy threshold   = 1.00e-09
  Density threshold  = 1.00e-10
  Integral threshold = 0.00e+00

  ==> Primary Basis <==

  Basis Set: CC-PVTZ
    Blend: CC-PVTZ
    Number of shells: 22
    Number of basis function: 58
    Number of Cartesian functions: 65
    Spherical Harmonics?: true
    Max angular momentum: 3

  ==> Integral Setup <==

  Using in-core PK algorithm.
   Calculation information:
      Number of atoms:                   3
      Number of AO shells:              22
      Number of primitives:             42
      Number of atomic orbitals:        65
      Number of basis functions:        58

      Integral cutoff                 1.00e-12
      Number of threads:                 4

  Performing in-core PK
  Using 2929232 doubles for integral storage.
  We computed 43467 shell quartets total.
  Whereas there are 32131 unique shell quartets.
    35.28 percent of shell quartets recomputed by reordering.

  ==> DiskJK: Disk-Based J/K Matrices <==

    J tasked:                  Yes
    K tasked:                  Yes
    wK tasked:                  No
    Memory [MiB]:            21457
    Schwarz Cutoff:          1E-12

    OpenMP threads:              4

  Minimum eigenvalue in the overlap matrix is 7.6171802149E-03.
  Reciprocal condition number of the overlap matrix is 1.9918785885E-03.
    Using symmetric orthogonalization.

  ==> Pre-Iterations <==

  SCF Guess: Superposition of Atomic Densities via on-the-fly atomic UHF (no occupation information).

   -------------------------
    Irrep   Nso     Nmo    
   -------------------------
     A1        23      23 
     A2         7       7 
     B1        17      17 
     B2        11      11 
   -------------------------
    Total      58      58
   -------------------------

  ==> Iterations <==

                        Total Energy        Delta E     RMS |[F,P]|

   @RHF iter SAD:   -75.12841130317547   -7.51284e+01   0.00000e+00 
   @RHF iter   1:   -75.82212931844707   -6.93718e-01   1.53750e-02 DIIS
   @RHF iter   2:   -75.86913127075312   -4.70020e-02   1.41040e-02 DIIS
   @RHF iter   3:   -75.93614780360055   -6.70165e-02   1.18086e-03 DIIS
   @RHF iter   4:   -75.93737678444602   -1.22898e-03   3.88062e-04 DIIS
   @RHF iter   5:   -75.93752685124929   -1.50067e-04   6.75907e-05 DIIS
   @RHF iter   6:   -75.93753355014682   -6.69890e-06   1.28288e-05 DIIS
   @RHF iter   7:   -75.93753377051567   -2.20369e-07   2.88833e-06 DIIS
   @RHF iter   8:   -75.93753378513347   -1.46178e-08   1.04079e-06 DIIS
   @RHF iter   9:   -75.93753378763452   -2.50105e-09   2.79809e-07 DIIS
   @RHF iter  10:   -75.93753378778975   -1.55225e-10   2.36505e-08 DIIS
   @RHF iter  11:   -75.93753378779087   -1.12266e-12   2.68650e-09 DIIS
   @RHF iter  12:   -75.93753378779091   -4.26326e-14   4.73775e-10 DIIS
   @RHF iter  13:   -75.93753378779087    4.26326e-14   4.04149e-11 DIIS
  Energy and wave function converged.


  ==> Post-Iterations <==

    Orbital Energies [Eh]
    ---------------------

    Doubly Occupied:                                                      

       1A1   -20.600013     2A1    -1.241182     1B1    -0.576513  
       3A1    -0.520702     1B2    -0.492475  

    Virtual:                                                              

       4A1     0.092987     2B1     0.155987     3B1     0.435627  
       5A1     0.454192     6A1     0.697970     2B2     0.744300  
       1A2     0.802488     7A1     0.817093     4B1     0.824206  
       3B2     0.961137     5B1     1.050003     8A1     1.186465  
       6B1     1.284273     9A1     1.385476     4B2     1.904983  
       2A2     1.928206    10A1     1.999093    11A1     2.292202  
       7B1     2.396231     8B1     2.679011    12A1     2.716804  
       5B2     3.370586    13A1     3.409751     9B1     3.413162  
       3A2     3.428594    10B1     3.473042     6B2     3.609847  
      14A1     3.695274    11B1     3.751342     4A2     3.756405  
      15A1     3.849704     5A2     3.964518    16A1     3.989057  
       7B2     3.989524    12B1     4.113147     8B2     4.348241  
      17A1     4.375306    13B1     4.383333    18A1     5.116266  
      14B1     5.434528     9B2     5.673940    19A1     5.808009  
      10B2     6.055296     6A2     6.119976    15B1     6.256199  
      20A1     6.516996    16B1     6.832322    11B2     6.948712  
       7A2     7.043119    21A1     7.139790    22A1     7.439202  
      17B1     7.630944    23A1     9.279791  

    Final Occupation by Irrep:
             A1    A2    B1    B2 
    DOCC [     3,    0,    1,    1 ]

  @RHF Final Energy:   -75.93753378779087

   => Energetics <=

    Nuclear Repulsion Energy =              6.9731112794988093
    One-Electron Energy =                -118.9595197332290866
    Two-Electron Energy =                  36.0488746659394153
    Total Energy =                        -75.9375337877908692

Computation Completed


Properties will be evaluated at   0.000000,   0.000000,   0.000000 [a0]

Properties computed using the SCF density matrix

  Nuclear Dipole Moment: [e a0]
     X:     0.0000      Y:     1.2817      Z:     0.0000

  Electronic Dipole Moment: [e a0]
     X:     0.0000      Y:    -0.4195      Z:     0.0000

  Dipole Moment: [e a0]
     X:     0.0000      Y:     0.8622      Z:     0.0000     Total:     0.8622

  Dipole Moment: [D]
     X:     0.0000      Y:     2.1916      Z:     0.0000     Total:     2.1916


*** tstop() called on n045 at Fri Jun 19 12:33:47 2020
Module time:
	user time   =       2.49 seconds =       0.04 minutes
	system time =       0.05 seconds =       0.00 minutes
	total time  =          1 seconds =       0.02 minutes
Total time:
	user time   =      23.96 seconds =       0.40 minutes
	system time =       1.52 seconds =       0.03 minutes
	total time  =         11 seconds =       0.18 minutes
 MINTS: Wrapper to libmints.
   by Justin Turney

   Calculation information:
      Number of threads:                 4
      Number of atoms:                   3
      Number of AO shells:              22
      Number of SO shells:              16
      Number of primitives:             42
      Number of atomic orbitals:        65
      Number of basis functions:        58

      Number of irreps:                  4
      Integral cutoff                 0.00e+00
      Number of functions per irrep: [  23    7   17   11 ]

 OEINTS: Overlap, kinetic, potential, dipole, and quadrupole integrals
         stored in file 35.

      Computing two-electron integrals...done
      Computed 358809 non-zero two-electron integrals.
        Stored in file 33.


*** tstart() called on n045
*** at Fri Jun 19 12:33:47 2020


	Wfn Parameters:
	--------------------
	Wavefunction         = CCSD_T
	Number of irreps     = 4
	Number of MOs        = 58
	Number of active MOs = 58
	AO-Basis             = NONE
	Semicanonical        = false
	Reference            = RHF
	Print Level          = 1

	IRREP	# MOs	# FZDC	# DOCC	# SOCC	# VIRT	# FZVR
	-----	-----	------	------	------	------	------
	 A1	   23	    0	    3	    0	    20	    0
	 A2	   7	    0	    0	    0	    7	    0
	 B1	   17	    0	    1	    0	    16	    0
	 B2	   11	    0	    1	    0	    10	    0
	Transforming integrals...
	IWL integrals will be deleted.
	(OO|OO)...
	Presorting SO-basis two-electron integrals.
	Sorting File: SO Ints (nn|nn) nbuckets = 1
	Transforming the one-electron integrals and constructing Fock matrices
	Starting first half-transformation.
	Sorting half-transformed integrals.
	First half integral transformation complete.
	Starting second half-transformation.
	Two-electron integral transformation complete.
	(OO|OV)...
	Starting second half-transformation.
	Two-electron integral transformation complete.
	(OO|VV)...
	Starting second half-transformation.
	Two-electron integral transformation complete.
	(OV|OO)...
	Starting first half-transformation.
	Sorting half-transformed integrals.
	First half integral transformation complete.
	Starting second half-transformation.
	Two-electron integral transformation complete.
	(OV|OV)...
	Starting second half-transformation.
	Two-electron integral transformation complete.
	(OV|VV)...
	Starting second half-transformation.
	Two-electron integral transformation complete.
	(VV|OO)...
	Starting first half-transformation.
	Sorting half-transformed integrals.
	First half integral transformation complete.
	Starting second half-transformation.
	Two-electron integral transformation complete.
	(VV|OV)...
	Starting second half-transformation.
	Two-electron integral transformation complete.
	(VV|VV)...
	Starting second half-transformation.
	Two-electron integral transformation complete.
	Frozen core energy     =      0.00000000000000

	Size of irrep 0 of <ab|cd> integrals:      0.648 (MW) /      5.184 (MB)
	Size of irrep 1 of <ab|cd> integrals:      0.360 (MW) /      2.880 (MB)
	Size of irrep 2 of <ab|cd> integrals:      0.608 (MW) /      4.867 (MB)
	Size of irrep 3 of <ab|cd> integrals:      0.389 (MW) /      3.115 (MB)
	Total:                                     2.006 (MW) /     16.046 (MB)

	Size of irrep 0 of <ia|bc> integrals:      0.069 (MW) /      0.554 (MB)
	Size of irrep 1 of <ia|bc> integrals:      0.028 (MW) /      0.226 (MB)
	Size of irrep 2 of <ia|bc> integrals:      0.059 (MW) /      0.468 (MB)
	Size of irrep 3 of <ia|bc> integrals:      0.036 (MW) /      0.285 (MB)
	Total:                                     0.191 (MW) /      1.532 (MB)

	Size of irrep 0 of tijab amplitudes:       0.009 (MW) /      0.071 (MB)
	Size of irrep 1 of tijab amplitudes:       0.001 (MW) /      0.010 (MB)
	Size of irrep 2 of tijab amplitudes:       0.005 (MW) /      0.037 (MB)
	Size of irrep 3 of tijab amplitudes:       0.004 (MW) /      0.030 (MB)
	Total:                                     0.018 (MW) /      0.148 (MB)

	Nuclear Rep. energy          =      6.97311127949881
	SCF energy                   =    -75.93753378779087
	One-electron energy          =   -118.95951973472847
	Two-electron energy          =     36.04887466743882
	Reference energy             =    -75.93753378779085

*** tstop() called on n045 at Fri Jun 19 12:33:47 2020
Module time:
	user time   =       0.43 seconds =       0.01 minutes
	system time =       0.08 seconds =       0.00 minutes
	total time  =          0 seconds =       0.00 minutes
Total time:
	user time   =      24.95 seconds =       0.42 minutes
	system time =       1.63 seconds =       0.03 minutes
	total time  =         11 seconds =       0.18 minutes
            **************************
            *                        *
            *        CCENERGY        *
            *                        *
            **************************

    Nuclear Rep. energy (wfn)     =    6.973111279498809
    SCF energy          (wfn)     =  -75.937533787790869
    Reference energy    (file100) =  -75.937533787790855

    Input parameters:
    -----------------
    Wave function   =     CCSD_T
    Reference wfn   =     RHF
    Brueckner       =     No
    Memory (Mbytes) =     30000.0
    Maxiter         =    300
    R_Convergence   =     1.0e-07
    E_Convergence   =     1.0e-09
    Restart         =     Yes
    DIIS            =     Yes
    AO Basis        =     NONE
    ABCD            =     NEW
    Cache Level     =     2
    Cache Type      =     LOW
    Print Level     =     1
    Num. of threads =     4
    # Amps to Print =     10
    Print MP2 Amps? =     No
    Analyze T2 Amps =     No
    Print Pair Ener =     No
    Local CC        =     No
    SCS-MP2         =     False
    SCSN-MP2        =     False
    SCS-CCSD        =     False

MP2 correlation energy -0.2981371196279651
                Solving CC Amplitude Equations
                ------------------------------
  Iter             Energy              RMS        T1Diag      D1Diag    New D1Diag    D2Diag
  ----     ---------------------    ---------   ----------  ----------  ----------   --------
     0        -0.298137119627965    0.000e+00    0.000000    0.000000    0.000000    0.151129
     1        -0.290762102289099    4.750e-02    0.008740    0.016680    0.016680    0.156136
     2        -0.299833912423222    2.223e-02    0.009061    0.017589    0.017589    0.167263
     3        -0.302413357271777    9.407e-03    0.010870    0.022446    0.022446    0.174626
     4        -0.302458471092657    2.197e-03    0.011089    0.023357    0.023357    0.175513
     5        -0.302556627019115    9.599e-04    0.011252    0.024166    0.024166    0.175749
     6        -0.302553773079516    3.349e-04    0.011312    0.024481    0.024481    0.175679
     7        -0.302552982771461    1.040e-04    0.011334    0.024581    0.024581    0.175655
     8        -0.302551910272253    3.161e-05    0.011341    0.024610    0.024610    0.175650
     9        -0.302551010881176    9.100e-06    0.011342    0.024615    0.024615    0.175647
    10        -0.302550982712372    3.006e-06    0.011342    0.024616    0.024616    0.175647
    11        -0.302550964963795    7.139e-07    0.011343    0.024617    0.024617    0.175647
    12        -0.302550982170078    1.924e-07    0.011343    0.024617    0.024617    0.175647
    13        -0.302550987964240    5.318e-08    0.011343    0.024617    0.024617    0.175647
    14        -0.302550989177472    1.799e-08    0.011343    0.024617    0.024617    0.175647
    15        -0.302550989711394    7.695e-09    0.011343    0.024617    0.024617    0.175647
    16        -0.302550989797043    2.435e-09    0.011343    0.024617    0.024617    0.175647

    Iterations converged.


    Largest TIA Amplitudes:
              2   0         0.0174784872
              4  43        -0.0143134645
              2   4        -0.0114835147
              3  31        -0.0112920052
              3  29        -0.0104469095
              2   1         0.0085356208
              3  36         0.0069117639
              2  10         0.0063656439
              1   2        -0.0061803747
              3  33         0.0044377869

    Largest TIjAb Amplitudes:
      3   3  27  27        -0.0582237494
      2   2   0   0        -0.0530541586
      2   3   0  27        -0.0413951725
      3   2  27   0        -0.0413951725
      4   4  43  43        -0.0400570423
      3   3  27  28        -0.0359401186
      3   3  28  27        -0.0359401186
      3   3  28  28        -0.0345757929
      3   3   0   0        -0.0337678282
      2   2   2   2        -0.0296406429

    SCF energy       (wfn)                    =  -75.937533787790869
    Reference energy (file100)                =  -75.937533787790855

    Opposite-spin MP2 correlation energy      =   -0.227345726566601
    Same-spin MP2 correlation energy          =   -0.070791393061365
    Singles MP2 correlation energy            =   -0.000000000000000
    MP2 correlation energy                    =   -0.298137119627965
      * MP2 total energy                      =  -76.235670907418822

    Opposite-spin CCSD correlation energy     =   -0.243624254419833
    Same-spin CCSD correlation energy         =   -0.058926735377210
    Singles CCSD correlation energy           =    0.000000000000000
    CCSD correlation energy                   =   -0.302550989797043
      * CCSD total energy                     =  -76.240084777587896

            **************************
            *                        *
            *        CCTRIPLES       *
            *                        *
            **************************


    Wave function   =    CCSD_T
    Reference wfn   =      RHF

    Nuclear Rep. energy (wfn)                =    6.973111279498809
    SCF energy          (wfn)                =  -75.937533787790869
    Reference energy    (file100)            =  -75.937533787790855
    CCSD energy         (file100)            =   -0.302550989797043
    Total CCSD energy   (file100)            =  -76.240084777587896

    Number of ijk index combinations:              125

    Number of abc index combinations:           148877
    Memory available in words        :      3750000000
    ~Words needed per explicit thread:           32000
    Number of threads for explicit ijk threading:    4

    MKL num_threads set to 1 for explicit threading.

    (T) energy                                =   -0.010990421446150
      * CCSD(T) total energy                  =  -76.251075199034048


			**************************
			*                        *
			*         CCHBAR         *
			*                        *
			**************************


			**************************
			*        CCLAMBDA        *
			**************************


	Nuclear Rep. energy (wfn)     =    6.973111279498809
	Reference           (wfn)     =                    0
	SCF energy          (wfn)     =  -76.251075199034048
	Reference energy    (CC_INFO) =  -75.937533787790855

	Input parameters:
	-----------------
	Maxiter           =    300
	Convergence       = 1.0e-07
	Restart           =     No
	Cache Level       =     2
	Model III         =     No
	DIIS              =     Yes
	AO Basis          =     No
	ABCD              =     NEW
	Local CC          =     No
	Parameters for left-handed eigenvectors:
	    Irr   Root  Ground-State?    EOM energy        R0
	  1   0     0        Yes       0.0000000000   1.0000000000
	Labels for eigenvector 1:
	LIA 0 -1, Lia 0 -1, LIJAB 0 -1, Lijab 0 -1, LIjAb 0 -1, 2LIjAb - LIjbA 0 -1
	Symmetry of left-hand state: A1
	Symmetry of left-hand eigenvector: A1

	          Solving Lambda Equations
	          ------------------------
	Iter     PseudoEnergy or Norm         RMS  
	----     ---------------------     --------
	   0        -0.302626928842941    9.602e-08
	   1        -0.315363767913241    2.641e-02
	   2        -0.313520054014683    5.944e-03
	   3        -0.313901568594409    2.978e-03
	   4        -0.314000127641231    1.102e-03
	   5        -0.314010230759542    3.745e-04
	   6        -0.314008944462727    1.652e-04
	   7        -0.314005396448928    4.511e-05
	   8        -0.314005805344043    1.243e-05
	   9        -0.314005743012037    3.123e-06
	  10        -0.314005763841684    1.151e-06
	  11        -0.314005775581406    3.247e-07
	  12        -0.314005771709597    9.602e-08

	Largest LIA Amplitudes:
	          2   0         0.0205171967
	          2   1         0.0132664094
	          4  43        -0.0089748220
	          3  31        -0.0085579783
	          2   4        -0.0084042822
	          3  29        -0.0073970707
	          3  28         0.0072995895
	          3  36         0.0050899373
	          1   0        -0.0046552822
	          2  10         0.0045707267

	Largest LIjAb Amplitudes:
	  3   3  27  27        -0.0647179588
	  2   2   0   0        -0.0630904876
	  2   3   0  27        -0.0484784972
	  3   2  27   0        -0.0484784972
	  4   4  43  43        -0.0444426086
	  3   3  27  28        -0.0387402451
	  3   3  28  27        -0.0387402451
	  3   3  28  28        -0.0368536442
	  3   3   0   0        -0.0356802598
	  2   3  27   0        -0.0341749276

	Iterations converged.

	Overlap <L|e^T> =        0.89411293944

			**************************
			*                        *
			*        CCDENSITY       *
			*                        *
			**************************


	Input parameters:
	-----------------
	Wave function    = CCSD_T
	Reference wfn    =   RHF
	Dertype          = 1
	Tolerance        = 1.0e-14
	Cache Level      = 2
	AO Basis         = No
	OPDM Only        = No
	Relax OPDM       = Yes
	Compute Xi       = No
	Use Zeta         = No
	Xi connected     = Yes
	Compute NO       = No

	Nuclear Rep. energy (wfn)     =    6.973111279498809
	SCF energy          (wfn)     =  -76.251075199034048
	Reference energy    (file100) =  -75.937533787790855
	CCSD energy         (CC_INFO) =   -0.302550989797043
	(T) energy          (CC_INFO) =   -0.010990421446150
	Total CCSD(T) energy(CC_INFO) =  -76.251075199034048
	Number of States = 1

	Ground?  State     EOM Energy       R0
	  Yes     0 A1    0.0000000000   1.00000000

	Virial Theorem Data:
	--------------------
	Kinetic energy (ref)   =   75.277252036340172
	Kinetic energy (corr)  =    0.404465539985416
	Kinetic energy (total) =   75.681717576325582
	-V/T (ref)             =    2.008771331758124
	-V/T (corr)            =    1.748026617565372
	-V/T (total)           =    2.007377834689061
  Cartesian Displacement SALCs
  By SALC:
  Number of SALCs: 3, nirreps: A1
  Project out translations: False
  Project out rotations: False
	irrep = 0, ncomponent = 2
		0: atom 0, direction x, coef 0.707107
		1: atom 2, direction x, coef -0.707107
	irrep = 0, ncomponent = 2
		0: atom 0, direction y, coef 0.707107
		1: atom 2, direction y, coef 0.707107
	irrep = 0, ncomponent = 1
		0: atom 1, direction y, coef 1.000000

  By Atomic Center:
  Number of atomic centers: 3
   Atomic Center 0:
	x component, size = 1
		0: salc 0, irrep 0, coef 0.707107
	y component, size = 1
		0: salc 1, irrep 0, coef 0.707107
	z component, size = 0
   Atomic Center 1:
	x component, size = 0
	y component, size = 1
		0: salc 2, irrep 0, coef 1.000000
	z component, size = 0
   Atomic Center 2:
	x component, size = 1
		0: salc 0, irrep 0, coef -0.707107
	y component, size = 1
		0: salc 1, irrep 0, coef 0.707107
	z component, size = 0

    Molecular point group: c2v
    Full point group: C2v

    Geometry (in Bohr), charge = 0, multiplicity = 1:

       Center              X                  Y                   Z       
    ------------   -----------------  -----------------  -----------------
         H           -1.889725988600     1.292242908889     0.000000000000
         O            0.000000000000    -0.162846102311     0.000000000000
         H            1.889725988600     1.292242908889     0.000000000000

	Presorting MO-basis TPDM.
	Sorting File: MO TPDM (AA|AA) nbuckets = 1
	Starting first half-transformation.
	Sorting half-transformed TPDM.
	First half integral transformation complete.


  -Nuclear Repulsion Energy 1st Derivatives:
     Atom            X                  Y                   Z
    ------   -----------------  -----------------  -----------------
       1        1.184326169477    -0.858025652520     0.000000000000
       2        0.000000000000     1.716051305040     0.000000000000
       3       -1.184326169477    -0.858025652520     0.000000000000


  -Core Hamiltonian Gradient:
     Atom            X                  Y                   Z
    ------   -----------------  -----------------  -----------------
       1       -3.159523284171     2.267198462231     0.000000000000
       2        0.000000000000    -4.534396924463     0.000000000000
       3        3.159523284171     2.267198462231     0.000000000000


  -Lagrangian contribution to gradient:
     Atom            X                  Y                   Z
    ------   -----------------  -----------------  -----------------
       1        0.171004401649    -0.129215272698     0.000000000000
       2        0.000000000000     0.258430545396     0.000000000000
       3       -0.171004401649    -0.129215272698     0.000000000000


  -Two-electron contribution to gradient:
     Atom            X                  Y                   Z
    ------   -----------------  -----------------  -----------------
       1        1.705863443572    -1.218150922714     0.000000000000
       2        0.000000000000     2.436301845427     0.000000000000
       3       -1.705863443572    -1.218150922714     0.000000000000


  -Total gradient:
     Atom            X                  Y                   Z
    ------   -----------------  -----------------  -----------------
       1       -0.098329269473     0.061806614299     0.000000000000
       2        0.000000000000    -0.123613228599     0.000000000000
       3        0.098329269473     0.061806614299     0.000000000000


  //>>>>>>>>>>>>>>>>>>>>>>>>>>>>>>>>>>>//
  //    Loading displacement 2 of 9    //
  //<<<<<<<<<<<<<<<<<<<<<<<<<<<<<<<<<<<//

Scratch directory: /tmp/330817.1.debug.q/
gradient() will perform analytic gradient computation.

*** tstart() called on n045
*** at Fri Jun 19 12:33:55 2020

   => Loading Basis Set <=

    Name: CC-PVTZ
    Role: ORBITAL
    Keyword: BASIS
    atoms 1, 3 entry H          line    23 file /opt/psi/4/master/share/psi4/basis/cc-pvtz.gbs 
    atoms 2    entry O          line   262 file /opt/psi/4/master/share/psi4/basis/cc-pvtz.gbs 


         ---------------------------------------------------------
                                   SCF
               by Justin Turney, Rob Parrish, Andy Simmonett
                          and Daniel G. A. Smith
                              RHF Reference
                        4 Threads,  28610 MiB Core
         ---------------------------------------------------------

  ==> Geometry <==

    Molecular point group: c2v
    Full point group: C2v

    Geometry (in Bohr), charge = 0, multiplicity = 1:

       Center              X                  Y                   Z               Mass       
    ------------   -----------------  -----------------  -----------------  -----------------
         H           -1.893247770329     1.292242908889     0.000000000000     1.007825032230
         O            0.000000000000    -0.162846102311     0.000000000000    15.994914619570
         H            1.893247770329     1.292242908889     0.000000000000     1.007825032230

  Running in c2v symmetry.

  Rotational constants: A =     15.88347  B =      8.33229  C =      5.46527 [cm^-1]
  Rotational constants: A = 476174.43856  B = 249795.66022  C = 163844.63831 [MHz]
  Nuclear repulsion =    6.964776779615399

  Charge       = 0
  Multiplicity = 1
  Electrons    = 10
  Nalpha       = 5
  Nbeta        = 5

  ==> Algorithm <==

  SCF Algorithm Type is PK.
  DIIS enabled.
  MOM disabled.
  Fractional occupation disabled.
  Guess Type is SAD.
  Energy threshold   = 1.00e-09
  Density threshold  = 1.00e-10
  Integral threshold = 0.00e+00

  ==> Primary Basis <==

  Basis Set: CC-PVTZ
    Blend: CC-PVTZ
    Number of shells: 22
    Number of basis function: 58
    Number of Cartesian functions: 65
    Spherical Harmonics?: true
    Max angular momentum: 3

  ==> Integral Setup <==

  Using in-core PK algorithm.
   Calculation information:
      Number of atoms:                   3
      Number of AO shells:              22
      Number of primitives:             42
      Number of atomic orbitals:        65
      Number of basis functions:        58

      Integral cutoff                 1.00e-12
      Number of threads:                 4

  Performing in-core PK
  Using 2929232 doubles for integral storage.
  We computed 43467 shell quartets total.
  Whereas there are 32131 unique shell quartets.
    35.28 percent of shell quartets recomputed by reordering.

  ==> DiskJK: Disk-Based J/K Matrices <==

    J tasked:                  Yes
    K tasked:                  Yes
    wK tasked:                  No
    Memory [MiB]:            21457
    Schwarz Cutoff:          1E-12

    OpenMP threads:              4

  Minimum eigenvalue in the overlap matrix is 7.6618846057E-03.
  Reciprocal condition number of the overlap matrix is 2.0050845871E-03.
    Using symmetric orthogonalization.

  ==> Pre-Iterations <==

  SCF Guess: Superposition of Atomic Densities via on-the-fly atomic UHF (no occupation information).

   -------------------------
    Irrep   Nso     Nmo    
   -------------------------
     A1        23      23 
     A2         7       7 
     B1        17      17 
     B2        11      11 
   -------------------------
    Total      58      58
   -------------------------

  ==> Iterations <==

                        Total Energy        Delta E     RMS |[F,P]|

   @RHF iter SAD:   -75.12676284404422   -7.51268e+01   0.00000e+00 
   @RHF iter   1:   -75.82102443671502   -6.94262e-01   1.53868e-02 DIIS
   @RHF iter   2:   -75.86794807929266   -4.69236e-02   1.41368e-02 DIIS
   @RHF iter   3:   -75.93531356806209   -6.73655e-02   1.18441e-03 DIIS
   @RHF iter   4:   -75.93654936129420   -1.23579e-03   3.89356e-04 DIIS
   @RHF iter   5:   -75.93670036192449   -1.51001e-04   6.77295e-05 DIIS
   @RHF iter   6:   -75.93670709292952   -6.73101e-06   1.28885e-05 DIIS
   @RHF iter   7:   -75.93670731615747   -2.23228e-07   2.92953e-06 DIIS
   @RHF iter   8:   -75.93670733129981   -1.51423e-08   1.05728e-06 DIIS
   @RHF iter   9:   -75.93670733389401   -2.59419e-09   2.82069e-07 DIIS
   @RHF iter  10:   -75.93670733405159   -1.57584e-10   2.38227e-08 DIIS
   @RHF iter  11:   -75.93670733405261   -1.02318e-12   2.70302e-09 DIIS
   @RHF iter  12:   -75.93670733405273   -1.13687e-13   4.76699e-10 DIIS
   @RHF iter  13:   -75.93670733405267    5.68434e-14   4.05357e-11 DIIS
  Energy and wave function converged.


  ==> Post-Iterations <==

    Orbital Energies [Eh]
    ---------------------

    Doubly Occupied:                                                      

       1A1   -20.600131     2A1    -1.240837     1B1    -0.576104  
       3A1    -0.520286     1B2    -0.492425  

    Virtual:                                                              

       4A1     0.092645     2B1     0.155692     3B1     0.435401  
       5A1     0.453485     6A1     0.698004     2B2     0.744117  
       1A2     0.802071     7A1     0.818103     4B1     0.824056  
       3B2     0.961459     5B1     1.049447     8A1     1.185091  
       6B1     1.283243     9A1     1.386293     4B2     1.904149  
       2A2     1.927729    10A1     1.998009    11A1     2.291609  
       7B1     2.396309     8B1     2.677918    12A1     2.718825  
       5B2     3.370859    13A1     3.409899     9B1     3.412616  
       3A2     3.428043    10B1     3.471263     6B2     3.609128  
      14A1     3.693002    11B1     3.749703     4A2     3.755565  
      15A1     3.849788     5A2     3.963650    16A1     3.989217  
       7B2     3.989485    12B1     4.111758     8B2     4.346532  
      17A1     4.372371    13B1     4.381095    18A1     5.114136  
      14B1     5.433359     9B2     5.672974    19A1     5.805351  
      10B2     6.053050     6A2     6.116609    15B1     6.254430  
      20A1     6.515990    16B1     6.824788    11B2     6.947669  
       7A2     7.042527    21A1     7.138244    22A1     7.440871  
      17B1     7.630605    23A1     9.269859  

    Final Occupation by Irrep:
             A1    A2    B1    B2 
    DOCC [     3,    0,    1,    1 ]

  @RHF Final Energy:   -75.93670733405267

   => Energetics <=

    Nuclear Repulsion Energy =              6.9647767796153985
    One-Electron Energy =                -118.9434001020643308
    Two-Electron Energy =                  36.0419159883962550
    Total Energy =                        -75.9367073340526701

Computation Completed


Properties will be evaluated at   0.000000,   0.000000,   0.000000 [a0]

Properties computed using the SCF density matrix

  Nuclear Dipole Moment: [e a0]
     X:     0.0000      Y:     1.2817      Z:     0.0000

  Electronic Dipole Moment: [e a0]
     X:     0.0000      Y:    -0.4201      Z:     0.0000

  Dipole Moment: [e a0]
     X:     0.0000      Y:     0.8616      Z:     0.0000     Total:     0.8616

  Dipole Moment: [D]
     X:     0.0000      Y:     2.1900      Z:     0.0000     Total:     2.1900


*** tstop() called on n045 at Fri Jun 19 12:33:56 2020
Module time:
	user time   =       2.47 seconds =       0.04 minutes
	system time =       0.05 seconds =       0.00 minutes
	total time  =          1 seconds =       0.02 minutes
Total time:
	user time   =      45.59 seconds =       0.76 minutes
	system time =       2.99 seconds =       0.05 minutes
	total time  =         20 seconds =       0.33 minutes
 MINTS: Wrapper to libmints.
   by Justin Turney

   Calculation information:
      Number of threads:                 4
      Number of atoms:                   3
      Number of AO shells:              22
      Number of SO shells:              16
      Number of primitives:             42
      Number of atomic orbitals:        65
      Number of basis functions:        58

      Number of irreps:                  4
      Integral cutoff                 0.00e+00
      Number of functions per irrep: [  23    7   17   11 ]

 OEINTS: Overlap, kinetic, potential, dipole, and quadrupole integrals
         stored in file 35.

      Computing two-electron integrals...done
      Computed 358809 non-zero two-electron integrals.
        Stored in file 33.


*** tstart() called on n045
*** at Fri Jun 19 12:33:56 2020


	Wfn Parameters:
	--------------------
	Wavefunction         = CCSD_T
	Number of irreps     = 4
	Number of MOs        = 58
	Number of active MOs = 58
	AO-Basis             = NONE
	Semicanonical        = false
	Reference            = RHF
	Print Level          = 1

	IRREP	# MOs	# FZDC	# DOCC	# SOCC	# VIRT	# FZVR
	-----	-----	------	------	------	------	------
	 A1	   23	    0	    3	    0	    20	    0
	 A2	   7	    0	    0	    0	    7	    0
	 B1	   17	    0	    1	    0	    16	    0
	 B2	   11	    0	    1	    0	    10	    0
	Transforming integrals...
	IWL integrals will be deleted.
	(OO|OO)...
	Presorting SO-basis two-electron integrals.
	Sorting File: SO Ints (nn|nn) nbuckets = 1
	Transforming the one-electron integrals and constructing Fock matrices
	Starting first half-transformation.
	Sorting half-transformed integrals.
	First half integral transformation complete.
	Starting second half-transformation.
	Two-electron integral transformation complete.
	(OO|OV)...
	Starting second half-transformation.
	Two-electron integral transformation complete.
	(OO|VV)...
	Starting second half-transformation.
	Two-electron integral transformation complete.
	(OV|OO)...
	Starting first half-transformation.
	Sorting half-transformed integrals.
	First half integral transformation complete.
	Starting second half-transformation.
	Two-electron integral transformation complete.
	(OV|OV)...
	Starting second half-transformation.
	Two-electron integral transformation complete.
	(OV|VV)...
	Starting second half-transformation.
	Two-electron integral transformation complete.
	(VV|OO)...
	Starting first half-transformation.
	Sorting half-transformed integrals.
	First half integral transformation complete.
	Starting second half-transformation.
	Two-electron integral transformation complete.
	(VV|OV)...
	Starting second half-transformation.
	Two-electron integral transformation complete.
	(VV|VV)...
	Starting second half-transformation.
	Two-electron integral transformation complete.
	Frozen core energy     =      0.00000000000000

	Size of irrep 0 of <ab|cd> integrals:      0.648 (MW) /      5.184 (MB)
	Size of irrep 1 of <ab|cd> integrals:      0.360 (MW) /      2.880 (MB)
	Size of irrep 2 of <ab|cd> integrals:      0.608 (MW) /      4.867 (MB)
	Size of irrep 3 of <ab|cd> integrals:      0.389 (MW) /      3.115 (MB)
	Total:                                     2.006 (MW) /     16.046 (MB)

	Size of irrep 0 of <ia|bc> integrals:      0.069 (MW) /      0.554 (MB)
	Size of irrep 1 of <ia|bc> integrals:      0.028 (MW) /      0.226 (MB)
	Size of irrep 2 of <ia|bc> integrals:      0.059 (MW) /      0.468 (MB)
	Size of irrep 3 of <ia|bc> integrals:      0.036 (MW) /      0.285 (MB)
	Total:                                     0.191 (MW) /      1.532 (MB)

	Size of irrep 0 of tijab amplitudes:       0.009 (MW) /      0.071 (MB)
	Size of irrep 1 of tijab amplitudes:       0.001 (MW) /      0.010 (MB)
	Size of irrep 2 of tijab amplitudes:       0.005 (MW) /      0.037 (MB)
	Size of irrep 3 of tijab amplitudes:       0.004 (MW) /      0.030 (MB)
	Total:                                     0.018 (MW) /      0.148 (MB)

	Nuclear Rep. energy          =      6.96477677961540
	SCF energy                   =    -75.93670733405267
	One-electron energy          =   -118.94340010357183
	Two-electron energy          =     36.04191598990377
	Reference energy             =    -75.93670733405267

*** tstop() called on n045 at Fri Jun 19 12:33:57 2020
Module time:
	user time   =       0.43 seconds =       0.01 minutes
	system time =       0.08 seconds =       0.00 minutes
	total time  =          1 seconds =       0.02 minutes
Total time:
	user time   =      46.60 seconds =       0.78 minutes
	system time =       3.08 seconds =       0.05 minutes
	total time  =         21 seconds =       0.35 minutes
            **************************
            *                        *
            *        CCENERGY        *
            *                        *
            **************************

    Nuclear Rep. energy (wfn)     =    6.964776779615399
    SCF energy          (wfn)     =  -75.936707334052670
    Reference energy    (file100) =  -75.936707334052670

    Input parameters:
    -----------------
    Wave function   =     CCSD_T
    Reference wfn   =     RHF
    Brueckner       =     No
    Memory (Mbytes) =     30000.0
    Maxiter         =    300
    R_Convergence   =     1.0e-07
    E_Convergence   =     1.0e-09
    Restart         =     Yes
    DIIS            =     Yes
    AO Basis        =     NONE
    ABCD            =     NEW
    Cache Level     =     2
    Cache Type      =     LOW
    Print Level     =     1
    Num. of threads =     4
    # Amps to Print =     10
    Print MP2 Amps? =     No
    Analyze T2 Amps =     No
    Print Pair Ener =     No
    Local CC        =     No
    SCS-MP2         =     False
    SCSN-MP2        =     False
    SCS-CCSD        =     False

MP2 correlation energy -0.2982472524613712
                Solving CC Amplitude Equations
                ------------------------------
  Iter             Energy              RMS        T1Diag      D1Diag    New D1Diag    D2Diag
  ----     ---------------------    ---------   ----------  ----------  ----------   --------
     0        -0.298247252461371    0.000e+00    0.000000    0.000000    0.000000    0.151314
     1        -0.290834498450608    4.761e-02    0.008761    0.016737    0.016737    0.156337
     2        -0.299931907593569    2.232e-02    0.009085    0.017659    0.017659    0.167506
     3        -0.302526554516293    9.456e-03    0.010907    0.022560    0.022560    0.174915
     4        -0.302572493060901    2.212e-03    0.011129    0.023484    0.023484    0.175807
     5        -0.302671497379621    9.684e-04    0.011294    0.024304    0.024304    0.176044
     6        -0.302668541843892    3.380e-04    0.011355    0.024622    0.024622    0.175973
     7        -0.302667732400032    1.049e-04    0.011377    0.024724    0.024724    0.175949
     8        -0.302666657695335    3.188e-05    0.011384    0.024753    0.024753    0.175944
     9        -0.302665747475837    9.192e-06    0.011386    0.024758    0.024758    0.175941
    10        -0.302665718257111    3.040e-06    0.011386    0.024759    0.024759    0.175941
    11        -0.302665700187764    7.232e-07    0.011386    0.024759    0.024759    0.175941
    12        -0.302665717542772    1.951e-07    0.011386    0.024760    0.024760    0.175941
    13        -0.302665723426569    5.399e-08    0.011386    0.024760    0.024760    0.175941
    14        -0.302665724648632    1.827e-08    0.011386    0.024760    0.024760    0.175941
    15        -0.302665725190541    7.825e-09    0.011386    0.024760    0.024760    0.175941
    16        -0.302665725278170    2.478e-09    0.011386    0.024760    0.024760    0.175941

    Iterations converged.


    Largest TIA Amplitudes:
              2   0         0.0176078129
              4  43        -0.0143301367
              2   4        -0.0115273429
              3  31        -0.0113261876
              3  29        -0.0104688586
              2   1         0.0085994389
              3  36         0.0069176093
              2  10         0.0063678286
              1   2        -0.0061861714
              3  33         0.0044532785

    Largest TIjAb Amplitudes:
      3   3  27  27        -0.0584502548
      2   2   0   0        -0.0533753025
      2   3   0  27        -0.0416085259
      3   2  27   0        -0.0416085259
      4   4  43  43        -0.0400215641
      3   3  27  28        -0.0360078782
      3   3  28  27        -0.0360078782
      3   3  28  28        -0.0345542280
      3   3   0   0        -0.0339613314
      2   2   2   2        -0.0296391887

    SCF energy       (wfn)                    =  -75.936707334052670
    Reference energy (file100)                =  -75.936707334052670

    Opposite-spin MP2 correlation energy      =   -0.227440984557579
    Same-spin MP2 correlation energy          =   -0.070806267903792
    Singles MP2 correlation energy            =   -0.000000000000000
    MP2 correlation energy                    =   -0.298247252461371
      * MP2 total energy                      =  -76.234954586514036

    Opposite-spin CCSD correlation energy     =   -0.243750777243417
    Same-spin CCSD correlation energy         =   -0.058914948034754
    Singles CCSD correlation energy           =    0.000000000000000
    CCSD correlation energy                   =   -0.302665725278170
      * CCSD total energy                     =  -76.239373059330845

            **************************
            *                        *
            *        CCTRIPLES       *
            *                        *
            **************************


    Wave function   =    CCSD_T
    Reference wfn   =      RHF

    Nuclear Rep. energy (wfn)                =    6.964776779615399
    SCF energy          (wfn)                =  -75.936707334052670
    Reference energy    (file100)            =  -75.936707334052670
    CCSD energy         (file100)            =   -0.302665725278170
    Total CCSD energy   (file100)            =  -76.239373059330845

    Number of ijk index combinations:              125

    Number of abc index combinations:           148877
    Memory available in words        :      3750000000
    ~Words needed per explicit thread:           32000
    Number of threads for explicit ijk threading:    4

    MKL num_threads set to 1 for explicit threading.

    (T) energy                                =   -0.011009031161497
      * CCSD(T) total energy                  =  -76.250382090492337


			**************************
			*                        *
			*         CCHBAR         *
			*                        *
			**************************


			**************************
			*        CCLAMBDA        *
			**************************


	Nuclear Rep. energy (wfn)     =    6.964776779615399
	Reference           (wfn)     =                    0
	SCF energy          (wfn)     =  -76.250382090492337
	Reference energy    (CC_INFO) =  -75.936707334052670

	Input parameters:
	-----------------
	Maxiter           =    300
	Convergence       = 1.0e-07
	Restart           =     No
	Cache Level       =     2
	Model III         =     No
	DIIS              =     Yes
	AO Basis          =     No
	ABCD              =     NEW
	Local CC          =     No
	Parameters for left-handed eigenvectors:
	    Irr   Root  Ground-State?    EOM energy        R0
	  1   0     0        Yes       0.0000000000   1.0000000000
	Labels for eigenvector 1:
	LIA 0 -1, Lia 0 -1, LIJAB 0 -1, Lijab 0 -1, LIjAb 0 -1, 2LIjAb - LIjbA 0 -1
	Symmetry of left-hand state: A1
	Symmetry of left-hand eigenvector: A1

	          Solving Lambda Equations
	          ------------------------
	Iter     PseudoEnergy or Norm         RMS  
	----     ---------------------     --------
	   0        -0.302741998362919    9.602e-08
	   1        -0.315478748296830    2.646e-02
	   2        -0.313630232121722    5.967e-03
	   3        -0.314014571583654    2.997e-03
	   4        -0.314113868548362    1.109e-03
	   5        -0.314124149828687    3.775e-04
	   6        -0.314122824900811    1.667e-04
	   7        -0.314119254620025    4.551e-05
	   8        -0.314119666836501    1.253e-05
	   9        -0.314119603873354    3.159e-06
	  10        -0.314119624989410    1.167e-06
	  11        -0.314119636916596    3.299e-07
	  12        -0.314119632968346    9.784e-08

	Largest LIA Amplitudes:
	          2   0         0.0206812927
	          2   1         0.0133481767
	          4  43        -0.0089732748
	          3  31        -0.0085880037
	          2   4        -0.0084389689
	          3  29        -0.0074146565
	          3  28         0.0073167302
	          3  36         0.0050933582
	          1   0        -0.0046864198
	          2  10         0.0045718345

	Largest LIjAb Amplitudes:
	  3   3  27  27        -0.0649717231
	  2   2   0   0        -0.0634889905
	  2   3   0  27        -0.0487271630
	  3   2  27   0        -0.0487271630
	  4   4  43  43        -0.0444096964
	  3   3  27  28        -0.0388160167
	  3   3  28  27        -0.0388160167
	  3   3  28  28        -0.0368304532
	  3   3   0   0        -0.0358854422
	  2   3  27   0        -0.0344166322

	Iterations converged.

	Overlap <L|e^T> =        0.89384575304

			**************************
			*                        *
			*        CCDENSITY       *
			*                        *
			**************************


	Input parameters:
	-----------------
	Wave function    = CCSD_T
	Reference wfn    =   RHF
	Dertype          = 1
	Tolerance        = 1.0e-14
	Cache Level      = 2
	AO Basis         = No
	OPDM Only        = No
	Relax OPDM       = Yes
	Compute Xi       = No
	Use Zeta         = No
	Xi connected     = Yes
	Compute NO       = No

	Nuclear Rep. energy (wfn)     =    6.964776779615399
	SCF energy          (wfn)     =  -76.250382090492337
	Reference energy    (file100) =  -75.936707334052670
	CCSD energy         (CC_INFO) =   -0.302665725278170
	(T) energy          (CC_INFO) =   -0.011009031161497
	Total CCSD(T) energy(CC_INFO) =  -76.250382090492337
	Number of States = 1

	Ground?  State     EOM Energy       R0
	  Yes     0 A1    0.0000000000   1.00000000

	Virial Theorem Data:
	--------------------
	Kinetic energy (ref)   =   75.275229843205452
	Kinetic energy (corr)  =    0.405041243718270
	Kinetic energy (total) =   75.680271086923725
	-V/T (ref)             =    2.008787452289751
	-V/T (corr)            =    1.747246681596436
	-V/T (total)           =    2.007387684589091
  Cartesian Displacement SALCs
  By SALC:
  Number of SALCs: 3, nirreps: A1
  Project out translations: False
  Project out rotations: False
	irrep = 0, ncomponent = 2
		0: atom 0, direction x, coef 0.707107
		1: atom 2, direction x, coef -0.707107
	irrep = 0, ncomponent = 2
		0: atom 0, direction y, coef 0.707107
		1: atom 2, direction y, coef 0.707107
	irrep = 0, ncomponent = 1
		0: atom 1, direction y, coef 1.000000

  By Atomic Center:
  Number of atomic centers: 3
   Atomic Center 0:
	x component, size = 1
		0: salc 0, irrep 0, coef 0.707107
	y component, size = 1
		0: salc 1, irrep 0, coef 0.707107
	z component, size = 0
   Atomic Center 1:
	x component, size = 0
	y component, size = 1
		0: salc 2, irrep 0, coef 1.000000
	z component, size = 0
   Atomic Center 2:
	x component, size = 1
		0: salc 0, irrep 0, coef -0.707107
	y component, size = 1
		0: salc 1, irrep 0, coef 0.707107
	z component, size = 0

    Molecular point group: c2v
    Full point group: C2v

    Geometry (in Bohr), charge = 0, multiplicity = 1:

       Center              X                  Y                   Z       
    ------------   -----------------  -----------------  -----------------
         H           -1.893247770329     1.292242908889     0.000000000000
         O            0.000000000000    -0.162846102311     0.000000000000
         H            1.893247770329     1.292242908889     0.000000000000

	Presorting MO-basis TPDM.
	Sorting File: MO TPDM (AA|AA) nbuckets = 1
	Starting first half-transformation.
	Sorting half-transformed TPDM.
	First half integral transformation complete.


  -Nuclear Repulsion Energy 1st Derivatives:
     Atom            X                  Y                   Z
    ------   -----------------  -----------------  -----------------
       1        1.182232005173    -0.855020051987     0.000000000000
       2        0.000000000000     1.710040103974     0.000000000000
       3       -1.182232005173    -0.855020051987     0.000000000000


  -Core Hamiltonian Gradient:
     Atom            X                  Y                   Z
    ------   -----------------  -----------------  -----------------
       1       -3.156401931375     2.259158767180     0.000000000000
       2        0.000000000000    -4.518317534361     0.000000000000
       3        3.156401931375     2.259158767180     0.000000000000


  -Lagrangian contribution to gradient:
     Atom            X                  Y                   Z
    ------   -----------------  -----------------  -----------------
       1        0.170803049196    -0.128678723576     0.000000000000
       2        0.000000000000     0.257357447153     0.000000000000
       3       -0.170803049196    -0.128678723576     0.000000000000


[...]
    11        -0.302551117419862    7.139e-07    0.011343    0.024617    0.024617    0.175647
    12        -0.302551134626182    1.924e-07    0.011343    0.024617    0.024617    0.175647
    13        -0.302551140420440    5.318e-08    0.011343    0.024617    0.024617    0.175647
    14        -0.302551141633671    1.799e-08    0.011343    0.024617    0.024617    0.175647
    15        -0.302551142167599    7.695e-09    0.011343    0.024617    0.024617    0.175647
    16        -0.302551142253249    2.435e-09    0.011343    0.024617    0.024617    0.175647

    Iterations converged.


    Largest TIA Amplitudes:
              2   0         0.0174784723
              3   3        -0.0143135078
              2   6        -0.0114835778
              4  35        -0.0112920346
              4  33        -0.0104469752
              2   1         0.0085356307
              4  42         0.0069117736
              2  15         0.0063656652
              1   2        -0.0061803653
              4  38         0.0044378104

    Largest TIjAb Amplitudes:
      4   4  30  30        -0.0582241207
      2   2   0   0        -0.0530544695
      2   4   0  30        -0.0413954373
      4   2  30   0        -0.0413954373
      3   3   3   3        -0.0400569593
      4   4  30  31        -0.0359402172
      4   4  31  30        -0.0359402172
      4   4  31  31        -0.0345757484
      4   4   0   0        -0.0337679365
      2   2   2   2        -0.0296405309

    SCF energy       (wfn)                    =  -75.937533018633616
    Reference energy (file100)                =  -75.937533018633786

    Opposite-spin MP2 correlation energy      =   -0.227345859834130
    Same-spin MP2 correlation energy          =   -0.070791422195500
    Singles MP2 correlation energy            =   -0.000000000000000
    MP2 correlation energy                    =   -0.298137282029630
      * MP2 total energy                      =  -76.235670300663415

    Opposite-spin CCSD correlation energy     =   -0.243624413899884
    Same-spin CCSD correlation energy         =   -0.058926728353366
    Singles CCSD correlation energy           =    0.000000000000000
    CCSD correlation energy                   =   -0.302551142253249
      * CCSD total energy                     =  -76.240084160887037

            **************************
            *                        *
            *        CCTRIPLES       *
            *                        *
            **************************


    Wave function   =    CCSD_T
    Reference wfn   =      RHF

    Nuclear Rep. energy (wfn)                =    6.973103044184354
    SCF energy          (wfn)                =  -75.937533018633616
    Reference energy    (file100)            =  -75.937533018633786
    CCSD energy         (file100)            =   -0.302551142253249
    Total CCSD energy   (file100)            =  -76.240084160887037

    Number of ijk index combinations:              125

    Number of abc index combinations:           148877
    Memory available in words        :      3750000000
    ~Words needed per explicit thread:          108000
    Number of threads for explicit ijk threading:    4

    MKL num_threads set to 1 for explicit threading.

    (T) energy                                =   -0.010990444926772
      * CCSD(T) total energy                  =  -76.251074605813812


			**************************
			*                        *
			*         CCHBAR         *
			*                        *
			**************************


			**************************
			*        CCLAMBDA        *
			**************************


	Nuclear Rep. energy (wfn)     =    6.973103044184354
	Reference           (wfn)     =                    0
	SCF energy          (wfn)     =  -76.251074605813812
	Reference energy    (CC_INFO) =  -75.937533018633786

	Input parameters:
	-----------------
	Maxiter           =    300
	Convergence       = 1.0e-07
	Restart           =     No
	Cache Level       =     2
	Model III         =     No
	DIIS              =     Yes
	AO Basis          =     No
	ABCD              =     NEW
	Local CC          =     No
	Parameters for left-handed eigenvectors:
	    Irr   Root  Ground-State?    EOM energy        R0
	  1   0     0        Yes       0.0000000000   1.0000000000
	Labels for eigenvector 1:
	LIA 0 -1, Lia 0 -1, LIJAB 0 -1, Lijab 0 -1, LIjAb 0 -1, 2LIjAb - LIjbA 0 -1
	Symmetry of left-hand state: Ap
	Symmetry of left-hand eigenvector: Ap

	          Solving Lambda Equations
	          ------------------------
	Iter     PseudoEnergy or Norm         RMS  
	----     ---------------------     --------
	   0        -0.302627081694631    9.612e-08
	   1        -0.315363929376771    2.641e-02
	   2        -0.313520207594561    5.944e-03
	   3        -0.313901724973405    2.978e-03
	   4        -0.314000284776624    1.102e-03
	   5        -0.314010388128071    3.745e-04
	   6        -0.314009101823785    1.652e-04
	   7        -0.314005553803186    4.511e-05
	   8        -0.314005962696363    1.243e-05
	   9        -0.314005900362611    3.123e-06
	  10        -0.314005921192125    1.151e-06
	  11        -0.314005932932001    3.248e-07
	  12        -0.314005929060132    9.602e-08

	Largest LIA Amplitudes:
	          2   0         0.0205172094
	          2   1         0.0132664358
	          3   3        -0.0089748483
	          4  35        -0.0085580045
	          2   6        -0.0084043312
	          4  33        -0.0073971171
	          4  31         0.0072996491
	          4  42         0.0050899431
	          1   0        -0.0046553370
	          2  15         0.0045707419

	Largest LIjAb Amplitudes:
	  4   4  30  30        -0.0647183789
	  2   2   0   0        -0.0630908514
	  2   4   0  30        -0.0484788023
	  4   2  30   0        -0.0484788023
	  3   3   3   3        -0.0444425298
	  4   4  30  31        -0.0387403570
	  4   4  31  30        -0.0387403570
	  4   4  31  31        -0.0368536017
	  4   4   0   0        -0.0356803675
	  2   4  30   0        -0.0341751691

	Iterations converged.

	Overlap <L|e^T> =        0.89411265163

			**************************
			*                        *
			*        CCDENSITY       *
			*                        *
			**************************


	Input parameters:
	-----------------
	Wave function    = CCSD_T
	Reference wfn    =   RHF
	Dertype          = 1
	Tolerance        = 1.0e-14
	Cache Level      = 2
	AO Basis         = No
	OPDM Only        = No
	Relax OPDM       = Yes
	Compute Xi       = No
	Use Zeta         = No
	Xi connected     = Yes
	Compute NO       = No

	Nuclear Rep. energy (wfn)     =    6.973103044184354
	SCF energy          (wfn)     =  -76.251074605813812
	Reference energy    (file100) =  -75.937533018633786
	CCSD energy         (CC_INFO) =   -0.302551142253249
	(T) energy          (CC_INFO) =   -0.010990444926772
	Total CCSD(T) energy(CC_INFO) =  -76.251074605813812
	Number of States = 1

	Ground?  State     EOM Energy       R0
	  Yes     0 Ap    0.0000000000   1.00000000

	Virial Theorem Data:
	--------------------
	Kinetic energy (ref)   =   75.277250157508647
	Kinetic energy (corr)  =    0.404466168275481
	Kinetic energy (total) =   75.681716325784123
	-V/T (ref)             =    2.008771346718213
	-V/T (corr)            =    1.748025832526942
	-V/T (total)           =    2.007377843186052
  Cartesian Displacement SALCs
  By SALC:
  Number of SALCs: 5, nirreps: A'
  Project out translations: False
  Project out rotations: False
	irrep = 0, ncomponent = 2
		0: atom 0, direction x, coef 0.707107
		1: atom 2, direction x, coef -0.707107
	irrep = 0, ncomponent = 2
		0: atom 0, direction y, coef 0.707107
		1: atom 2, direction y, coef 0.707107
	irrep = 0, ncomponent = 2
		0: atom 0, direction z, coef 0.707107
		1: atom 2, direction z, coef 0.707107
	irrep = 0, ncomponent = 1
		0: atom 1, direction y, coef 1.000000
	irrep = 0, ncomponent = 1
		0: atom 1, direction z, coef 1.000000

  By Atomic Center:
  Number of atomic centers: 3
   Atomic Center 0:
	x component, size = 1
		0: salc 0, irrep 0, coef 0.707107
	y component, size = 1
		0: salc 1, irrep 0, coef 0.707107
	z component, size = 1
		0: salc 2, irrep 0, coef 0.707107
   Atomic Center 1:
	x component, size = 0
	y component, size = 1
		0: salc 3, irrep 0, coef 1.000000
	z component, size = 1
		0: salc 4, irrep 0, coef 1.000000
   Atomic Center 2:
	x component, size = 1
		0: salc 0, irrep 0, coef -0.707107
	y component, size = 1
		0: salc 1, irrep 0, coef 0.707107
	z component, size = 1
		0: salc 2, irrep 0, coef 0.707107

    Molecular point group: cs
    Full point group: Cs

    Geometry (in Bohr), charge = 0, multiplicity = 1:

       Center              X                  Y                   Z       
    ------------   -----------------  -----------------  -----------------
         H           -1.889725988600     1.292242908889    -0.003318866125
         O            0.000000000000    -0.162846102311     0.000418237476
         H            1.889725988600     1.292242908889    -0.003318866125

	Presorting MO-basis TPDM.
	Sorting File: MO TPDM (AA|AA) nbuckets = 1
	Starting first half-transformation.
	Sorting half-transformed TPDM.
	First half integral transformation complete.


  -Nuclear Repulsion Energy 1st Derivatives:
     Atom            X                  Y                   Z
    ------   -----------------  -----------------  -----------------
       1        1.184322065702    -0.858022492613     0.002203658279
       2        0.000000000000     1.716044985226    -0.004407316558
       3       -1.184322065702    -0.858022492613     0.002203658279


  -Core Hamiltonian Gradient:
     Atom            X                  Y                   Z
    ------   -----------------  -----------------  -----------------
       1       -3.159512457772     2.267192398211    -0.005822827888
       2        0.000000000000    -4.534384796423     0.011645655776
       3        3.159512457772     2.267192398211    -0.005822827888


  -Lagrangian contribution to gradient:
     Atom            X                  Y                   Z
    ------   -----------------  -----------------  -----------------
       1        0.171003661310    -0.129214840581     0.000331862341
       2        0.000000000000     0.258429681161    -0.000663724682
       3       -0.171003661310    -0.129214840581     0.000331862341


  -Two-electron contribution to gradient:
     Atom            X                  Y                   Z
    ------   -----------------  -----------------  -----------------
       1        1.705857652730    -1.218148367238     0.003128569190
       2        0.000000000000     2.436296734476    -0.006257138380
       3       -1.705857652730    -1.218148367238     0.003128569190


  -Total gradient:
     Atom            X                  Y                   Z
    ------   -----------------  -----------------  -----------------
       1       -0.098329078030     0.061806697779    -0.000158738078
       2        0.000000000000    -0.123613395559     0.000317476156
       3        0.098329078030     0.061806697779    -0.000158738078


         ----------------------------------------------------------
                                   FINDIF
                     R. A. King and Jonathon Misiewicz
         ---------------------------------------------------------

  Computing second-derivative from gradients using projected, 
  symmetry-adapted, cartesian coordinates.

  9 gradients passed in, including the reference geometry.
  Generating complete list of displacements from unique ones.

    Operation 3 takes plus displacements of irrep A2 to minus ones.
    Operation 2 takes plus displacements of irrep B1 to minus ones.
    Operation 2 takes plus displacements of irrep B2 to minus ones.

-------------------------------------------------------------


  ==> Harmonic Vibrational Analysis <==

  non-mass-weighted Hessian:       Symmetric? True   Hermitian? True   Lin Dep Dim?  3 (0)
  projection of translations (True) and rotations (False) removed 3 degrees of freedom (6)
  total projector:                 Symmetric? True   Hermitian? True   Lin Dep Dim?  3 (3)
  mass-weighted Hessian:           Symmetric? True   Hermitian? True   Lin Dep Dim?  3 (0)
  pre-proj  low-frequency mode:    0.0000i [cm^-1]
  pre-proj  low-frequency mode:    0.0000  [cm^-1]
  pre-proj  low-frequency mode:    0.0000  [cm^-1]
  pre-proj  low-frequency mode:  529.0762  [cm^-1]
  pre-proj  low-frequency mode:  832.0185  [cm^-1]
  pre-proj  low-frequency mode: 1119.8437  [cm^-1]
  pre-proj  all modes:['0.0000i' '0.0000' '0.0000' '529.0762' '832.0185' '1119.8437' '1153.4999'
 '1168.0290' '1611.1004']
  projected mass-weighted Hessian: Symmetric? True   Hermitian? True   Lin Dep Dim?  3 (3)
  post-proj low-frequency mode:    0.0000i [cm^-1] (TR)
  post-proj low-frequency mode:    0.0000  [cm^-1] (TR)
  post-proj low-frequency mode:    0.0000  [cm^-1] (TR)
  post-proj low-frequency mode:  529.0762  [cm^-1] (V)
  post-proj low-frequency mode:  832.0185  [cm^-1] (V)
  post-proj low-frequency mode: 1119.8437  [cm^-1] (V)
  post-proj  all modes:['0.0000i' '0.0000' '0.0000' '529.0762' '832.0185' '1119.8437' '1153.4999'
 '1168.0290' '1611.1004']

  Note that "Vibration"s include 3 un-projected rotation-like modes.
  Vibration                       4                   5                   6           
  Freq [cm^-1]                 529.0762            832.0185           1119.8437       
  Irrep                           A1                  B1                  B2          
  Reduced mass [u]              1.0471              1.0915              1.1259        
  Force const [mDyne/A]         0.1727              0.4452              0.8319        
  Turning point v=0 [a0]        0.4662              0.3641              0.3090        
  RMS dev v=0 [a0 u^1/2]        0.3373              0.2690              0.2319        
  Char temp [K]                761.2229           1197.0893           1611.2057       
  ----------------------------------------------------------------------------------
      1   H                0.58 -0.41  0.00    0.59 -0.38 -0.00    0.00  0.00  0.70   
      2   O                0.00  0.05  0.00   -0.07 -0.00  0.00   -0.00 -0.00 -0.09   
      3   H               -0.58 -0.41  0.00    0.59  0.38 -0.00    0.00 -0.00  0.70   

  Vibration                       7                   8                   9           
  Freq [cm^-1]                1153.4999           1168.0290           1611.1004       
  Irrep                           B1                  A2                  A1          
  Reduced mass [u]              1.0371              1.0078              1.0806        
  Force const [mDyne/A]         0.8130              0.8101              1.6526        
  Turning point v=0 [a0]        0.3172              0.3198              0.2630        
  RMS dev v=0 [a0 u^1/2]        0.2284              0.2270              0.1933        
  Char temp [K]               1659.6295           1680.5337           2318.0148       
  ----------------------------------------------------------------------------------
      1   H                0.35  0.61  0.00   -0.00 -0.00  0.71    0.44  0.55  0.00   
      2   O               -0.04  0.00  0.00    0.00  0.00  0.00    0.00 -0.07 -0.00   
      3   H                0.35 -0.61 -0.00   -0.00  0.00 -0.71   -0.44  0.55 -0.00   

  ==> Thermochemistry Components <==

  Entropy, S
    Electronic S            0.000 [cal/(mol K)]        0.000 [J/(mol K)]       0.00000000 [mEh/K] (multiplicity = 1)
    Translational S        34.608 [cal/(mol K)]      144.801 [J/(mol K)]       0.05515177 [mEh/K] (mol. weight = 18.0106 [u], P = 101325.00 [Pa])
    Rotational S           12.092 [cal/(mol K)]       50.593 [J/(mol K)]       0.01926980 [mEh/K] (symmetry no. = 2)
    Vibrational S           0.934 [cal/(mol K)]        3.908 [J/(mol K)]       0.00148861 [mEh/K]
  Total S                  47.634 [cal/(mol K)]      199.302 [J/(mol K)]       0.07591018 [mEh/K]
  Correction S              0.000 [cal/(mol K)]        0.000 [J/(mol K)]       0.00000000 [mEh/K]

  Constant volume heat capacity, Cv
    Electronic Cv           0.000 [cal/(mol K)]        0.000 [J/(mol K)]       0.00000000 [mEh/K]
    Translational Cv        2.981 [cal/(mol K)]       12.472 [J/(mol K)]       0.00475022 [mEh/K]
    Rotational Cv           2.981 [cal/(mol K)]       12.472 [J/(mol K)]       0.00475022 [mEh/K]
    Vibrational Cv          2.563 [cal/(mol K)]       10.724 [J/(mol K)]       0.00408439 [mEh/K]
  Total Cv                  8.525 [cal/(mol K)]       35.667 [J/(mol K)]       0.01358482 [mEh/K]
  Correction Cv             0.000 [cal/(mol K)]        0.000 [J/(mol K)]       0.00000000 [mEh/K]

  Constant pressure heat capacity, Cp
    Electronic Cp           0.000 [cal/(mol K)]        0.000 [J/(mol K)]       0.00000000 [mEh/K]
    Translational Cp        4.968 [cal/(mol K)]       20.786 [J/(mol K)]       0.00791703 [mEh/K]
    Rotational Cp           2.981 [cal/(mol K)]       12.472 [J/(mol K)]       0.00475022 [mEh/K]
    Vibrational Cp          2.563 [cal/(mol K)]       10.724 [J/(mol K)]       0.00408439 [mEh/K]
  Total Cp                 10.512 [cal/(mol K)]       43.981 [J/(mol K)]       0.01675163 [mEh/K]
  Correction Cp             0.000 [cal/(mol K)]        0.000 [J/(mol K)]       0.00000000 [mEh/K]

  ==> Thermochemistry Energy Analysis <==

  Raw electronic energy, E0
  Total E0, Electronic energy at well bottom at 0 [K]                  -76.25107520 [Eh]

  Zero-point energy, ZPE_vib = Sum_i nu_i / 2
    Electronic ZPE          0.000 [kcal/mol]        0.000 [kJ/mol]       0.00000000 [Eh]
    Translational ZPE       0.000 [kcal/mol]        0.000 [kJ/mol]       0.00000000 [Eh]
    Rotational ZPE          0.000 [kcal/mol]        0.000 [kJ/mol]       0.00000000 [Eh]
    Vibrational ZPE         9.169 [kcal/mol]       38.362 [kJ/mol]       0.01461118 [Eh]        3206.784 [cm^-1]
  Correction ZPE            9.169 [kcal/mol]       38.362 [kJ/mol]       0.01461118 [Eh]        3206.784 [cm^-1]
  Total ZPE, Electronic energy at 0 [K]                                -76.23646402 [Eh]

  Thermal Energy, E (includes ZPE)
    Electronic E            0.000 [kcal/mol]        0.000 [kJ/mol]       0.00000000 [Eh]
    Translational E         0.889 [kcal/mol]        3.718 [kJ/mol]       0.00141628 [Eh]
    Rotational E            0.889 [kcal/mol]        3.718 [kJ/mol]       0.00141628 [Eh]
    Vibrational E           9.381 [kcal/mol]       39.250 [kJ/mol]       0.01494967 [Eh]
  Correction E             11.159 [kcal/mol]       46.687 [kJ/mol]       0.01778222 [Eh]
  Total E, Electronic energy at  298.15 [K]                            -76.23329298 [Eh]

  Enthalpy, H_trans = E_trans + k_B * T
    Electronic H            0.000 [kcal/mol]        0.000 [kJ/mol]       0.00000000 [Eh]
    Translational H         1.481 [kcal/mol]        6.197 [kJ/mol]       0.00236046 [Eh]
    Rotational H            0.889 [kcal/mol]        3.718 [kJ/mol]       0.00141628 [Eh]
    Vibrational H           9.381 [kcal/mol]       39.250 [kJ/mol]       0.01494967 [Eh]
  Correction H             11.751 [kcal/mol]       49.166 [kJ/mol]       0.01872641 [Eh]
  Total H, Enthalpy at  298.15 [K]                                     -76.23234879 [Eh]

  Gibbs free energy, G = H - T * S
    Electronic G            0.000 [kcal/mol]        0.000 [kJ/mol]       0.00000000 [Eh]
    Translational G        -8.837 [kcal/mol]      -36.975 [kJ/mol]      -0.01408304 [Eh]
    Rotational G           -2.716 [kcal/mol]      -11.366 [kJ/mol]      -0.00432902 [Eh]
    Vibrational G           9.103 [kcal/mol]       38.085 [kJ/mol]       0.01450584 [Eh]
  Correction G             -2.451 [kcal/mol]      -10.256 [kJ/mol]      -0.00390622 [Eh]
  Total G, Free enthalpy at  298.15 [K]                                -76.25498142 [Eh]

    Psi4 stopped on: Friday, 19 June 2020 12:35PM
    Psi4 wall time for execution: 0:01:42.27

*** Psi4 exiting successfully. Buy a developer a beer!
