
 Primary working directories    : /tmp/601555.1.debug.q
 Secondary working directories  : /tmp/601555.1.debug.q
 Wavefunction directory         : /home/vulcan/mel64643/wfu/
 Main file repository           : /tmp/601555.1.debug.q/

 ARCHNAME  : Linux/x86_64
 FC        : /opt/intel/compilers_and_libraries_2016.1.150/linux/bin/intel64/ifort
 FCVERSION : 16.0.1
 BLASLIB   : -mkl
 id        : ccgc

 Nodes     nprocs
 n044         1
 ga_uses_ma=false, calling ma_init with nominal heap.
 GA-space will be limited to   8.0 MW (determined by -G option)

 Using customized tuning parameters: mindgm=10; mindgv=16; mindgc=4; mindgr=1; noblas=0; mincuda=1000; minvec=7
 default implementation of scratch files=df  

 ***,Optimization of min3
 memory,1000,m
 gthresh,energy=1.0d-12,orbital=1.0d-10,oneint=1.0d-16,twoint=1.0d-16,optgrad=1.0d-6,compress=1.0d-13
 geomtyp=xyz
 
  bohr
  geometry = {
  6
  arbitrary comment
  C   -1.3750731100   -0.0242768600    0.0000003500
  O    1.3060163600    0.1207012800    0.0000003000
  H   -2.0778739500    1.9096129200   -0.0000799100
  H   -2.1089875800   -0.9792726900    1.6819738900
  H   -2.1089805500   -0.9794039300   -1.6819017300
  H    1.9411746700   -1.5774928400   -0.0000013100
 }
 
 basis=cc-pvdz
 {rhf;maxit,200}
 {ccsd(t);maxit,200}

 Variables initialized (661), CPU time= 0.00 sec
 Commands  initialized (458), CPU time= 0.00 sec, 486 directives.
 Default parameters read. Elapsed time= 0.05 sec

 Checking input...
 Passed
1


                                         ***  PROGRAM SYSTEM MOLPRO  ***
                         Copyright, University College Cardiff Consultants Limited, 2008

                                    Version 2010.1 linked May 16 2016 07:17:05


 **********************************************************************************************************************************
 LABEL *   Optimization of min3                                                          
 Linux-4.4.3/n044(x86_64) 64 bit mpp version                                             DATE: 06-Nov-21          TIME: 15:38:35  
 **********************************************************************************************************************************

 SHA1:             9e8077add272b0f3cad6f7df79ec5211205f459d
 **********************************************************************************************************************************

 THRESHOLDS:

 ZERO    =  1.00D-12  ONEINT  =  1.00D-16  TWOINT  =  1.00D-16  PREFAC  =  1.00D-14  LOCALI  =  1.00D-09  EORDER  =  1.00D-04
 ENERGY  =  1.00D-12  ETEST   =  0.00D+00  EDENS   =  0.00D+00  THRDEDEF=  1.00D-06  GRADIENT=  1.00D-02  STEP    =  1.00D-03
 ORBITAL =  1.00D-10  CIVEC   =  1.00D-05  COEFF   =  1.00D-04  PRINTCI =  5.00D-02  PUNCHCI =  9.90D+01  OPTGRAD =  1.00D-06
 OPTENERG=  1.00D-06  OPTSTEP =  3.00D-04  THRGRAD =  1.00D-10  COMPRESS=  1.00D-13  VARMIN  =  1.00D-07  VARMAX  =  1.00D-03
 THRDOUB =  0.00D+00  THRDIV  =  1.00D-05  THRRED  =  1.00D-07  THRPSP  =  1.00D+00  THRDC   =  1.00D-10  THRCS   =  1.00D-10
 THRNRM  =  1.00D-08  THREQ   =  0.00D+00  THRDE   =  1.00D+00  THRREF  =  1.00D-05  SPARFAC =  1.00D+00  THRDLP  =  1.00D-07
 THRDIA  =  1.00D-10  THRDLS  =  1.00D-07  THRGPS  =  0.00D+00  THRKEX  =  0.00D+00  THRDIS  =  2.00D-01  THRVAR  =  1.00D-10
 THRLOC  =  1.00D-06  THRGAP  =  1.00D-06  THRLOCT = -1.00D+00  THRGAPT = -1.00D+00  THRORB  =  1.00D-06  THRMLTP =  0.00D+00
 THRCPQCI=  1.00D-10  KEXTA   =  0.00D+00  THRCOARS=  0.00D+00  SYMTOL  =  1.00D-06  GRADTOL =  1.00D-06  THROVL  =  1.00D-08
 THRORTH =  1.00D-08  GRID    =  1.00D-06  GRIDMAX =  1.00D-03  DTMAX   =  0.00D+00

 SETTING GEOMTYP        =    XYZ
 ZUNIT=BOHR
 

 Variable memory set to 1000000000 words,  buffer space   230000 words

 SETTING BASIS          =    CC-PVDZ


 Recomputing integrals since basis changed


 Using spherical harmonics

 Library entry C      S cc-pVDZ              selected for orbital group  1
 Library entry C      P cc-pVDZ              selected for orbital group  1
 Library entry C      D cc-pVDZ              selected for orbital group  1
 Library entry O      S cc-pVDZ              selected for orbital group  2
 Library entry O      P cc-pVDZ              selected for orbital group  2
 Library entry O      D cc-pVDZ              selected for orbital group  2
 Library entry H      S cc-pVDZ              selected for orbital group  3
 Library entry H      P cc-pVDZ              selected for orbital group  3

1PROGRAM * SEWARD (Integral evaluation for generally contracted gaussian basis sets)     Author: Roland Lindh, 1990

 Geometry written to block  1 of record 700


 Point group  C1  



 ATOMIC COORDINATES

 NR  ATOM    CHARGE       X              Y              Z

   1  C       6.00   -1.375073110   -0.024276860    0.000000350
   2  O       8.00    1.306016360    0.120701280    0.000000300
   3  H       1.00   -2.077873950    1.909612920   -0.000079910
   4  H       1.00   -2.108987580   -0.979272690    1.681973890
   5  H       1.00   -2.108980550   -0.979403930   -1.681901730
   6  H       1.00    1.941174670   -1.577492840   -0.000001310

 Bond lengths in Bohr (Angstrom)

 1-2  2.685006407  1-3  2.057634250  1-4  2.068739344  1-5  2.068739340  2-6  1.813088345
     ( 1.420844197)     ( 1.088853150)     ( 1.094729712)     ( 1.094729710)     ( 0.959445030)

 Bond angles

  1-2-6  107.41157765   2-1-3  106.87658966   2-1-4  112.28244134   2-1-5  112.28244150

  3-1-4  108.22376478   3-1-5  108.22360553   4-1-5  108.78518358

 NUCLEAR CHARGE:                   18
 NUMBER OF PRIMITIVE AOS:          82
 NUMBER OF SYMMETRY AOS:           80
 NUMBER OF CONTRACTIONS:           48   (  48A   )
 NUMBER OF CORE ORBITALS:           2   (   2A   )
 NUMBER OF VALENCE ORBITALS:       12   (  12A   )


 NUCLEAR REPULSION ENERGY   40.30774767


 Eigenvalues of metric

         1 0.966E-02 0.176E-01 0.368E-01 0.374E-01 0.381E-01 0.474E-01 0.478E-01 0.517E-01


 Contracted 2-electron integrals neglected if value below      1.0D-16
 AO integral compression algorithm  1   Integral accuracy      1.0D-16

     6.291 MB (compressed) written to integral file ( 98.3%)

     Node minimum: 6.291 MB, node maximum: 6.291 MB


 NUMBER OF SORTED TWO-ELECTRON INTEGRALS:     692076.     BUFFER LENGTH:  32768
 NUMBER OF SEGMENTS:   1  SEGMENT LENGTH:     692076      RECORD LENGTH: 524288

 Memory used in sort:       1.25 MW

 SORT1 READ      832256. AND WROTE      682147. INTEGRALS IN      2 RECORDS. CPU TIME:     0.00 SEC, REAL TIME:     0.01 SEC
 SORT2 READ      682147. AND WROTE      692076. INTEGRALS IN     24 RECORDS. CPU TIME:     0.03 SEC, REAL TIME:     0.02 SEC

 FILE SIZES:   FILE 1:     8.0 MBYTE,  FILE 4:     8.4 MBYTE,   TOTAL:     16.4 MBYTE

 OPERATOR DM      FOR CENTER  0  COORDINATES:    0.000000    0.000000    0.000000


 **********************************************************************************************************************************
 DATASETS  * FILE   NREC   LENGTH (MB)   RECORD NAMES
              1      19        8.03       500      610      700      900      950      970     1000      129      960     1100   
                                          VAR    BASINP    GEOM    SYMINP    ZMAT    AOBASIS   BASIS     P2S    ABASIS      S 
                                         1400     1410     1200     1210     1080     1600     1650     1300     1700   
                                           T        V       H0       H01     AOSYM     SMH    MOLCAS    ERIS     OPER   

 PROGRAMS   *        TOTAL       INT
 CPU TIMES  *         0.33      0.28
 REAL TIME  *         0.52 SEC
 DISK USED  *        23.34 MB      
 GA USED    *         0.00 MB       (max)       0.00 MB       (current)
 **********************************************************************************************************************************

1PROGRAM * RHF-SCF (CLOSED SHELL)       Authors: W. Meyer, H.-J. Werner


 NUMBER OF ELECTRONS:       9+    9-    SPACE SYMMETRY=1    SPIN SYMMETRY: Singlet 
 CONVERGENCE THRESHOLDS:    1.00E-10 (Density)    1.00E-13 (Energy)
 MAX. NUMBER OF ITERATIONS:      200
 INTERPOLATION TYPE:            DIIS
 INTERPOLATION STEPS:              2 (START)      1 (STEP)
 LEVEL SHIFTS:                  0.00 (CLOSED)  0.00 (OPEN) 



 Orbital guess generated from atomic densities. Full valence occupancy:   14

 Molecular orbital dump at record        2100.2

 ITERATION    DDIFF          GRAD             ENERGY        2-EL.EN.            DIPOLE MOMENTS         DIIS
    1      0.000D+00      0.000D+00      -115.01423692    164.387954   -0.49498   -0.90068   -0.00000    0
    2      0.000D+00      0.110D-01      -115.04259453    162.169724   -0.31638   -0.53562   -0.00000    1
    3      0.205D-01      0.530D-02      -115.04862578    163.194289   -0.40009   -0.61078   -0.00000    2
    4      0.639D-02      0.112D-02      -115.04908933    163.038182   -0.38996   -0.59967   -0.00000    3
    5      0.204D-02      0.202D-03      -115.04911033    163.044594   -0.39279   -0.59538   -0.00000    4
    6      0.433D-03      0.354D-04      -115.04911112    163.044747   -0.39309   -0.59517   -0.00000    5
    7      0.930D-04      0.736D-05      -115.04911116    163.043558   -0.39323   -0.59501   -0.00000    6
    8      0.150D-04      0.237D-05      -115.04911116    163.043940   -0.39326   -0.59498   -0.00000    7
    9      0.504D-05      0.490D-06      -115.04911116    163.043899   -0.39328   -0.59498   -0.00000    6
   10      0.141D-05      0.871D-07      -115.04911116    163.043898   -0.39328   -0.59498   -0.00000    6
   11      0.234D-06      0.325D-07      -115.04911116    163.043904   -0.39328   -0.59498   -0.00000    6
   12      0.589D-07      0.135D-07      -115.04911116    163.043902   -0.39328   -0.59498   -0.00000    7
   13      0.252D-07      0.302D-08      -115.04911116    163.043902   -0.39328   -0.59498   -0.00000    7
   14      0.752D-08      0.646D-09      -115.04911116    163.043902   -0.39328   -0.59498   -0.00000    7
   15      0.165D-08      0.149D-09      -115.04911116    163.043902   -0.39328   -0.59498   -0.00000    7
   16      0.331D-09      0.446D-10      -115.04911116    163.043902   -0.39328   -0.59498   -0.00000    7
   17      0.862D-10      0.147D-10      -115.04911116    163.043902   -0.39328   -0.59498   -0.00000    0

 Final occupancy:   9

 !RHF STATE 1.1 Energy               -115.049111158487
 Nuclear energy                        40.30774767
 One-electron energy                 -236.87880975
 Two-electron energy                   81.52195092
 Virial quotient                       -1.00092557
 !RHF STATE 1.1 Dipole moment          -0.39327909    -0.59497997    -0.00000278
 Dipole moment /Debye                  -0.99955027    -1.51218919    -0.00000707

 Orbital energies:

         1.1          2.1          3.1          4.1          5.1          6.1          7.1          8.1          9.1         10.1
    -20.549943   -11.274705    -1.349889    -0.921304    -0.682804    -0.613705    -0.584895    -0.497098    -0.443111     0.184568

        11.1
      0.224404


 **********************************************************************************************************************************
 DATASETS  * FILE   NREC   LENGTH (MB)   RECORD NAMES
              1      19        8.03       500      610      700      900      950      970     1000      129      960     1100   
                                          VAR    BASINP    GEOM    SYMINP    ZMAT    AOBASIS   BASIS     P2S    ABASIS      S 
                                         1400     1410     1200     1210     1080     1600     1650     1300     1700   
                                           T        V       H0       H01     AOSYM     SMH    MOLCAS    ERIS     OPER   

              2       3        0.39       700     1000     2100   
                                         GEOM     BASIS     RHF  

 PROGRAMS   *        TOTAL       RHF       INT
 CPU TIMES  *         0.43      0.10      0.28
 REAL TIME  *         0.65 SEC
 DISK USED  *        23.34 MB      
 GA USED    *         0.00 MB       (max)       0.00 MB       (current)
 **********************************************************************************************************************************


1PROGRAM * CCSD (Closed-shell coupled cluster)     Authors: C. Hampel, H.-J. Werner, 1991, M. Deegan, P.J. Knowles, 1992


 Convergence thresholds:  THRVAR = 1.00D-08  THRDEN = 1.00D-12

 CCSD(T)     terms to be evaluated (factor= 1.000)


 Number of core orbitals:           2 (   2 )
 Number of closed-shell orbitals:   7 (   7 )
 Number of external orbitals:      39 (  39 )

 Molecular orbitals read from record     2100.2  Type=RHF/CANONICAL (state 1.1)

 Number of N-1 electron functions:               7
 Number of N-2 electron functions:              28
 Number of singly external CSFs:               273
 Number of doubly external CSFs:             37401
 Total number of CSFs:                       37675

 Length of J-op  integral file:               0.00 MB
 Length of K-op  integral file:               0.19 MB
 Length of 3-ext integral record:             0.00 MB

 Memory could be reduced to 0.96 Mwords without degradation in triples

 Integral transformation finished. Total CPU:   0.02 sec, npass=  1  Memory used:   0.66 MW

 Reference energy:                   -115.04911116

 MP2 singlet pair energy:              -0.21864879
 MP2 triplet pair energy:              -0.11983708
 MP2 correlation energy:               -0.33848587
 MP2 total energy:                   -115.38759703

 SCS-MP2 correlation energy:           -0.33694384   (PS=  1.200000  PT=  0.333333)
 SCS-MP2 total energy:               -115.38605500

 ITER.      SQ.NORM     CORR.ENERGY   TOTAL ENERGY   ENERGY CHANGE        DEN1      VAR(S)    VAR(P)  DIIS     TIME
   1      1.10733670    -0.36128519  -115.41039635    -0.02279932    -0.01411779  0.91D-03  0.17D-02  1  1     0.07
   2      1.11586419    -0.36323057  -115.41234173    -0.00194538    -0.00925134  0.20D-04  0.16D-03  2  2     0.12
   3      1.11774687    -0.36335799  -115.41246915    -0.00012742    -0.00120477  0.95D-05  0.86D-05  3  3     0.17
   4      1.11826248    -0.36335664  -115.41246780     0.00000135    -0.00025510  0.34D-06  0.68D-06  4  4     0.22
   5      1.11836078    -0.36335705  -115.41246821    -0.00000041    -0.00003610  0.10D-06  0.49D-07  5  5     0.27
   6      1.11837988    -0.36335569  -115.41246685     0.00000136    -0.00000437  0.16D-07  0.41D-08  6  6     0.31
   7      1.11838465    -0.36335527  -115.41246643     0.00000042    -0.00000035  0.20D-08  0.72D-09  6  1     0.37
   8      1.11838592    -0.36335537  -115.41246653    -0.00000010     0.00000075  0.26D-09  0.72D-10  6  3     0.41
   9      1.11838698    -0.36335525  -115.41246641     0.00000012    -0.00000038  0.13D-10  0.10D-10  6  2     0.46
  10      1.11838691    -0.36335525  -115.41246641    -0.00000000     0.00000007  0.11D-11  0.88D-12  6  5     0.51
  11      1.11838694    -0.36335525  -115.41246641     0.00000000    -0.00000000  0.19D-12  0.51D-13  6  4     0.56
  12      1.11838693    -0.36335525  -115.41246641    -0.00000000     0.00000001  0.19D-13  0.10D-13  6  1     0.61
  13      1.11838693    -0.36335525  -115.41246641    -0.00000000    -0.00000000  0.24D-14  0.94D-15  6  6     0.66
  14      1.11838693    -0.36335525  -115.41246641     0.00000000    -0.00000000  0.22D-15  0.12D-15  6  3     0.71
  15      1.11838693    -0.36335525  -115.41246641    -0.00000000    -0.00000000  0.25D-16  0.16D-16  6  2     0.76
  16      1.11838693    -0.36335525  -115.41246641    -0.00000000    -0.00000000  0.56D-17  0.16D-17  6  5     0.81
  17      1.11838693    -0.36335525  -115.41246641    -0.00000000    -0.00000000  0.53D-18  0.25D-18  6  4     0.86
  18      1.11838693    -0.36335525  -115.41246641     0.00000000    -0.00000000  0.82D-19  0.42D-19  6  1     0.91
  19      1.11838693    -0.36335525  -115.41246641    -0.00000000    -0.00000000  0.93D-20  0.43D-20  6  6     0.96
  20      1.11838693    -0.36335525  -115.41246641     0.00000000     0.00000000  0.13D-20  0.55D-21  6  3     1.00

 Norm of t1 vector:      0.04167085      S-energy:    -0.00000000      T1 diagnostic:  0.00787505
                                                                       D1 diagnostic:  0.01751988


 Total CPU time for triples:      0.29 sec


 RESULTS
 =======

  Reference energy                   -115.049111158487
  CCSD singlet pair energy             -0.254604449413
  CCSD triplet pair energy             -0.108750800219
  CCSD correlation energy              -0.363355249633

  Triples (T) contribution             -0.007738646067
  Total correlation energy             -0.371093895700

  CCSD total energy                  -115.412466408120
  CCSD[T] energy                     -115.420495136137
  CCSD-T energy                      -115.420055039693
 !CCSD(T) total energy               -115.420205054187

 Timing summary (sec):

 STEP                 CPU(USER)    SYS     CPU(TOT)    WALL
 Transformation          0.03      0.01      0.04      0.03
 CCSD iterations         0.97      0.05      1.02      1.07
 Triples                 0.29      0.01      0.30      0.28

 Program statistics:

 Available memory in ccsd:               999999704
 Min. memory needed in ccsd:                136801
 Max. memory used in ccsd:                  163198
 Max. memory used in cckext:                182024 (20 integral passes)



 **********************************************************************************************************************************
 DATASETS  * FILE   NREC   LENGTH (MB)   RECORD NAMES
              1      20       10.56       500      610      700      900      950      970     1000      129      960     1100   
                                          VAR    BASINP    GEOM    SYMINP    ZMAT    AOBASIS   BASIS     P2S    ABASIS      S 
                                         1400     1410     1200     1210     1080     1600     1650     1300     1700     1380   
                                           T        V       H0       H01     AOSYM     SMH    MOLCAS    ERIS     OPER     JKOP   

              2       3        0.39       700     1000     2100   
                                         GEOM     BASIS     RHF  

 PROGRAMS   *        TOTAL   CCSD(T)       RHF       INT
 CPU TIMES  *         1.73      1.30      0.10      0.28
 REAL TIME  *         2.07 SEC
 DISK USED  *        24.77 MB      
 GA USED    *         0.00 MB       (max)       0.00 MB       (current)
 **********************************************************************************************************************************

        CCSD(T)         RHF-SCF 
   -115.42020505   -115.04911116
 **********************************************************************************************************************************
 Variable memory released
