
 Primary working directories    : /tmp/795519.127.gen4.q
 Secondary working directories  : /tmp/795519.127.gen4.q
 Wavefunction directory         : /home/vulcan/mel64643/wfu/
 Main file repository           : /tmp/795519.127.gen4.q/

 ARCHNAME  : Linux/x86_64
 FC        : /opt/intel/compilers_and_libraries_2016.1.150/linux/bin/intel64/ifort
 FCVERSION : 16.0.1
 BLASLIB   : -mkl
 id        : ccgc

 Nodes     nprocs
 n062         1
 ga_uses_ma=false, calling ma_init with nominal heap.
 GA-space will be limited to   8.0 MW (determined by -G option)

 Using customized tuning parameters: mindgm=10; mindgv=16; mindgc=4; mindgr=1; noblas=0; mincuda=1000; minvec=7
 default implementation of scratch files=df  

 ***,Optimization of min3
 memory,1000,m
 gthresh,energy=1.0d-12,orbital=1.0d-10,oneint=1.0d-16,twoint=1.0d-16,optgrad=1.0d-6,compress=1.0d-13
 geomtyp=xyz
 
  bohr
  geometry = {
  6
  arbitrary comment
  C   -1.3785496281   -0.0244540538    0.0015512463
  O    1.3078948523    0.1179105904    0.0002175904
  H   -2.0777615500    1.9112720511    0.0043557605
  H   -2.1148908488   -0.9742988173    1.6790020124
  H   -2.1156050542   -0.9831424748   -1.6849347872
  H    1.9551880688   -1.5774194156   -0.0002002324
 }
 
 basis=cc-pvdz
 {rhf;maxit,200}
 {ccsd(t);maxit,200}

 Variables initialized (661), CPU time= 0.00 sec
 Commands  initialized (458), CPU time= 0.01 sec, 486 directives.
 Default parameters read. Elapsed time= 0.05 sec

 Checking input...
 Passed
1


                                         ***  PROGRAM SYSTEM MOLPRO  ***
                         Copyright, University College Cardiff Consultants Limited, 2008

                                    Version 2010.1 linked May 16 2016 07:17:05


 **********************************************************************************************************************************
 LABEL *   Optimization of min3                                                          
 Linux-4.4.3/n062(x86_64) 64 bit mpp version                                             DATE: 24-Oct-22          TIME: 15:43:36  
 **********************************************************************************************************************************

 SHA1:             9e8077add272b0f3cad6f7df79ec5211205f459d
 **********************************************************************************************************************************

 THRESHOLDS:

 ZERO    =  1.00D-12  ONEINT  =  1.00D-16  TWOINT  =  1.00D-16  PREFAC  =  1.00D-14  LOCALI  =  1.00D-09  EORDER  =  1.00D-04
 ENERGY  =  1.00D-12  ETEST   =  0.00D+00  EDENS   =  0.00D+00  THRDEDEF=  1.00D-06  GRADIENT=  1.00D-02  STEP    =  1.00D-03
 ORBITAL =  1.00D-10  CIVEC   =  1.00D-05  COEFF   =  1.00D-04  PRINTCI =  5.00D-02  PUNCHCI =  9.90D+01  OPTGRAD =  1.00D-06
 OPTENERG=  1.00D-06  OPTSTEP =  3.00D-04  THRGRAD =  1.00D-10  COMPRESS=  1.00D-13  VARMIN  =  1.00D-07  VARMAX  =  1.00D-03
 THRDOUB =  0.00D+00  THRDIV  =  1.00D-05  THRRED  =  1.00D-07  THRPSP  =  1.00D+00  THRDC   =  1.00D-10  THRCS   =  1.00D-10
 THRNRM  =  1.00D-08  THREQ   =  0.00D+00  THRDE   =  1.00D+00  THRREF  =  1.00D-05  SPARFAC =  1.00D+00  THRDLP  =  1.00D-07
 THRDIA  =  1.00D-10  THRDLS  =  1.00D-07  THRGPS  =  0.00D+00  THRKEX  =  0.00D+00  THRDIS  =  2.00D-01  THRVAR  =  1.00D-10
 THRLOC  =  1.00D-06  THRGAP  =  1.00D-06  THRLOCT = -1.00D+00  THRGAPT = -1.00D+00  THRORB  =  1.00D-06  THRMLTP =  0.00D+00
 THRCPQCI=  1.00D-10  KEXTA   =  0.00D+00  THRCOARS=  0.00D+00  SYMTOL  =  1.00D-06  GRADTOL =  1.00D-06  THROVL  =  1.00D-08
 THRORTH =  1.00D-08  GRID    =  1.00D-06  GRIDMAX =  1.00D-03  DTMAX   =  0.00D+00

 SETTING GEOMTYP        =    XYZ
 ZUNIT=BOHR
 

 Variable memory set to 1000000000 words,  buffer space   230000 words

 SETTING BASIS          =    CC-PVDZ


 Recomputing integrals since basis changed


 Using spherical harmonics

 Library entry C      S cc-pVDZ              selected for orbital group  1
 Library entry C      P cc-pVDZ              selected for orbital group  1
 Library entry C      D cc-pVDZ              selected for orbital group  1
 Library entry O      S cc-pVDZ              selected for orbital group  2
 Library entry O      P cc-pVDZ              selected for orbital group  2
 Library entry O      D cc-pVDZ              selected for orbital group  2
 Library entry H      S cc-pVDZ              selected for orbital group  3
 Library entry H      P cc-pVDZ              selected for orbital group  3

1PROGRAM * SEWARD (Integral evaluation for generally contracted gaussian basis sets)     Author: Roland Lindh, 1990

 Geometry written to block  1 of record 700


 Point group  C1  



 ATOMIC COORDINATES

 NR  ATOM    CHARGE       X              Y              Z

   1  C       6.00   -1.378549628   -0.024454054    0.001551246
   2  O       8.00    1.307894852    0.117910590    0.000217590
   3  H       1.00   -2.077761550    1.911272051    0.004355760
   4  H       1.00   -2.114890849   -0.974298817    1.679002012
   5  H       1.00   -2.115605054   -0.983142475   -1.684934787
   6  H       1.00    1.955188069   -1.577419416   -0.000200232

 Bond lengths in Bohr (Angstrom)

 1-2  2.690214381  1-3  2.058140114  1-4  2.063551439  1-5  2.075227537  2-6  1.814699014
     ( 1.423600138)     ( 1.089120841)     ( 1.091984391)     ( 1.098163116)     ( 0.960297359)

 Bond angles

  1-2-6  107.86386081   2-1-3  106.82698789   2-1-4  112.40143774   2-1-5  112.25410822

  3-1-4  108.09445464   3-1-5  108.35700731   4-1-5  108.73806300

 NUCLEAR CHARGE:                   18
 NUMBER OF PRIMITIVE AOS:          82
 NUMBER OF SYMMETRY AOS:           80
 NUMBER OF CONTRACTIONS:           48   (  48A   )
 NUMBER OF CORE ORBITALS:           2   (   2A   )
 NUMBER OF VALENCE ORBITALS:       12   (  12A   )


 NUCLEAR REPULSION ENERGY   40.24905083


 Eigenvalues of metric

         1 0.968E-02 0.177E-01 0.368E-01 0.375E-01 0.382E-01 0.473E-01 0.480E-01 0.519E-01


 Contracted 2-electron integrals neglected if value below      1.0D-16
 AO integral compression algorithm  1   Integral accuracy      1.0D-16

     6.816 MB (compressed) written to integral file (100.0%)

     Node minimum: 6.816 MB, node maximum: 6.816 MB


 NUMBER OF SORTED TWO-ELECTRON INTEGRALS:     692076.     BUFFER LENGTH:  32768
 NUMBER OF SEGMENTS:   1  SEGMENT LENGTH:     692076      RECORD LENGTH: 524288

 Memory used in sort:       1.25 MW

 SORT1 READ      832256. AND WROTE      682150. INTEGRALS IN      2 RECORDS. CPU TIME:     0.01 SEC, REAL TIME:     0.01 SEC
 SORT2 READ      682150. AND WROTE      692076. INTEGRALS IN     26 RECORDS. CPU TIME:     0.01 SEC, REAL TIME:     0.02 SEC

 FILE SIZES:   FILE 1:     8.4 MBYTE,  FILE 4:     8.4 MBYTE,   TOTAL:     16.8 MBYTE

 OPERATOR DM      FOR CENTER  0  COORDINATES:    0.000000    0.000000    0.000000


 **********************************************************************************************************************************
 DATASETS  * FILE   NREC   LENGTH (MB)   RECORD NAMES
              1      19        8.40       500      610      700      900      950      970     1000      129      960     1100   
                                          VAR    BASINP    GEOM    SYMINP    ZMAT    AOBASIS   BASIS     P2S    ABASIS      S 
                                         1400     1410     1200     1210     1080     1600     1650     1300     1700   
                                           T        V       H0       H01     AOSYM     SMH    MOLCAS    ERIS     OPER   

 PROGRAMS   *        TOTAL       INT
 CPU TIMES  *         0.21      0.17
 REAL TIME  *         0.41 SEC
 DISK USED  *        24.24 MB      
 GA USED    *         0.00 MB       (max)       0.00 MB       (current)
 **********************************************************************************************************************************

1PROGRAM * RHF-SCF (CLOSED SHELL)       Authors: W. Meyer, H.-J. Werner


 NUMBER OF ELECTRONS:       9+    9-    SPACE SYMMETRY=1    SPIN SYMMETRY: Singlet 
 CONVERGENCE THRESHOLDS:    1.00E-10 (Density)    1.00E-13 (Energy)
 MAX. NUMBER OF ITERATIONS:      200
 INTERPOLATION TYPE:            DIIS
 INTERPOLATION STEPS:              2 (START)      1 (STEP)
 LEVEL SHIFTS:                  0.00 (CLOSED)  0.00 (OPEN) 



 Orbital guess generated from atomic densities. Full valence occupancy:   14

 Molecular orbital dump at record        2100.2

 ITERATION    DDIFF          GRAD             ENERGY        2-EL.EN.            DIPOLE MOMENTS         DIIS
    1      0.000D+00      0.000D+00      -115.01414932    164.283133   -0.49485   -0.89971   -0.00004    0
    2      0.000D+00      0.110D-01      -115.04246824    162.064065   -0.31661   -0.53555    0.00187    1
    3      0.205D-01      0.531D-02      -115.04851905    163.090038   -0.40048   -0.61033    0.00221    2
    4      0.640D-02      0.112D-02      -115.04898275    162.934041   -0.39038   -0.59922    0.00251    3
    5      0.204D-02      0.202D-03      -115.04900372    162.940367   -0.39319   -0.59492    0.00263    4
    6      0.433D-03      0.354D-04      -115.04900451    162.940536   -0.39349   -0.59471    0.00265    5
    7      0.929D-04      0.735D-05      -115.04900454    162.939342   -0.39362   -0.59454    0.00266    6
    8      0.150D-04      0.237D-05      -115.04900455    162.939723   -0.39365   -0.59451    0.00266    7
    9      0.506D-05      0.488D-06      -115.04900455    162.939682   -0.39367   -0.59451    0.00266    6
   10      0.141D-05      0.867D-07      -115.04900455    162.939681   -0.39367   -0.59451    0.00266    6
   11      0.234D-06      0.325D-07      -115.04900455    162.939687   -0.39367   -0.59451    0.00266    6
   12      0.593D-07      0.135D-07      -115.04900455    162.939685   -0.39367   -0.59451    0.00266    7
   13      0.250D-07      0.306D-08      -115.04900455    162.939685   -0.39367   -0.59451    0.00266    7
   14      0.759D-08      0.650D-09      -115.04900455    162.939685   -0.39367   -0.59451    0.00266    7
   15      0.165D-08      0.152D-09      -115.04900455    162.939685   -0.39367   -0.59451    0.00266    7
   16      0.339D-09      0.461D-10      -115.04900455    162.939685   -0.39367   -0.59451    0.00266    7
   17      0.885D-10      0.169D-10      -115.04900455    162.939685   -0.39367   -0.59451    0.00266    7
   18      0.431D-10      0.303D-11      -115.04900455    162.939685   -0.39367   -0.59451    0.00266    0

 Final occupancy:   9

 !RHF STATE 1.1 Energy               -115.049004547685
 Nuclear energy                        40.24905083
 One-electron energy                 -236.76789794
 Two-electron energy                   81.46984256
 Virial quotient                       -1.00101281
 !RHF STATE 1.1 Dipole moment          -0.39366830    -0.59450989     0.00265951
 Dipole moment /Debye                  -1.00053948    -1.51099444     0.00675935

 Orbital energies:

         1.1          2.1          3.1          4.1          5.1          6.1          7.1          8.1          9.1         10.1
    -20.549848   -11.275106    -1.348357    -0.921435    -0.681986    -0.612983    -0.584371    -0.496816    -0.443205     0.184665

        11.1
      0.223990


 **********************************************************************************************************************************
 DATASETS  * FILE   NREC   LENGTH (MB)   RECORD NAMES
              1      19        8.40       500      610      700      900      950      970     1000      129      960     1100   
                                          VAR    BASINP    GEOM    SYMINP    ZMAT    AOBASIS   BASIS     P2S    ABASIS      S 
                                         1400     1410     1200     1210     1080     1600     1650     1300     1700   
                                           T        V       H0       H01     AOSYM     SMH    MOLCAS    ERIS     OPER   

              2       3        0.39       700     1000     2100   
                                         GEOM     BASIS     RHF  

 PROGRAMS   *        TOTAL       RHF       INT
 CPU TIMES  *         0.30      0.09      0.17
 REAL TIME  *         0.53 SEC
 DISK USED  *        24.24 MB      
 GA USED    *         0.00 MB       (max)       0.00 MB       (current)
 **********************************************************************************************************************************


1PROGRAM * CCSD (Closed-shell coupled cluster)     Authors: C. Hampel, H.-J. Werner, 1991, M. Deegan, P.J. Knowles, 1992


 Convergence thresholds:  THRVAR = 1.00D-08  THRDEN = 1.00D-12

 CCSD(T)     terms to be evaluated (factor= 1.000)


 Number of core orbitals:           2 (   2 )
 Number of closed-shell orbitals:   7 (   7 )
 Number of external orbitals:      39 (  39 )

 Molecular orbitals read from record     2100.2  Type=RHF/CANONICAL (state 1.1)

 Number of N-1 electron functions:               7
 Number of N-2 electron functions:              28
 Number of singly external CSFs:               273
 Number of doubly external CSFs:             37401
 Total number of CSFs:                       37675

 Length of J-op  integral file:               0.00 MB
 Length of K-op  integral file:               0.19 MB
 Length of 3-ext integral record:             0.00 MB

 Memory could be reduced to 0.96 Mwords without degradation in triples

 Integral transformation finished. Total CPU:   0.02 sec, npass=  1  Memory used:   0.66 MW

 Reference energy:                   -115.04900455

 MP2 singlet pair energy:              -0.21872247
 MP2 triplet pair energy:              -0.11983196
 MP2 correlation energy:               -0.33855444
 MP2 total energy:                   -115.38755898

 SCS-MP2 correlation energy:           -0.33702908   (PS=  1.200000  PT=  0.333333)
 SCS-MP2 total energy:               -115.38603363

 ITER.      SQ.NORM     CORR.ENERGY   TOTAL ENERGY   ENERGY CHANGE        DEN1      VAR(S)    VAR(P)  DIIS     TIME
   1      1.10744304    -0.36135808  -115.41036263    -0.02280364    -0.01410597  0.92D-03  0.17D-02  1  1     0.06
   2      1.11599479    -0.36330878  -115.41231333    -0.00195070    -0.00926582  0.20D-04  0.16D-03  2  2     0.09
   3      1.11788966    -0.36343723  -115.41244177    -0.00012845    -0.00121082  0.96D-05  0.87D-05  3  3     0.13
   4      1.11840950    -0.36343591  -115.41244046     0.00000132    -0.00025659  0.35D-06  0.68D-06  4  4     0.17
   5      1.11850920    -0.36343630  -115.41244085    -0.00000040    -0.00003648  0.10D-06  0.50D-07  5  5     0.21
   6      1.11852876    -0.36343492  -115.41243947     0.00000138    -0.00000444  0.16D-07  0.42D-08  6  6     0.25
   7      1.11853366    -0.36343449  -115.41243904     0.00000043    -0.00000036  0.21D-08  0.74D-09  6  1     0.29
   8      1.11853496    -0.36343460  -115.41243914    -0.00000010     0.00000076  0.26D-09  0.75D-10  6  3     0.32
   9      1.11853605    -0.36343447  -115.41243902     0.00000013    -0.00000039  0.13D-10  0.11D-10  6  2     0.36
  10      1.11853597    -0.36343447  -115.41243902    -0.00000000     0.00000007  0.11D-11  0.91D-12  6  5     0.40
  11      1.11853600    -0.36343447  -115.41243902     0.00000000    -0.00000000  0.20D-12  0.53D-13  6  4     0.44
  12      1.11853599    -0.36343447  -115.41243902    -0.00000000     0.00000001  0.20D-13  0.11D-13  6  1     0.48
  13      1.11853599    -0.36343447  -115.41243902    -0.00000000    -0.00000000  0.25D-14  0.10D-14  6  6     0.52
  14      1.11853599    -0.36343447  -115.41243902     0.00000000    -0.00000000  0.25D-15  0.13D-15  6  3     0.56
  15      1.11853599    -0.36343447  -115.41243902    -0.00000000    -0.00000000  0.33D-16  0.18D-16  6  2     0.60
  16      1.11853599    -0.36343447  -115.41243902    -0.00000000    -0.00000000  0.77D-17  0.19D-17  6  5     0.63
  17      1.11853599    -0.36343447  -115.41243902    -0.00000000    -0.00000000  0.10D-17  0.32D-18  6  4     0.67
  18      1.11853599    -0.36343447  -115.41243902     0.00000000    -0.00000000  0.18D-18  0.64D-19  6  1     0.71
  19      1.11853599    -0.36343447  -115.41243902    -0.00000000    -0.00000000  0.31D-19  0.73D-20  6  6     0.75
  20      1.11853599    -0.36343447  -115.41243902     0.00000000     0.00000000  0.56D-20  0.14D-20  6  3     0.79

 Norm of t1 vector:      0.04180038      S-energy:    -0.00000000      T1 diagnostic:  0.00789953
                                                                       D1 diagnostic:  0.01766302


 Total CPU time for triples:      0.20 sec


 RESULTS
 =======

  Reference energy                   -115.049004547685
  CCSD singlet pair energy             -0.254715649760
  CCSD triplet pair energy             -0.108718822720
  CCSD correlation energy              -0.363434472480

  Triples (T) contribution             -0.007749233062
  Total correlation energy             -0.371183705542

  CCSD total energy                  -115.412439020166
  CCSD[T] energy                     -115.420479634468
  CCSD-T energy                      -115.420037586035
 !CCSD(T) total energy               -115.420188253227

 Timing summary (sec):

 STEP                 CPU(USER)    SYS     CPU(TOT)    WALL
 Transformation          0.02      0.00      0.02      0.02
 CCSD iterations         0.77      0.05      0.82      0.85
 Triples                 0.20      0.00      0.20      0.21

 Program statistics:

 Available memory in ccsd:               999999704
 Min. memory needed in ccsd:                136801
 Max. memory used in ccsd:                  163198
 Max. memory used in cckext:                182024 (20 integral passes)



 **********************************************************************************************************************************
 DATASETS  * FILE   NREC   LENGTH (MB)   RECORD NAMES
              1      20       10.94       500      610      700      900      950      970     1000      129      960     1100   
                                          VAR    BASINP    GEOM    SYMINP    ZMAT    AOBASIS   BASIS     P2S    ABASIS      S 
                                         1400     1410     1200     1210     1080     1600     1650     1300     1700     1380   
                                           T        V       H0       H01     AOSYM     SMH    MOLCAS    ERIS     OPER     JKOP   

              2       3        0.39       700     1000     2100   
                                         GEOM     BASIS     RHF  

 PROGRAMS   *        TOTAL   CCSD(T)       RHF       INT
 CPU TIMES  *         1.30      1.00      0.09      0.17
 REAL TIME  *         1.65 SEC
 DISK USED  *        25.67 MB      
 GA USED    *         0.00 MB       (max)       0.00 MB       (current)
 **********************************************************************************************************************************

        CCSD(T)         RHF-SCF 
   -115.42018825   -115.04900455
 **********************************************************************************************************************************
 Variable memory released
