
    -----------------------------------------------------------------------
          Psi4: An Open-Source Ab Initio Electronic Structure Package
                               Psi4 1.4a2.dev629 

                         Git: Rev {master} 2938fc2 dirty


    D. G. A. Smith, L. A. Burns, A. C. Simmonett, R. M. Parrish,
    M. C. Schieber, R. Galvelis, P. Kraus, H. Kruse, R. Di Remigio,
    A. Alenaizan, A. M. James, S. Lehtola, J. P. Misiewicz, M. Scheurer,
    R. A. Shaw, J. B. Schriber, Y. Xie, Z. L. Glick, D. A. Sirianni,
    J. S. O'Brien, J. M. Waldrop, A. Kumar, E. G. Hohenstein,
    B. P. Pritchard, B. R. Brooks, H. F. Schaefer III, A. Yu. Sokolov,
    K. Patkowski, A. E. DePrince III, U. Bozkaya, R. A. King,
    F. A. Evangelista, J. M. Turney, T. D. Crawford, C. D. Sherrill,
    J. Chem. Phys. 152(18) 184108 (2020). https://doi.org/10.1063/5.0006002

                            Additional Code Authors
    E. T. Seidl, C. L. Janssen, E. F. Valeev, M. L. Leininger,
    J. F. Gonthier, R. M. Richard, H. R. McAlexander, M. Saitow, X. Wang,
    P. Verma, and M. H. Lechner

             Previous Authors, Complete List of Code Contributors,
                       and Citations for Specific Modules
    https://github.com/psi4/psi4/blob/master/codemeta.json
    https://github.com/psi4/psi4/graphs/contributors
    http://psicode.org/psi4manual/master/introduction.html#citing-psifour

    -----------------------------------------------------------------------


    Psi4 started on: Wednesday, 21 September 2022 04:28PM

    Process ID: 12256
    Host:       n054
    PSIDATADIR: /opt/psi/4/master/share/psi4
    Memory:     500.0 MiB
    Threads:    1
    
  ==> Input File <==

--------------------------------------------------------------------------
# o-Benzyne preliminary computations

memory 14 gb

molecule {
  0 1
  units bohr
 C   -1.3738799183   -0.0270579074    0.0000013028
 O    1.3069186403    0.1248622363    0.0000012754
 H   -2.0744363931    1.9075455138   -0.0000820917
 H   -2.1082844957   -0.9794373573    1.6832711361
 H   -2.1082791279   -0.9795661599   -1.6831983839
 H    1.9342371347   -1.5764784455   -0.0000016487
}

set {
  basis cc-pvtz
  reference rhf
  e_convergence 10 
  d_convergence 10
  r_convergence 8
  maxiter 300
  freeze_core True
}

e, wfn = energy('ccsd(t)', return_wfn = True)
psi4.print_out('Giraffe The Energy is %.12f \n'%(e))
--------------------------------------------------------------------------

  Memory set to  13.039 GiB by Python driver.

Scratch directory: /tmp/

*** tstart() called on n054
*** at Wed Sep 21 16:28:22 2022

   => Loading Basis Set <=

    Name: CC-PVTZ
    Role: ORBITAL
    Keyword: BASIS
    atoms 1   entry C          line   186 file /opt/psi/4/master/share/psi4/basis/cc-pvtz.gbs 
    atoms 2   entry O          line   262 file /opt/psi/4/master/share/psi4/basis/cc-pvtz.gbs 
    atoms 3-6 entry H          line    23 file /opt/psi/4/master/share/psi4/basis/cc-pvtz.gbs 


         ---------------------------------------------------------
                                   SCF
               by Justin Turney, Rob Parrish, Andy Simmonett
                          and Daniel G. A. Smith
                              RHF Reference
                        1 Threads,  13351 MiB Core
         ---------------------------------------------------------

  ==> Geometry <==

    Molecular point group: c1
    Full point group: C1

    Geometry (in Bohr), charge = 0, multiplicity = 1:

       Center              X                  Y                   Z               Mass       
    ------------   -----------------  -----------------  -----------------  -----------------
         C           -1.374711685493    -0.028050557209     0.000000523459    12.000000000000
         O            1.306086873107     0.123869586491     0.000000496059    15.994914619570
         H           -2.075268160293     1.906552863991    -0.000082871041     1.007825032230
         H           -2.109116262893    -0.980430007109     1.683270356759     1.007825032230
         H           -2.109110895093    -0.980558809709    -1.683199163241     1.007825032230
         H            1.933405367507    -1.577471095309    -0.000002428041     1.007825032230

  Running in c1 symmetry.

  Rotational constants: A =      4.27725  B =      0.82750  C =      0.79839 [cm^-1]
  Rotational constants: A = 128228.65875  B =  24807.94297  C =  23935.20359 [MHz]
  Nuclear repulsion =   40.312513533779679

  Charge       = 0
  Multiplicity = 1
  Electrons    = 18
  Nalpha       = 9
  Nbeta        = 9

  ==> Algorithm <==

  SCF Algorithm Type is PK.
  DIIS enabled.
  MOM disabled.
  Fractional occupation disabled.
  Guess Type is SAD.
  Energy threshold   = 1.00e-10
  Density threshold  = 1.00e-10
  Integral threshold = 0.00e+00

  ==> Primary Basis <==

  Basis Set: CC-PVTZ
    Blend: CC-PVTZ
    Number of shells: 44
    Number of basis function: 116
    Number of Cartesian functions: 130
    Spherical Harmonics?: true
    Max angular momentum: 3

  ==> Integral Setup <==

  Using in-core PK algorithm.
   Calculation information:
      Number of atoms:                   6
      Number of AO shells:              44
      Number of primitives:             84
      Number of atomic orbitals:       130
      Number of basis functions:       116

      Integral cutoff                 1.00e-12
      Number of threads:                 1

  Performing in-core PK
  Using 46056582 doubles for integral storage.
  We computed 490491 shell quartets total.
  Whereas there are 490545 unique shell quartets.

  ==> DiskJK: Disk-Based J/K Matrices <==

    J tasked:                  Yes
    K tasked:                  Yes
    wK tasked:                  No
    Memory [MiB]:            10013
    Schwarz Cutoff:          1E-12

    OpenMP threads:              1

  Minimum eigenvalue in the overlap matrix is 1.8497123389E-03.
  Reciprocal condition number of the overlap matrix is 2.7957987141E-04.
    Using symmetric orthogonalization.

  ==> Pre-Iterations <==

  SCF Guess: Superposition of Atomic Densities via on-the-fly atomic UHF (no occupation information).

   -------------------------
    Irrep   Nso     Nmo    
   -------------------------
     A        116     116 
   -------------------------
    Total     116     116
   -------------------------

  ==> Iterations <==

                        Total Energy        Delta E     RMS |[F,P]|

   @RHF iter SAD:  -114.41533594773101   -1.14415e+02   0.00000e+00 
   @RHF iter   1:  -115.01440180680972   -5.99066e-01   3.41195e-03 DIIS
   @RHF iter   2:  -115.07123503881846   -5.68332e-02   1.95517e-03 DIIS
   @RHF iter   3:  -115.08807500175692   -1.68400e-02   3.01216e-04 DIIS
   @RHF iter   4:  -115.08896035538251   -8.85354e-04   8.78980e-05 DIIS
   @RHF iter   5:  -115.08903417512205   -7.38197e-05   2.14799e-05 DIIS
   @RHF iter   6:  -115.08903905927846   -4.88416e-06   4.75428e-06 DIIS
   @RHF iter   7:  -115.08903942954069   -3.70262e-07   1.09891e-06 DIIS
   @RHF iter   8:  -115.08903945106105   -2.15204e-08   2.26280e-07 DIIS
   @RHF iter   9:  -115.08903945196067   -8.99618e-10   4.21404e-08 DIIS
   @RHF iter  10:  -115.08903945199071   -3.00417e-11   1.08649e-08 DIIS
   @RHF iter  11:  -115.08903945199289   -2.17426e-12   2.23626e-09 DIIS
   @RHF iter  12:  -115.08903945199305   -1.56319e-13   4.00744e-10 DIIS
   @RHF iter  13:  -115.08903945199300    4.26326e-14   7.35281e-11 DIIS
  Energy and wave function converged.


  ==> Post-Iterations <==

    Orbital Energies [Eh]
    ---------------------

    Doubly Occupied:                                                      

       1A    -20.552881     2A    -11.269709     3A     -1.354407  
       4A     -0.922924     5A     -0.687948     6A     -0.617896  
       7A     -0.589607     8A     -0.502403     9A     -0.449399  

    Virtual:                                                              

      10A      0.138355    11A      0.178759    12A      0.220070  
      13A      0.223608    14A      0.290576    15A      0.386445  
      16A      0.404827    17A      0.543719    18A      0.584338  
      19A      0.623052    20A      0.624694    21A      0.638050  
      22A      0.689567    23A      0.703257    24A      0.720305  
      25A      0.833730    26A      0.863478    27A      0.872879  
      28A      0.926769    29A      1.067685    30A      1.101043  
      31A      1.177590    32A      1.189319    33A      1.261458  
      34A      1.273353    35A      1.282052    36A      1.364186  
      37A      1.447092    38A      1.492124    39A      1.521526  
      40A      1.545348    41A      1.583911    42A      1.617452  
      43A      1.773135    44A      2.092787    45A      2.179742  
      46A      2.197671    47A      2.297434    48A      2.323205  
      49A      2.488588    50A      2.513255    51A      2.578810  
      52A      2.803897    53A      2.951309    54A      3.054730  
      55A      3.108354    56A      3.114598    57A      3.143391  
      58A      3.220955    59A      3.242470    60A      3.312757  
      61A      3.313243    62A      3.340430    63A      3.384329  
      64A      3.501318    65A      3.612366    66A      3.632881  
      67A      3.698141    68A      3.706621    69A      3.744510  
      70A      3.761298    71A      3.815258    72A      3.835644  
      73A      3.902461    74A      4.010605    75A      4.028789  
      76A      4.116790    77A      4.160255    78A      4.168992  
      79A      4.247043    80A      4.256883    81A      4.284245  
      82A      4.396898    83A      4.433702    84A      4.460661  
      85A      4.555900    86A      4.580256    87A      4.708817  
      88A      4.778340    89A      4.993569    90A      5.029986  
      91A      5.051290    92A      5.198045    93A      5.264965  
      94A      5.308930    95A      5.370797    96A      5.436030  
      97A      5.539786    98A      5.541099    99A      5.556758  
     100A      5.782708   101A      5.944604   102A      6.186783  
     103A      6.209246   104A      6.242607   105A      6.424046  
     106A      6.632345   107A      6.992813   108A      7.126270  
     109A      7.173386   110A      7.238296   111A      7.352241  
     112A      7.431670   113A      7.592541   114A      7.905918  
     115A     12.129170   116A     13.687211  

    Final Occupation by Irrep:
              A 
    DOCC [     9 ]

  @RHF Final Energy:  -115.08903945199300

   => Energetics <=

    Nuclear Repulsion Energy =             40.3125135337796792
    One-Electron Energy =                -236.9087630918715490
    Two-Electron Energy =                  81.5072101060988672
    Total Energy =                       -115.0890394519930027

Computation Completed


Properties will be evaluated at   0.000000,   0.000000,   0.000000 [a0]

Properties computed using the SCF density matrix

  Nuclear Dipole Moment: [e a0]
     X:    -2.1597      Y:    -0.8093      Z:    -0.0000

  Electronic Dipole Moment: [e a0]
     X:     1.7707      Y:     0.2196      Z:     0.0000

  Dipole Moment: [e a0]
     X:    -0.3890      Y:    -0.5897      Z:    -0.0000     Total:     0.7064

  Dipole Moment: [D]
     X:    -0.9887      Y:    -1.4988      Z:    -0.0000     Total:     1.7955


*** tstop() called on n054 at Wed Sep 21 16:28:25 2022
Module time:
	user time   =       3.28 seconds =       0.05 minutes
	system time =       0.02 seconds =       0.00 minutes
	total time  =          3 seconds =       0.05 minutes
Total time:
	user time   =       3.28 seconds =       0.05 minutes
	system time =       0.02 seconds =       0.00 minutes
	total time  =          3 seconds =       0.05 minutes
 MINTS: Wrapper to libmints.
   by Justin Turney

   Calculation information:
      Number of threads:                 1
      Number of atoms:                   6
      Number of AO shells:              44
      Number of SO shells:              44
      Number of primitives:             84
      Number of atomic orbitals:       130
      Number of basis functions:       116

      Number of irreps:                  1
      Integral cutoff                 0.00e+00
      Number of functions per irrep: [ 116 ]

 OEINTS: Overlap, kinetic, potential, dipole, and quadrupole integrals
         stored in file 35.

      Computing two-electron integrals...done
      Computed 22871671 non-zero two-electron integrals.
        Stored in file 33.


*** tstart() called on n054
*** at Wed Sep 21 16:28:27 2022


	Wfn Parameters:
	--------------------
	Wavefunction         = CCSD_T
	Number of irreps     = 1
	Number of MOs        = 116
	Number of active MOs = 114
	AO-Basis             = NONE
	Semicanonical        = false
	Reference            = RHF
	Print Level          = 1

	IRREP	# MOs	# FZDC	# DOCC	# SOCC	# VIRT	# FZVR
	-----	-----	------	------	------	------	------
	 A	   116	    2	    7	    0	    107	    0
	Transforming integrals...
	IWL integrals will be deleted.
	(OO|OO)...
	Presorting SO-basis two-electron integrals.
	Sorting File: SO Ints (nn|nn) nbuckets = 1
	Transforming the one-electron integrals and constructing Fock matrices
	Starting first half-transformation.
	Sorting half-transformed integrals.
	First half integral transformation complete.
	Starting second half-transformation.
	Two-electron integral transformation complete.
	(OO|OV)...
	Starting second half-transformation.
	Two-electron integral transformation complete.
	(OO|VV)...
	Starting second half-transformation.
	Two-electron integral transformation complete.
	(OV|OO)...
	Starting first half-transformation.
	Sorting half-transformed integrals.
	First half integral transformation complete.
	Starting second half-transformation.
	Two-electron integral transformation complete.
	(OV|OV)...
	Starting second half-transformation.
	Two-electron integral transformation complete.
	(OV|VV)...
	Starting second half-transformation.
	Two-electron integral transformation complete.
	(VV|OO)...
	Starting first half-transformation.
	Sorting half-transformed integrals.
	First half integral transformation complete.
	Starting second half-transformation.
	Two-electron integral transformation complete.
	(VV|OV)...
	Starting second half-transformation.
	Two-electron integral transformation complete.
	(VV|VV)...
	Starting second half-transformation.
	Two-electron integral transformation complete.
	Frozen core energy     =   -106.49097747083219

	Size of irrep 0 of <ab|cd> integrals:    131.080 (MW) /   1048.637 (MB)
	Total:                                   131.080 (MW) /   1048.637 (MB)

	Size of irrep 0 of <ia|bc> integrals:      8.575 (MW) /     68.602 (MB)
	Total:                                     8.575 (MW) /     68.602 (MB)

	Size of irrep 0 of tijab amplitudes:       0.561 (MW) /      4.488 (MB)
	Total:                                     0.561 (MW) /      4.488 (MB)

	Nuclear Rep. energy          =     40.31251353377968
	SCF energy                   =   -115.08903945199300
	One-electron energy          =    -87.57198759228494
	Two-electron energy          =     38.66141207734491
	Reference energy             =   -115.08903945199253

*** tstop() called on n054 at Wed Sep 21 16:28:37 2022
Module time:
	user time   =       7.55 seconds =       0.13 minutes
	system time =       2.63 seconds =       0.04 minutes
	total time  =         10 seconds =       0.17 minutes
Total time:
	user time   =      12.33 seconds =       0.21 minutes
	system time =       2.84 seconds =       0.05 minutes
	total time  =         15 seconds =       0.25 minutes
            **************************
            *                        *
            *        CCENERGY        *
            *                        *
            **************************

    Nuclear Rep. energy (wfn)     =   40.312513533779679
    SCF energy          (wfn)     = -115.089039451993003
    Reference energy    (file100) = -115.089039451992534

    Input parameters:
    -----------------
    Wave function   =     CCSD_T
    Reference wfn   =     RHF
    Brueckner       =     No
    Memory (Mbytes) =     14000.0
    Maxiter         =    300
    R_Convergence   =     1.0e-08
    E_Convergence   =     1.0e-10
    Restart         =     Yes
    DIIS            =     Yes
    AO Basis        =     NONE
    ABCD            =     NEW
    Cache Level     =     2
    Cache Type      =     LOW
    Print Level     =     1
    Num. of threads =     1
    # Amps to Print =     10
    Print MP2 Amps? =     No
    Analyze T2 Amps =     No
    Print Pair Ener =     No
    Local CC        =     No
    SCS-MP2         =     False
    SCSN-MP2        =     False
    SCS-CCSD        =     False

MP2 correlation energy -0.4284056851351553
                Solving CC Amplitude Equations
                ------------------------------
  Iter             Energy              RMS        T1Diag      D1Diag    New D1Diag    D2Diag
  ----     ---------------------    ---------   ----------  ----------  ----------   --------
     0        -0.428405685135155    0.000e+00    0.000000    0.000000    0.000000    0.128446
     1        -0.435671413257297    4.787e-02    0.007315    0.014811    0.014811    0.129784
     2        -0.445509836822527    1.577e-02    0.007429    0.014740    0.014740    0.135576
     3        -0.446984906268319    5.539e-03    0.008337    0.016911    0.016911    0.137034
     4        -0.446892796711232    1.221e-03    0.008397    0.017004    0.017004    0.137270
     5        -0.446935729248809    4.455e-04    0.008436    0.017149    0.017149    0.137371
     6        -0.446943253154720    1.276e-04    0.008447    0.017206    0.017206    0.137379
     7        -0.446940780918151    4.729e-05    0.008450    0.017223    0.017223    0.137377
     8        -0.446940810542416    1.740e-05    0.008451    0.017232    0.017232    0.137376
     9        -0.446940894064391    4.945e-06    0.008452    0.017234    0.017234    0.137376
    10        -0.446940644024719    1.571e-06    0.008452    0.017234    0.017234    0.137376
    11        -0.446940709240070    4.891e-07    0.008452    0.017234    0.017234    0.137376
    12        -0.446940694385025    1.202e-07    0.008452    0.017234    0.017234    0.137376
    13        -0.446940697863842    4.355e-08    0.008452    0.017234    0.017234    0.137376
    14        -0.446940699078900    1.234e-08    0.008452    0.017234    0.017234    0.137376
    15        -0.446940699118825    5.135e-09    0.008452    0.017234    0.017234    0.137376
    16        -0.446940699142034    1.579e-09    0.008452    0.017234    0.017234    0.137376

    Iterations converged.


    Largest TIA Amplitudes:
              3   6        -0.0081599323
              3  14         0.0075986202
              6  14        -0.0067585226
              3   9         0.0067201150
              4   7         0.0058992143
              4   3        -0.0057993810
              5   8         0.0057728724
              6   6         0.0055222024
              3   2         0.0054842194
              4   5        -0.0051417757

    Largest TIjAb Amplitudes:
      3   3   9   9        -0.0231347865
      4   4   7   7        -0.0217987166
      6   6  14  14        -0.0210170015
      5   5  12  12        -0.0203463469
      2   2   7   7        -0.0190487922
      4   4   8   8        -0.0160092831
      3   3  14  14        -0.0151905974
      3   3   2   9        -0.0151027642
      3   3   9   2        -0.0151027642
      3   6   9   9        -0.0149987366

    SCF energy       (wfn)                    = -115.089039451993003
    Reference energy (file100)                = -115.089039451992534

    Opposite-spin MP2 correlation energy      =   -0.330180478375844
    Same-spin MP2 correlation energy          =   -0.098225206759311
    Singles MP2 correlation energy            =   -0.000000000000000
    MP2 correlation energy                    =   -0.428405685135155
      * MP2 total energy                      = -115.517445137127694

    Opposite-spin CCSD correlation energy     =   -0.357763500006896
    Same-spin CCSD correlation energy         =   -0.089177199135138
    Singles CCSD correlation energy           =    0.000000000000000
    CCSD correlation energy                   =   -0.446940699142034
      * CCSD total energy                     = -115.535980151134567

            **************************
            *                        *
            *        CCTRIPLES       *
            *                        *
            **************************


    Wave function   =    CCSD_T
    Reference wfn   =      RHF

    Nuclear Rep. energy (wfn)                =   40.312513533779679
    SCF energy          (wfn)                = -115.089039451993003
    Reference energy    (file100)            = -115.089039451992534
    CCSD energy         (file100)            =   -0.446940699142034
    Total CCSD energy   (file100)            = -115.535980151134567

    Number of ijk index combinations:               84
    Memory available in words        :      1750000000
    ~Words needed per explicit thread:         4900172
    Number of threads for explicit ijk threading:    1

    MKL num_threads set to 1 for explicit threading.

    (T) energy                                =   -0.014798389586501
      * CCSD(T) total energy                  = -115.550778540721069

Giraffe The Energy is -115.550778540721 

    Psi4 stopped on: Wednesday, 21 September 2022 04:29PM
    Psi4 wall time for execution: 0:00:43.68

*** Psi4 exiting successfully. Buy a developer a beer!
