
 Primary working directories    : /tmp/795519.60.gen4.q
 Secondary working directories  : /tmp/795519.60.gen4.q
 Wavefunction directory         : /home/vulcan/mel64643/wfu/
 Main file repository           : /tmp/795519.60.gen4.q/

 ARCHNAME  : Linux/x86_64
 FC        : /opt/intel/compilers_and_libraries_2016.1.150/linux/bin/intel64/ifort
 FCVERSION : 16.0.1
 BLASLIB   : -mkl
 id        : ccgc

 Nodes     nprocs
 n022         1
 ga_uses_ma=false, calling ma_init with nominal heap.
 GA-space will be limited to   8.0 MW (determined by -G option)

 Using customized tuning parameters: mindgm=10; mindgv=16; mindgc=4; mindgr=1; noblas=0; mincuda=1000; minvec=7
 default implementation of scratch files=df  

 ***,Optimization of min3
 memory,1000,m
 gthresh,energy=1.0d-12,orbital=1.0d-10,oneint=1.0d-16,twoint=1.0d-16,optgrad=1.0d-6,compress=1.0d-13
 geomtyp=xyz
 
  bohr
  geometry = {
  6
  arbitrary comment
  C   -1.3741725952   -0.0242329798   -0.0027261813
  O    1.3074527754    0.1211887787    0.0009051813
  H   -2.0775890783    1.9144125701    0.0008518036
  H   -2.1097228507   -0.9818266941    1.6874463380
  H   -2.1099090791   -0.9826722590   -1.6862884167
  H    1.9402166679   -1.5770015359   -0.0001971349
 }
 
 basis=cc-pvdz
 {rhf;maxit,200}
 {ccsd(t);maxit,200}

 Variables initialized (661), CPU time= 0.00 sec
 Commands  initialized (458), CPU time= 0.00 sec, 486 directives.
 Default parameters read. Elapsed time= 0.05 sec

 Checking input...
 Passed
1


                                         ***  PROGRAM SYSTEM MOLPRO  ***
                         Copyright, University College Cardiff Consultants Limited, 2008

                                    Version 2010.1 linked May 16 2016 07:17:05


 **********************************************************************************************************************************
 LABEL *   Optimization of min3                                                          
 Linux-4.4.3/n022(x86_64) 64 bit mpp version                                             DATE: 24-Oct-22          TIME: 15:41:51  
 **********************************************************************************************************************************

 SHA1:             9e8077add272b0f3cad6f7df79ec5211205f459d
 **********************************************************************************************************************************

 THRESHOLDS:

 ZERO    =  1.00D-12  ONEINT  =  1.00D-16  TWOINT  =  1.00D-16  PREFAC  =  1.00D-14  LOCALI  =  1.00D-09  EORDER  =  1.00D-04
 ENERGY  =  1.00D-12  ETEST   =  0.00D+00  EDENS   =  0.00D+00  THRDEDEF=  1.00D-06  GRADIENT=  1.00D-02  STEP    =  1.00D-03
 ORBITAL =  1.00D-10  CIVEC   =  1.00D-05  COEFF   =  1.00D-04  PRINTCI =  5.00D-02  PUNCHCI =  9.90D+01  OPTGRAD =  1.00D-06
 OPTENERG=  1.00D-06  OPTSTEP =  3.00D-04  THRGRAD =  1.00D-10  COMPRESS=  1.00D-13  VARMIN  =  1.00D-07  VARMAX  =  1.00D-03
 THRDOUB =  0.00D+00  THRDIV  =  1.00D-05  THRRED  =  1.00D-07  THRPSP  =  1.00D+00  THRDC   =  1.00D-10  THRCS   =  1.00D-10
 THRNRM  =  1.00D-08  THREQ   =  0.00D+00  THRDE   =  1.00D+00  THRREF  =  1.00D-05  SPARFAC =  1.00D+00  THRDLP  =  1.00D-07
 THRDIA  =  1.00D-10  THRDLS  =  1.00D-07  THRGPS  =  0.00D+00  THRKEX  =  0.00D+00  THRDIS  =  2.00D-01  THRVAR  =  1.00D-10
 THRLOC  =  1.00D-06  THRGAP  =  1.00D-06  THRLOCT = -1.00D+00  THRGAPT = -1.00D+00  THRORB  =  1.00D-06  THRMLTP =  0.00D+00
 THRCPQCI=  1.00D-10  KEXTA   =  0.00D+00  THRCOARS=  0.00D+00  SYMTOL  =  1.00D-06  GRADTOL =  1.00D-06  THROVL  =  1.00D-08
 THRORTH =  1.00D-08  GRID    =  1.00D-06  GRIDMAX =  1.00D-03  DTMAX   =  0.00D+00

 SETTING GEOMTYP        =    XYZ
 ZUNIT=BOHR
 

 Variable memory set to 1000000000 words,  buffer space   230000 words

 SETTING BASIS          =    CC-PVDZ


 Recomputing integrals since basis changed


 Using spherical harmonics

 Library entry C      S cc-pVDZ              selected for orbital group  1
 Library entry C      P cc-pVDZ              selected for orbital group  1
 Library entry C      D cc-pVDZ              selected for orbital group  1
 Library entry O      S cc-pVDZ              selected for orbital group  2
 Library entry O      P cc-pVDZ              selected for orbital group  2
 Library entry O      D cc-pVDZ              selected for orbital group  2
 Library entry H      S cc-pVDZ              selected for orbital group  3
 Library entry H      P cc-pVDZ              selected for orbital group  3

1PROGRAM * SEWARD (Integral evaluation for generally contracted gaussian basis sets)     Author: Roland Lindh, 1990

 Geometry written to block  1 of record 700


 Point group  C1  



 ATOMIC COORDINATES

 NR  ATOM    CHARGE       X              Y              Z

   1  C       6.00   -1.374172595   -0.024232980   -0.002726181
   2  O       8.00    1.307452775    0.121188779    0.000905181
   3  H       1.00   -2.077589078    1.914412570    0.000851804
   4  H       1.00   -2.109722851   -0.981826694    1.687446338
   5  H       1.00   -2.109909079   -0.982672259   -1.686288417
   6  H       1.00    1.940216668   -1.577001536   -0.000197135

 Bond lengths in Bohr (Angstrom)

 1-2  2.685567967  1-3  2.062317657  1-4  2.077186329  1-5  2.072268280  2-6  1.812247694
     ( 1.421141361)     ( 1.091331502)     ( 1.099199664)     ( 1.096597145)     ( 0.959000177)

 Bond angles

  1-2-6  107.33181300   2-1-3  106.83852062   2-1-4  112.17594117   2-1-5  112.37463235

  3-1-4  108.12966345   3-1-5  108.36591134   4-1-5  108.79093704

 NUCLEAR CHARGE:                   18
 NUMBER OF PRIMITIVE AOS:          82
 NUMBER OF SYMMETRY AOS:           80
 NUMBER OF CONTRACTIONS:           48   (  48A   )
 NUMBER OF CORE ORBITALS:           2   (   2A   )
 NUMBER OF VALENCE ORBITALS:       12   (  12A   )


 NUCLEAR REPULSION ENERGY   40.27409972


 Eigenvalues of metric

         1 0.968E-02 0.177E-01 0.371E-01 0.378E-01 0.382E-01 0.477E-01 0.483E-01 0.519E-01


 Contracted 2-electron integrals neglected if value below      1.0D-16
 AO integral compression algorithm  1   Integral accuracy      1.0D-16

     6.816 MB (compressed) written to integral file (100.0%)

     Node minimum: 6.816 MB, node maximum: 6.816 MB


 NUMBER OF SORTED TWO-ELECTRON INTEGRALS:     692076.     BUFFER LENGTH:  32768
 NUMBER OF SEGMENTS:   1  SEGMENT LENGTH:     692076      RECORD LENGTH: 524288

 Memory used in sort:       1.25 MW

 SORT1 READ      832256. AND WROTE      682150. INTEGRALS IN      2 RECORDS. CPU TIME:     0.00 SEC, REAL TIME:     0.02 SEC
 SORT2 READ      682150. AND WROTE      692076. INTEGRALS IN     26 RECORDS. CPU TIME:     0.02 SEC, REAL TIME:     0.02 SEC

 FILE SIZES:   FILE 1:     8.4 MBYTE,  FILE 4:     8.4 MBYTE,   TOTAL:     16.8 MBYTE

 OPERATOR DM      FOR CENTER  0  COORDINATES:    0.000000    0.000000    0.000000


 **********************************************************************************************************************************
 DATASETS  * FILE   NREC   LENGTH (MB)   RECORD NAMES
              1      19        8.40       500      610      700      900      950      970     1000      129      960     1100   
                                          VAR    BASINP    GEOM    SYMINP    ZMAT    AOBASIS   BASIS     P2S    ABASIS      S 
                                         1400     1410     1200     1210     1080     1600     1650     1300     1700   
                                           T        V       H0       H01     AOSYM     SMH    MOLCAS    ERIS     OPER   

 PROGRAMS   *        TOTAL       INT
 CPU TIMES  *         0.34      0.28
 REAL TIME  *         0.51 SEC
 DISK USED  *        24.23 MB      
 GA USED    *         0.00 MB       (max)       0.00 MB       (current)
 **********************************************************************************************************************************

1PROGRAM * RHF-SCF (CLOSED SHELL)       Authors: W. Meyer, H.-J. Werner


 NUMBER OF ELECTRONS:       9+    9-    SPACE SYMMETRY=1    SPIN SYMMETRY: Singlet 
 CONVERGENCE THRESHOLDS:    1.00E-10 (Density)    1.00E-13 (Energy)
 MAX. NUMBER OF ITERATIONS:      200
 INTERPOLATION TYPE:            DIIS
 INTERPOLATION STEPS:              2 (START)      1 (STEP)
 LEVEL SHIFTS:                  0.00 (CLOSED)  0.00 (OPEN) 



 Orbital guess generated from atomic densities. Full valence occupancy:   14

 Molecular orbital dump at record        2100.2

 ITERATION    DDIFF          GRAD             ENERGY        2-EL.EN.            DIPOLE MOMENTS         DIIS
    1      0.000D+00      0.000D+00      -115.01417218    164.318294   -0.49652   -0.90065   -0.00091    0
    2      0.000D+00      0.110D-01      -115.04253799    162.106849   -0.31560   -0.53503   -0.00132    1
    3      0.205D-01      0.531D-02      -115.04859940    163.129288   -0.39963   -0.61031   -0.00174    2
    4      0.640D-02      0.112D-02      -115.04906264    162.973516   -0.38928   -0.59924   -0.00189    3
    5      0.204D-02      0.202D-03      -115.04908362    162.980140   -0.39202   -0.59495   -0.00196    4
    6      0.434D-03      0.353D-04      -115.04908442    162.980143   -0.39231   -0.59475   -0.00197    5
    7      0.926D-04      0.721D-05      -115.04908445    162.979010   -0.39243   -0.59458   -0.00197    6
    8      0.149D-04      0.231D-05      -115.04908445    162.979389   -0.39247   -0.59456   -0.00197    7
    9      0.487D-05      0.486D-06      -115.04908445    162.979346   -0.39248   -0.59456   -0.00197    6
   10      0.139D-05      0.849D-07      -115.04908445    162.979345   -0.39248   -0.59456   -0.00197    6
   11      0.229D-06      0.318D-07      -115.04908445    162.979350   -0.39248   -0.59456   -0.00197    6
   12      0.578D-07      0.130D-07      -115.04908445    162.979348   -0.39248   -0.59456   -0.00197    7
   13      0.242D-07      0.294D-08      -115.04908445    162.979349   -0.39248   -0.59456   -0.00197    7
   14      0.732D-08      0.642D-09      -115.04908445    162.979349   -0.39248   -0.59456   -0.00197    7
   15      0.164D-08      0.148D-09      -115.04908445    162.979349   -0.39248   -0.59456   -0.00197    7
   16      0.328D-09      0.440D-10      -115.04908445    162.979349   -0.39248   -0.59456   -0.00197    7
   17      0.858D-10      0.159D-10      -115.04908445    162.979349   -0.39248   -0.59456   -0.00197    7
   18      0.407D-10      0.302D-11      -115.04908445    162.979349   -0.39248   -0.59456   -0.00197    7
   19      0.703D-11      0.735D-12      -115.04908445    162.979349   -0.39248   -0.59456   -0.00197    7
   20      0.180D-11      0.296D-12      -115.04908445    162.979349   -0.39248   -0.59456   -0.00197    0

 Final occupancy:   9

 !RHF STATE 1.1 Energy               -115.049084449152
 Nuclear energy                        40.27409972
 One-electron energy                 -236.81285852
 Two-electron energy                   81.48967436
 Virial quotient                       -1.00103126
 !RHF STATE 1.1 Dipole moment          -0.39248077    -0.59455952    -0.00197445
 Dipole moment /Debye                  -0.99752128    -1.51112058    -0.00501821

 Orbital energies:

         1.1          2.1          3.1          4.1          5.1          6.1          7.1          8.1          9.1         10.1
    -20.550150   -11.275769    -1.350099    -0.920386    -0.682694    -0.613114    -0.584605    -0.496954    -0.442984     0.184387

        11.1
      0.224288


 **********************************************************************************************************************************
 DATASETS  * FILE   NREC   LENGTH (MB)   RECORD NAMES
              1      19        8.40       500      610      700      900      950      970     1000      129      960     1100   
                                          VAR    BASINP    GEOM    SYMINP    ZMAT    AOBASIS   BASIS     P2S    ABASIS      S 
                                         1400     1410     1200     1210     1080     1600     1650     1300     1700   
                                           T        V       H0       H01     AOSYM     SMH    MOLCAS    ERIS     OPER   

              2       3        0.39       700     1000     2100   
                                         GEOM     BASIS     RHF  

 PROGRAMS   *        TOTAL       RHF       INT
 CPU TIMES  *         0.45      0.11      0.28
 REAL TIME  *         0.66 SEC
 DISK USED  *        24.23 MB      
 GA USED    *         0.00 MB       (max)       0.00 MB       (current)
 **********************************************************************************************************************************


1PROGRAM * CCSD (Closed-shell coupled cluster)     Authors: C. Hampel, H.-J. Werner, 1991, M. Deegan, P.J. Knowles, 1992


 Convergence thresholds:  THRVAR = 1.00D-08  THRDEN = 1.00D-12

 CCSD(T)     terms to be evaluated (factor= 1.000)


 Number of core orbitals:           2 (   2 )
 Number of closed-shell orbitals:   7 (   7 )
 Number of external orbitals:      39 (  39 )

 Molecular orbitals read from record     2100.2  Type=RHF/CANONICAL (state 1.1)

 Number of N-1 electron functions:               7
 Number of N-2 electron functions:              28
 Number of singly external CSFs:               273
 Number of doubly external CSFs:             37401
 Total number of CSFs:                       37675

 Length of J-op  integral file:               0.00 MB
 Length of K-op  integral file:               0.19 MB
 Length of 3-ext integral record:             0.00 MB

 Memory could be reduced to 0.96 Mwords without degradation in triples

 Integral transformation finished. Total CPU:   0.02 sec, npass=  1  Memory used:   0.66 MW

 Reference energy:                   -115.04908445

 MP2 singlet pair energy:              -0.21876904
 MP2 triplet pair energy:              -0.11985476
 MP2 correlation energy:               -0.33862381
 MP2 total energy:                   -115.38770826

 SCS-MP2 correlation energy:           -0.33709915   (PS=  1.200000  PT=  0.333333)
 SCS-MP2 total energy:               -115.38618360

 ITER.      SQ.NORM     CORR.ENERGY   TOTAL ENERGY   ENERGY CHANGE        DEN1      VAR(S)    VAR(P)  DIIS     TIME
   1      1.10751457    -0.36144131  -115.41052576    -0.02281750    -0.01411529  0.92D-03  0.17D-02  1  1     0.07
   2      1.11607845    -0.36339348  -115.41247793    -0.00195218    -0.00927128  0.20D-04  0.16D-03  2  2     0.12
   3      1.11797560    -0.36352219  -115.41260664    -0.00012871    -0.00121157  0.96D-05  0.87D-05  3  3     0.17
   4      1.11849545    -0.36352087  -115.41260531     0.00000133    -0.00025684  0.34D-06  0.68D-06  4  4     0.22
   5      1.11859464    -0.36352129  -115.41260574    -0.00000043    -0.00003637  0.10D-06  0.50D-07  5  5     0.27
   6      1.11861393    -0.36351993  -115.41260438     0.00000136    -0.00000443  0.16D-07  0.42D-08  6  6     0.32
   7      1.11861870    -0.36351951  -115.41260396     0.00000042    -0.00000035  0.20D-08  0.72D-09  6  1     0.37
   8      1.11861997    -0.36351961  -115.41260406    -0.00000010     0.00000075  0.26D-09  0.72D-10  6  3     0.42
   9      1.11862104    -0.36351949  -115.41260393     0.00000012    -0.00000038  0.13D-10  0.11D-10  6  2     0.47
  10      1.11862097    -0.36351949  -115.41260394    -0.00000000     0.00000007  0.11D-11  0.89D-12  6  5     0.52
  11      1.11862100    -0.36351948  -115.41260393     0.00000000    -0.00000000  0.19D-12  0.51D-13  6  4     0.57
  12      1.11862098    -0.36351949  -115.41260394    -0.00000000     0.00000001  0.19D-13  0.10D-13  6  1     0.62
  13      1.11862098    -0.36351949  -115.41260394    -0.00000000    -0.00000000  0.24D-14  0.94D-15  6  6     0.67
  14      1.11862099    -0.36351949  -115.41260394     0.00000000    -0.00000000  0.23D-15  0.13D-15  6  3     0.72
  15      1.11862099    -0.36351949  -115.41260394    -0.00000000    -0.00000000  0.25D-16  0.17D-16  6  2     0.77
  16      1.11862099    -0.36351949  -115.41260394    -0.00000000    -0.00000000  0.57D-17  0.16D-17  6  5     0.82
  17      1.11862099    -0.36351949  -115.41260394    -0.00000000    -0.00000000  0.55D-18  0.26D-18  6  4     0.87
  18      1.11862099    -0.36351949  -115.41260394     0.00000000    -0.00000000  0.88D-19  0.44D-19  6  1     0.92
  19      1.11862099    -0.36351949  -115.41260394    -0.00000000    -0.00000000  0.10D-19  0.45D-20  6  6     0.97
  20      1.11862099    -0.36351949  -115.41260394     0.00000000     0.00000000  0.15D-20  0.60D-21  6  3     1.02

 Norm of t1 vector:      0.04174343      S-energy:    -0.00000000      T1 diagnostic:  0.00788877
                                                                       D1 diagnostic:  0.01750908


 Total CPU time for triples:      0.25 sec


 RESULTS
 =======

  Reference energy                   -115.049084449152
  CCSD singlet pair energy             -0.254779971212
  CCSD triplet pair energy             -0.108739515904
  CCSD correlation energy              -0.363519487116

  Triples (T) contribution             -0.007756125573
  Total correlation energy             -0.371275612689

  CCSD total energy                  -115.412603936268
  CCSD[T] energy                     -115.420651832442
  CCSD-T energy                      -115.420209160940
 !CCSD(T) total energy               -115.420360061841

 Timing summary (sec):

 STEP                 CPU(USER)    SYS     CPU(TOT)    WALL
 Transformation          0.02      0.01      0.03      0.04
 CCSD iterations         1.00      0.05      1.05      1.07
 Triples                 0.25      0.00      0.25      0.26

 Program statistics:

 Available memory in ccsd:               999999704
 Min. memory needed in ccsd:                136801
 Max. memory used in ccsd:                  163198
 Max. memory used in cckext:                182024 (20 integral passes)



 **********************************************************************************************************************************
 DATASETS  * FILE   NREC   LENGTH (MB)   RECORD NAMES
              1      20       10.93       500      610      700      900      950      970     1000      129      960     1100   
                                          VAR    BASINP    GEOM    SYMINP    ZMAT    AOBASIS   BASIS     P2S    ABASIS      S 
                                         1400     1410     1200     1210     1080     1600     1650     1300     1700     1380   
                                           T        V       H0       H01     AOSYM     SMH    MOLCAS    ERIS     OPER     JKOP   

              2       3        0.39       700     1000     2100   
                                         GEOM     BASIS     RHF  

 PROGRAMS   *        TOTAL   CCSD(T)       RHF       INT
 CPU TIMES  *         1.73      1.28      0.11      0.28
 REAL TIME  *         2.06 SEC
 DISK USED  *        25.66 MB      
 GA USED    *         0.00 MB       (max)       0.00 MB       (current)
 **********************************************************************************************************************************

        CCSD(T)         RHF-SCF 
   -115.42036006   -115.04908445
 **********************************************************************************************************************************
 Variable memory released
