
 Primary working directories    : /tmp/333988.57.gen4.q
 Secondary working directories  : /tmp/333988.57.gen4.q
 Wavefunction directory         : /home/vulcan/mel64643/wfu/
 Main file repository           : /tmp/333988.57.gen4.q/

 ARCHNAME  : Linux/x86_64
 FC        : /opt/intel/compilers_and_libraries_2016.1.150/linux/bin/intel64/ifort
 FCVERSION : 16.0.1
 BLASLIB   : -mkl
 id        : ccgc

 Nodes     nprocs
 n066         3
 Number of processes for MPI-2 version of Molpro:   nprocs(total)=    4   nprocs(compute)=    3   nprocs(helper)=    1
 ga_uses_ma=false, calling ma_init with nominal heap.
 GA-space will be limited to   8.0 MW (determined by -G option)

 Using customized tuning parameters: mindgm=10; mindgv=16; mindgc=4; mindgr=1; noblas=0; mincuda=1000; minvec=7
 default implementation of scratch files=sf  

 ***,Optimization of min3
 memory,1000,m
 gthresh,energy=1.0d-10,orbital=1.0d-10,oneint=1.0d-16,twoint=1.0d-16,optgrad=1.0d-6,compress=1.0d-13
 geomtyp=xyz
 
  bohr
  geometry = {
  12
  arbitrary comment
  C         -3.1005554836          1.5862276467          0.0227751644
  C         -0.8641409076         -0.0710240317         -0.6555935336
  C         -1.1174143597         -2.7795010285          0.2474275135
  O          1.3114846342          1.1049462934          0.5889813475
  O          3.4492775588          0.1200593345         -0.2518235950
  H         -4.8201560806          0.8405060480         -0.8843268717
  H         -2.8051415520          3.5297522594         -0.6203682034
  H         -3.3893858066          1.5971704989          2.0402691665
  H         -0.4587629559         -0.0041587408         -2.6830585494
  H         -2.7064538803         -3.6977289993         -0.7230159846
  H         -1.4697388015         -2.8234845253          2.2692906721
  H          0.6047103381         -3.8300121054         -0.1609455441
 }
 
 basis=cc-pvtz
 {rhf;maxit,200}
 {uccsd(t);maxit,200}

 Variables initialized (661), CPU time= 0.00 sec
 Commands  initialized (458), CPU time= 0.01 sec, 486 directives.
 Default parameters read. Elapsed time= 0.07 sec

 Checking input...
 Passed
1


                                         ***  PROGRAM SYSTEM MOLPRO  ***
                         Copyright, University College Cardiff Consultants Limited, 2008

                                    Version 2010.1 linked May 16 2016 07:17:05


 **********************************************************************************************************************************
 LABEL *   Optimization of min3                                                          
 Linux-4.4.3/n066(x86_64) 64 bit mpp version                                             DATE: 15-Jul-20          TIME: 21:39:08  
 **********************************************************************************************************************************

 SHA1:             9e8077add272b0f3cad6f7df79ec5211205f459d
 **********************************************************************************************************************************

 THRESHOLDS:

 ZERO    =  1.00D-12  ONEINT  =  1.00D-16  TWOINT  =  1.00D-16  PREFAC  =  1.00D-14  LOCALI  =  1.00D-09  EORDER  =  1.00D-04
 ENERGY  =  1.00D-10  ETEST   =  0.00D+00  EDENS   =  0.00D+00  THRDEDEF=  1.00D-06  GRADIENT=  1.00D-02  STEP    =  1.00D-03
 ORBITAL =  1.00D-10  CIVEC   =  1.00D-05  COEFF   =  1.00D-04  PRINTCI =  5.00D-02  PUNCHCI =  9.90D+01  OPTGRAD =  1.00D-06
 OPTENERG=  1.00D-06  OPTSTEP =  3.00D-04  THRGRAD =  1.00D-10  COMPRESS=  1.00D-13  VARMIN  =  1.00D-07  VARMAX  =  1.00D-03
 THRDOUB =  0.00D+00  THRDIV  =  1.00D-05  THRRED  =  1.00D-07  THRPSP  =  1.00D+00  THRDC   =  1.00D-10  THRCS   =  1.00D-10
 THRNRM  =  1.00D-08  THREQ   =  0.00D+00  THRDE   =  1.00D+00  THRREF  =  1.00D-05  SPARFAC =  1.00D+00  THRDLP  =  1.00D-07
 THRDIA  =  1.00D-10  THRDLS  =  1.00D-07  THRGPS  =  0.00D+00  THRKEX  =  0.00D+00  THRDIS  =  2.00D-01  THRVAR  =  1.00D-10
 THRLOC  =  1.00D-06  THRGAP  =  1.00D-06  THRLOCT = -1.00D+00  THRGAPT = -1.00D+00  THRORB  =  1.00D-06  THRMLTP =  0.00D+00
 THRCPQCI=  1.00D-10  KEXTA   =  0.00D+00  THRCOARS=  0.00D+00  SYMTOL  =  1.00D-06  GRADTOL =  1.00D-06  THROVL  =  1.00D-08
 THRORTH =  1.00D-08  GRID    =  1.00D-06  GRIDMAX =  1.00D-03  DTMAX   =  0.00D+00

 SETTING GEOMTYP        =    XYZ
 ZUNIT=BOHR
 

 Variable memory set to 1000000000 words,  buffer space   230000 words

 SETTING BASIS          =    CC-PVTZ


 Recomputing integrals since basis changed


 Using spherical harmonics

 Library entry C      S cc-pVTZ              selected for orbital group  1
 Library entry C      P cc-pVTZ              selected for orbital group  1
 Library entry C      D cc-pVTZ              selected for orbital group  1
 Library entry C      F cc-pVTZ              selected for orbital group  1
 Library entry O      S cc-pVTZ              selected for orbital group  2
 Library entry O      P cc-pVTZ              selected for orbital group  2
 Library entry O      D cc-pVTZ              selected for orbital group  2
 Library entry O      F cc-pVTZ              selected for orbital group  2
 Library entry H      S cc-pVTZ              selected for orbital group  3
 Library entry H      P cc-pVTZ              selected for orbital group  3
 Library entry H      D cc-pVTZ              selected for orbital group  3

1PROGRAM * SEWARD (Integral evaluation for generally contracted gaussian basis sets)     Author: Roland Lindh, 1990

 Geometry written to block  1 of record 700


 Point group  C1  



 ATOMIC COORDINATES

 NR  ATOM    CHARGE       X              Y              Z

   1  C       6.00   -3.100555484    1.586227647    0.022775164
   2  C       6.00   -0.864140908   -0.071024032   -0.655593534
   3  C       6.00   -1.117414360   -2.779501028    0.247427514
   4  O       8.00    1.311484634    1.104946293    0.588981347
   5  O       8.00    3.449277559    0.120059335   -0.251823595
   6  H       1.00   -4.820156081    0.840506048   -0.884326872
   7  H       1.00   -2.805141552    3.529752259   -0.620368203
   8  H       1.00   -3.389385807    1.597170499    2.040269166
   9  H       1.00   -0.458762956   -0.004158741   -2.683058549
  10  H       1.00   -2.706453880   -3.697728999   -0.723015985
  11  H       1.00   -1.469738801   -2.823484525    2.269290672
  12  H       1.00    0.604710338   -3.830012105   -0.160945544

 Bond lengths in Bohr (Angstrom)

 1-2  2.864998669  1-6  2.082297054  1-7  2.068378762  1-8  2.038093411  2-3  2.866259251
     ( 1.516091999)     ( 1.101904143)     ( 1.094538900)     ( 1.078512583)     ( 1.516759071)

  2- 4  2.768613252   2- 9  2.068675093   3-10  2.076041856   3-11  2.052802400   3-12  2.058168009
       ( 1.465087033)       ( 1.094695712)       ( 1.098594035)       ( 1.086296245)       ( 1.089135602)

 4-5  2.499422706
     ( 1.322637531)

 Bond angles

  1-2-3  113.76780404   1-2-4  105.14564570   1-2-9  111.48948221   2-1-6  109.53183323

  2- 1- 7  111.00310269   2- 1- 8  110.37199779   2- 3-10  109.77419975   2- 3-11  110.22552810

  2- 3-12  110.23466383   2- 4- 5  110.70328791   3- 2- 4  109.21909430   3- 2- 9  110.89369513

  4-2-9  105.83433757   6-1-7  108.60245000   6-1-8  108.42806682   7-1-8  108.84405200

 10- 3-11  108.63616983  10- 3-12  108.78047996  11- 3-12  109.15334157

 NUCLEAR CHARGE:                   41
 NUMBER OF PRIMITIVE AOS:         354
 NUMBER OF SYMMETRY AOS:          322
 NUMBER OF CONTRACTIONS:          248   ( 248A   )
 NUMBER OF CORE ORBITALS:           5   (   5A   )
 NUMBER OF VALENCE ORBITALS:       27   (  27A   )


 NUCLEAR REPULSION ENERGY  186.61231532


 Eigenvalues of metric

         1 0.807E-03 0.958E-03 0.111E-02 0.124E-02 0.137E-02 0.149E-02 0.161E-02 0.163E-02


 Contracted 2-electron integrals neglected if value below      1.0D-16
 AO integral compression algorithm  1   Integral accuracy      1.0D-16

     3371.696 MB (compressed) written to integral file ( 82.1%)

     Node minimum: 1112.539 MB, node maximum: 1140.589 MB


 NUMBER OF SORTED TWO-ELECTRON INTEGRALS:  158903334.     BUFFER LENGTH:  32768
 NUMBER OF SEGMENTS:  10  SEGMENT LENGTH:   15997437      RECORD LENGTH: 524288

 Memory used in sort:      16.55 MW

 SORT1 READ   513498767. AND WROTE   152605853. INTEGRALS IN    442 RECORDS. CPU TIME:    14.60 SEC, REAL TIME:    19.01 SEC
 SORT2 READ   459320183. AND WROTE   476679126. INTEGRALS IN  12732 RECORDS. CPU TIME:     2.15 SEC, REAL TIME:    13.03 SEC

 Node minimum:   158882750.  Node maximum:   158903334. integrals

 OPERATOR DM      FOR CENTER  0  COORDINATES:    0.000000    0.000000    0.000000


 **********************************************************************************************************************************
 DATASETS  * FILE   NREC   LENGTH (MB)   RECORD NAMES
              1      18        5.04       500      610      700      900      950      970     1000      129      960     1100   
                                          VAR    BASINP    GEOM    SYMINP    ZMAT    AOBASIS   BASIS     P2S    ABASIS      S 
                                         1400     1410     1200     1210     1080     1600     1650     1700   
                                           T        V       H0       H01     AOSYM     SMH    MOLCAS    OPER   

 PROGRAMS   *        TOTAL       INT
 CPU TIMES  *        23.53     23.45
 REAL TIME  *        40.22 SEC
 DISK USED  *         8.83 GB      
 GA USED    *         0.01 MB       (max)       0.00 MB       (current)
 **********************************************************************************************************************************

1PROGRAM * RHF-SCF (OPEN SHELL)       Authors: W. Meyer, H.-J. Werner


 NUMBER OF ELECTRONS:      21+   20-    SPACE SYMMETRY=1    SPIN SYMMETRY: Doublet 
 CONVERGENCE THRESHOLDS:    1.00E-10 (Density)    1.00E-11 (Energy)
 MAX. NUMBER OF ITERATIONS:      200
 INTERPOLATION TYPE:            DIIS
 INTERPOLATION STEPS:              2 (START)      1 (STEP)
 LEVEL SHIFTS:                 -0.30 (CLOSED)  0.00 (OPEN) 



 Orbital guess generated from atomic densities. Full valence occupancy:   32

 Molecular orbital dump at record        2100.2

 ITERATION    DDIFF          GRAD             ENERGY        2-EL.EN.            DIPOLE MOMENTS         DIIS
    1      0.000D+00      0.000D+00      -267.26064618    559.779455   -1.78170   -0.07029   -0.11014    0
    2      0.000D+00      0.326D-02      -267.33430544    562.618925   -1.01588   -0.43116   -0.35714    1
    3      0.471D-02      0.230D-02      -267.36083785    561.571281   -1.18817   -0.24257   -0.21296    2
    4      0.211D-02      0.547D-03      -267.36909182    561.758478   -0.97537   -0.31546   -0.29163    3
    5      0.927D-03      0.485D-03      -267.37332616    561.800031   -0.91895   -0.31747   -0.29423    4
    6      0.584D-03      0.272D-03      -267.37525329    561.766662   -0.87730   -0.31075   -0.29145    5
    7      0.486D-03      0.133D-03      -267.37558823    561.752454   -0.88724   -0.29917   -0.28316    6
    8      0.257D-03      0.357D-04      -267.37561020    561.749699   -0.88677   -0.29592   -0.28169    7
    9      0.849D-04      0.190D-04      -267.37562119    561.749913   -0.88931   -0.29644   -0.28173    8
   10      0.449D-04      0.822D-05      -267.37562301    561.749818   -0.89049   -0.29581   -0.28143    9
   11      0.199D-04      0.320D-05      -267.37562326    561.749770   -0.89112   -0.29565   -0.28127    9
   12      0.784D-05      0.148D-05      -267.37562332    561.749997   -0.89126   -0.29575   -0.28131    9
   13      0.370D-05      0.528D-06      -267.37562332    561.750049   -0.89127   -0.29581   -0.28134    9
   14      0.148D-05      0.300D-06      -267.37562333    561.750049   -0.89126   -0.29582   -0.28134    9
   15      0.806D-06      0.145D-06      -267.37562333    561.750056   -0.89125   -0.29583   -0.28134    9
   16      0.406D-06      0.700D-07      -267.37562333    561.750058   -0.89125   -0.29583   -0.28134    9
   17      0.162D-06      0.317D-07      -267.37562333    561.750053   -0.89125   -0.29583   -0.28134    9
   18      0.966D-07      0.167D-07      -267.37562333    561.750051   -0.89125   -0.29583   -0.28134    9
   19      0.485D-07      0.768D-08      -267.37562333    561.750052   -0.89125   -0.29583   -0.28134    9
   20      0.244D-07      0.374D-08      -267.37562333    561.750052   -0.89125   -0.29583   -0.28134    9
   21      0.156D-07      0.292D-08      -267.37562333    561.750052   -0.89125   -0.29583   -0.28134    9
   22      0.144D-07      0.251D-08      -267.37562333    561.750052   -0.89125   -0.29583   -0.28134    9
   23      0.171D-07      0.204D-08      -267.37562333    561.750052   -0.89125   -0.29583   -0.28134    9
   24      0.290D-07      0.147D-08      -267.37562333    561.750052   -0.89125   -0.29583   -0.28134    9
   25      0.292D-07      0.852D-09      -267.37562333    561.750052   -0.89125   -0.29583   -0.28134    9
   26      0.189D-07      0.362D-09      -267.37562333    561.750052   -0.89125   -0.29583   -0.28134    9
   27      0.447D-08      0.151D-09      -267.37562333    561.750052   -0.89125   -0.29583   -0.28134    9
   28      0.170D-08      0.713D-10      -267.37562333    561.750052   -0.89125   -0.29583   -0.28134    9
   29      0.356D-09      0.368D-10      -267.37562333    561.750052   -0.89125   -0.29583   -0.28134    9
   30      0.952D-10      0.218D-10      -267.37562333    561.750052   -0.89125   -0.29583   -0.28134    0

 Final alpha occupancy:  21
 Final beta  occupancy:  20

 !RHF STATE 1.1 Energy               -267.375623327911
 Nuclear energy                       186.61231532
 One-electron energy                 -734.86296481
 Two-electron energy                  280.87502617
 Virial quotient                       -1.00118863
 !RHF STATE 1.1 Dipole moment          -0.89124757    -0.29583001    -0.28134169
 Dipole moment /Debye                  -2.26517701    -0.75187563    -0.71505242

 Orbital energies:

         1.1          2.1          3.1          4.1          5.1          6.1          7.1          8.1          9.1         10.1
    -20.648801   -20.640502   -11.297833   -11.229296   -11.225571    -1.523680    -1.171011    -1.034405    -0.952780    -0.819266

        11.1         12.1         13.1         14.1         15.1         16.1         17.1         18.1         19.1         20.1
     -0.695120    -0.668004    -0.652290    -0.595595    -0.562578    -0.559040    -0.542628    -0.501453    -0.489883    -0.465199

        21.1         22.1         23.1
     -0.563040     0.137529     0.174830


 **********************************************************************************************************************************
 DATASETS  * FILE   NREC   LENGTH (MB)   RECORD NAMES
              1      18        5.04       500      610      700      900      950      970     1000      129      960     1100   
                                          VAR    BASINP    GEOM    SYMINP    ZMAT    AOBASIS   BASIS     P2S    ABASIS      S 
                                         1400     1410     1200     1210     1080     1600     1650     1700   
                                           T        V       H0       H01     AOSYM     SMH    MOLCAS    OPER   

              2       3        2.21       700     1000     2100   
                                         GEOM     BASIS     RHF  

 PROGRAMS   *        TOTAL       RHF       INT
 CPU TIMES  *        88.51     64.98     23.45
 REAL TIME  *       109.12 SEC
 DISK USED  *         8.87 GB      
 SF USED    *         0.25 MB      
 GA USED    *         0.01 MB       (max)       0.00 MB       (current)
 **********************************************************************************************************************************


1PROGRAM * CCSD (Unrestricted open-shell coupled cluster)     Authors: C. Hampel, H.-J. Werner, 1991, M. Deegan, P.J. Knowles, 1992


 Convergence thresholds:  THRVAR = 1.00D-08  THRDEN = 1.00D-10

 CCSD(T)     terms to be evaluated (factor= 1.000)


 Number of core orbitals:           5 (   5 )
 Number of closed-shell orbitals:  15 (  15 )
 Number of active  orbitals:        1 (   1 )
 Number of external orbitals:     227 ( 227 )

 Memory could be reduced to 332.02 Mwords without degradation in triples

 Number of N-1 electron functions:              31
 Number of N-2 electron functions:             465
 Number of singly external CSFs:              7068
 Number of doubly external CSFs:          18353430
 Total number of CSFs:                    18360498

 Molecular orbitals read from record     2100.2  Type=RHF/CANONICAL (state 1.1)

 Integral transformation finished. Total CPU:  38.03 sec, npass=  1  Memory used: 145.25 MW

 Starting RMP2 calculation

 ITER.      SQ.NORM     CORR.ENERGY   TOTAL ENERGY   ENERGY CHANGE        DEN1      VAR(S)    VAR(P)  DIIS     TIME
   1      1.26545630    -0.96764853  -268.34327186    -0.96764853    -0.00323826  0.26D-04  0.11D-02  1  1    43.64
   2      1.26824372    -0.97114017  -268.34676350    -0.00349164    -0.00000666  0.10D-05  0.23D-05  2  2    47.51
   3      1.26832372    -0.97119312  -268.34681645    -0.00005295    -0.00000008  0.54D-07  0.11D-07  3  3    51.77
   4      1.26832543    -0.97119293  -268.34681626     0.00000019    -0.00000000  0.16D-08  0.12D-09  4  4    56.91
   5      1.26832569    -0.97119301  -268.34681634    -0.00000009    -0.00000000  0.19D-10  0.46D-11  5  5    60.55
   6      1.26832574    -0.97119305  -268.34681638    -0.00000003    -0.00000000  0.50D-13  0.56D-13  6  6    64.42
   7      1.26832574    -0.97119305  -268.34681637     0.00000000    -0.00000000  0.15D-14  0.86D-15  6  1    67.98
   8      1.26832574    -0.97119305  -268.34681637     0.00000000    -0.00000000  0.16D-16  0.80D-17  6  2    71.76
   9      1.26832574    -0.97119305  -268.34681637    -0.00000000    -0.00000000  0.31D-18  0.10D-18  6  3    75.55

 Norm of t1 vector:      0.04588701      S-energy:    -0.00446698      T1 diagnostic:  0.00074399
 Norm of t2 vector:      0.51596524      P-energy:    -0.96672607
                                         Alpha-Beta:  -0.73712657
                                         Alpha-Alpha: -0.11899258
                                         Beta-Beta:   -0.11060692

 Spin contamination <S**2-Sz**2-Sz>     0.00145345
  Reference energy                   -267.375623327915
  RHF-RMP2 correlation energy          -0.971193046201
 !RHF-RMP2 energy                    -268.346816374116

 Starting UCCSD calculation

 ITER.      SQ.NORM     CORR.ENERGY   TOTAL ENERGY   ENERGY CHANGE        DEN1      VAR(S)    VAR(P)  DIIS     TIME
   1      1.27993602    -0.97929302  -268.35491635    -0.97929302    -0.02934730  0.65D-02  0.54D-02  1  1   159.13
   2      1.30636297    -1.00593141  -268.38155474    -0.02663838    -0.00363786  0.62D-03  0.97D-03  2  2   241.20
   3      1.32302790    -1.01276211  -268.38838544    -0.00683070    -0.00091238  0.75D-03  0.76D-04  3  3   323.30
   4      1.33426791    -1.01542228  -268.39104561    -0.00266017    -0.00038532  0.31D-03  0.33D-04  4  4   405.86
   5      1.34933764    -1.01741936  -268.39304269    -0.00199708    -0.00011813  0.10D-03  0.90D-05  5  5   488.22
   6      1.36087380    -1.01844255  -268.39406588    -0.00102319    -0.00001819  0.93D-05  0.32D-05  6  6   571.23
   7      1.36457758    -1.01868400  -268.39430732    -0.00024145    -0.00000317  0.16D-05  0.61D-06  6  1   654.53
   8      1.36518403    -1.01872628  -268.39434960    -0.00004228    -0.00000068  0.27D-06  0.15D-06  6  2   737.37
   9      1.36550607    -1.01874483  -268.39436815    -0.00001855    -0.00000015  0.66D-07  0.32D-07  6  4   819.62
  10      1.36549250    -1.01874356  -268.39436689     0.00000127    -0.00000002  0.11D-07  0.43D-08  6  3   902.46
  11      1.36555515    -1.01874866  -268.39437199    -0.00000510    -0.00000000  0.25D-08  0.95D-09  6  5   984.99
  12      1.36554767    -1.01874617  -268.39436949     0.00000249    -0.00000000  0.11D-08  0.22D-09  6  6  1067.90
  13      1.36554335    -1.01874501  -268.39436834     0.00000115    -0.00000000  0.68D-09  0.58D-10  6  1  1150.30
  14      1.36553048    -1.01874351  -268.39436684     0.00000150    -0.00000000  0.46D-09  0.24D-10  6  2  1232.89
  15      1.36552434    -1.01874278  -268.39436610     0.00000074    -0.00000000  0.38D-09  0.18D-10  6  3  1316.06
  16      1.36552123    -1.01874261  -268.39436594     0.00000017    -0.00000000  0.27D-09  0.15D-10  6  4  1398.88
  17      1.36552068    -1.01874263  -268.39436595    -0.00000002    -0.00000000  0.14D-09  0.15D-10  6  5  1482.01
  18      1.36552359    -1.01874281  -268.39436614    -0.00000019    -0.00000000  0.29D-10  0.58D-11  6  6  1564.83
  19      1.36552685    -1.01874314  -268.39436647    -0.00000033    -0.00000000  0.26D-11  0.17D-11  6  2  1647.78
  20      1.36552630    -1.01874301  -268.39436634     0.00000013    -0.00000000  0.63D-12  0.18D-12  6  1  1730.23
  21      1.36552660    -1.01874305  -268.39436638    -0.00000005    -0.00000000  0.22D-12  0.62D-13  6  4  1813.28
  22      1.36552654    -1.01874304  -268.39436637     0.00000001    -0.00000000  0.77D-13  0.19D-13  6  2  1896.00
  23      1.36552664    -1.01874306  -268.39436639    -0.00000001    -0.00000000  0.22D-13  0.40D-14  6  3  1978.97
  24      1.36552658    -1.01874305  -268.39436638     0.00000001    -0.00000000  0.24D-14  0.73D-15  6  5  2061.29
  25      1.36552657    -1.01874305  -268.39436637     0.00000000    -0.00000000  0.64D-15  0.21D-15  6  6  2143.94
  26      1.36552656    -1.01874305  -268.39436637     0.00000000    -0.00000000  0.28D-15  0.74D-16  6  1  2226.89
  27      1.36552656    -1.01874305  -268.39436637    -0.00000000    -0.00000000  0.16D-15  0.16D-16  6  4  2309.37
  28      1.36552656    -1.01874305  -268.39436637    -0.00000000    -0.00000000  0.12D-15  0.70D-17  6  2  2391.56
  29      1.36552656    -1.01874305  -268.39436637    -0.00000000    -0.00000000  0.89D-16  0.48D-17  6  3  2474.62
  30      1.36552656    -1.01874305  -268.39436637     0.00000000    -0.00000000  0.55D-16  0.41D-17  6  5  2557.21

 Norm of t1 vector:      0.23124434      S-energy:    -0.00501441      T1 diagnostic:  0.02849537
                                                                       D1 diagnostic:  0.14602655
 Norm of t2 vector:      0.55861670      P-energy:    -1.01372864
                                         Alpha-Beta:  -0.80143892
                                         Alpha-Alpha: -0.10867946
                                         Beta-Beta:   -0.10361026

 Singles amplitudes (print threshold =  0.500E-01):

         I         SYM. A    A   T(IA) [Beta-Beta]

         8         1         1     -0.09649695
         9         1         1      0.09973525
        12         1         1     -0.07243351
        14         1         1     -0.11262375

 Spin contamination <S**2-Sz**2-Sz>     0.00176106

 Memory could be reduced to 360.52 Mwords without degradation in triples
 

 RESULTS
 =======

  Reference energy                   -267.375623327915
  UCCSD singles energy                 -0.005014409461
  UCCSD pair energy                    -1.013728637153
  UCCSD correlation energy             -1.018743046614
  Triples (T) contribution             -0.040847872484
  Total correlation energy             -1.059590919098
 
  RHF-UCCSD energy                   -268.394366374529
  RHF-UCCSD[T] energy                -268.438537674802
  RHF-UCCSD-T energy                 -268.434716281287
 !RHF-UCCSD(T) energy                -268.435214247013

 Program statistics:

 Available memory in ccsd:               999997692
 Min. memory needed in ccsd:              51505734
 Max. memory used in ccsd:                74803578
 Max. memory used in cckext:              59475747 (30 integral passes)
 Max. memory used in cckint:             145249478 ( 1 integral passes)



 **********************************************************************************************************************************
 DATASETS  * FILE   NREC   LENGTH (MB)   RECORD NAMES
              1      18        5.04       500      610      700      900      950      970     1000      129      960     1100   
                                          VAR    BASINP    GEOM    SYMINP    ZMAT    AOBASIS   BASIS     P2S    ABASIS      S 
                                         1400     1410     1200     1210     1080     1600     1650     1700   
                                           T        V       H0       H01     AOSYM     SMH    MOLCAS    OPER   

              2       3        2.21       700     1000     2100   
                                         GEOM     BASIS     RHF  

 PROGRAMS   *        TOTAL  UCCSD(T)       RHF       INT
 CPU TIMES  *      4237.47   4148.95     64.98     23.45
 REAL TIME  *      4368.67 SEC
 DISK USED  *        15.84 GB      
 SF USED    *         6.57 GB      
 GA USED    *         0.01 MB       (max)       0.00 MB       (current)
 **********************************************************************************************************************************

        UCCSD(T)        RHF-SCF 
   -268.43521425   -267.37562333
 **********************************************************************************************************************************
 Variable memory released
