
 Primary working directories    : /tmp/333988.50.gen4.q
 Secondary working directories  : /tmp/333988.50.gen4.q
 Wavefunction directory         : /home/vulcan/mel64643/wfu/
 Main file repository           : /tmp/333988.50.gen4.q/

 ARCHNAME  : Linux/x86_64
 FC        : /opt/intel/compilers_and_libraries_2016.1.150/linux/bin/intel64/ifort
 FCVERSION : 16.0.1
 BLASLIB   : -mkl
 id        : ccgc

 Nodes     nprocs
 n067         3
 Number of processes for MPI-2 version of Molpro:   nprocs(total)=    4   nprocs(compute)=    3   nprocs(helper)=    1
 ga_uses_ma=false, calling ma_init with nominal heap.
 GA-space will be limited to   8.0 MW (determined by -G option)

 Using customized tuning parameters: mindgm=10; mindgv=16; mindgc=4; mindgr=1; noblas=0; mincuda=1000; minvec=7
 default implementation of scratch files=sf  

 ***,Optimization of min3
 memory,1000,m
 gthresh,energy=1.0d-10,orbital=1.0d-10,oneint=1.0d-16,twoint=1.0d-16,optgrad=1.0d-6,compress=1.0d-13
 geomtyp=xyz
 
  bohr
  geometry = {
  12
  arbitrary comment
  C         -3.1001433049          1.5853569555          0.0196263845
  C         -0.8640858498         -0.0709898437         -0.6562875442
  C         -1.1178415110         -2.7791448681          0.2458690915
  O          1.3114868969          1.1049456585          0.5889854019
  O          3.4492877305          0.1200587134         -0.2518191685
  H         -4.8200759477          0.8403702170         -0.8848945249
  H         -2.8035089975          3.5398169045         -0.6243907010
  H         -3.3954154316          1.5971734124          2.0826745427
  H         -0.4603025612         -0.0044390780         -2.6754749005
  H         -2.7049476977         -3.6967514801         -0.7223374493
  H         -1.4733746354         -2.8239112099          2.2894255723
  H          0.6120219039         -3.8344750387         -0.1629811410
 }
 
 basis=cc-pvtz
 {rhf;maxit,200}
 {uccsd(t);maxit,200}

 Variables initialized (661), CPU time= 0.00 sec
 Commands  initialized (458), CPU time= 0.00 sec, 486 directives.
 Default parameters read. Elapsed time= 0.05 sec

 Checking input...
 Passed
1


                                         ***  PROGRAM SYSTEM MOLPRO  ***
                         Copyright, University College Cardiff Consultants Limited, 2008

                                    Version 2010.1 linked May 16 2016 07:17:05


 **********************************************************************************************************************************
 LABEL *   Optimization of min3                                                          
 Linux-4.4.3/n067(x86_64) 64 bit mpp version                                             DATE: 15-Jul-20          TIME: 18:55:08  
 **********************************************************************************************************************************

 SHA1:             9e8077add272b0f3cad6f7df79ec5211205f459d
 **********************************************************************************************************************************

 THRESHOLDS:

 ZERO    =  1.00D-12  ONEINT  =  1.00D-16  TWOINT  =  1.00D-16  PREFAC  =  1.00D-14  LOCALI  =  1.00D-09  EORDER  =  1.00D-04
 ENERGY  =  1.00D-10  ETEST   =  0.00D+00  EDENS   =  0.00D+00  THRDEDEF=  1.00D-06  GRADIENT=  1.00D-02  STEP    =  1.00D-03
 ORBITAL =  1.00D-10  CIVEC   =  1.00D-05  COEFF   =  1.00D-04  PRINTCI =  5.00D-02  PUNCHCI =  9.90D+01  OPTGRAD =  1.00D-06
 OPTENERG=  1.00D-06  OPTSTEP =  3.00D-04  THRGRAD =  1.00D-10  COMPRESS=  1.00D-13  VARMIN  =  1.00D-07  VARMAX  =  1.00D-03
 THRDOUB =  0.00D+00  THRDIV  =  1.00D-05  THRRED  =  1.00D-07  THRPSP  =  1.00D+00  THRDC   =  1.00D-10  THRCS   =  1.00D-10
 THRNRM  =  1.00D-08  THREQ   =  0.00D+00  THRDE   =  1.00D+00  THRREF  =  1.00D-05  SPARFAC =  1.00D+00  THRDLP  =  1.00D-07
 THRDIA  =  1.00D-10  THRDLS  =  1.00D-07  THRGPS  =  0.00D+00  THRKEX  =  0.00D+00  THRDIS  =  2.00D-01  THRVAR  =  1.00D-10
 THRLOC  =  1.00D-06  THRGAP  =  1.00D-06  THRLOCT = -1.00D+00  THRGAPT = -1.00D+00  THRORB  =  1.00D-06  THRMLTP =  0.00D+00
 THRCPQCI=  1.00D-10  KEXTA   =  0.00D+00  THRCOARS=  0.00D+00  SYMTOL  =  1.00D-06  GRADTOL =  1.00D-06  THROVL  =  1.00D-08
 THRORTH =  1.00D-08  GRID    =  1.00D-06  GRIDMAX =  1.00D-03  DTMAX   =  0.00D+00

 SETTING GEOMTYP        =    XYZ
 ZUNIT=BOHR
 

 Variable memory set to 1000000000 words,  buffer space   230000 words

 SETTING BASIS          =    CC-PVTZ


 Recomputing integrals since basis changed


 Using spherical harmonics

 Library entry C      S cc-pVTZ              selected for orbital group  1
 Library entry C      P cc-pVTZ              selected for orbital group  1
 Library entry C      D cc-pVTZ              selected for orbital group  1
 Library entry C      F cc-pVTZ              selected for orbital group  1
 Library entry O      S cc-pVTZ              selected for orbital group  2
 Library entry O      P cc-pVTZ              selected for orbital group  2
 Library entry O      D cc-pVTZ              selected for orbital group  2
 Library entry O      F cc-pVTZ              selected for orbital group  2
 Library entry H      S cc-pVTZ              selected for orbital group  3
 Library entry H      P cc-pVTZ              selected for orbital group  3
 Library entry H      D cc-pVTZ              selected for orbital group  3

1PROGRAM * SEWARD (Integral evaluation for generally contracted gaussian basis sets)     Author: Roland Lindh, 1990

 Geometry written to block  1 of record 700


 Point group  C1  



 ATOMIC COORDINATES

 NR  ATOM    CHARGE       X              Y              Z

   1  C       6.00   -3.100143305    1.585356955    0.019626384
   2  C       6.00   -0.864085850   -0.070989844   -0.656287544
   3  C       6.00   -1.117841511   -2.779144868    0.245869091
   4  O       8.00    1.311486897    1.104945658    0.588985402
   5  O       8.00    3.449287731    0.120058713   -0.251819169
   6  H       1.00   -4.820075948    0.840370217   -0.884894525
   7  H       1.00   -2.803508997    3.539816904   -0.624390701
   8  H       1.00   -3.395415432    1.597173412    2.082674543
   9  H       1.00   -0.460302561   -0.004439078   -2.675474900
  10  H       1.00   -2.704947698   -3.696751480   -0.722337449
  11  H       1.00   -1.473374635   -2.823911210    2.289425572
  12  H       1.00    0.612021904   -3.834475039   -0.162981141

 Bond lengths in Bohr (Angstrom)

 1-2  2.863616123  1-6  2.081185146  1-7  2.079101636  1-8  2.084104834  2-3  2.865725417
     ( 1.515360388)     ( 1.101315747)     ( 1.100213201)     ( 1.102860779)     ( 1.516476578)

  2- 4  2.768870851   2- 9  2.060239677   3-10  2.073241869   3-11  2.074736349   3-12  2.067198035
       ( 1.465223349)       ( 1.090231882)       ( 1.097112346)       ( 1.097903191)       ( 1.093914087)

 4-5  2.499429340
     ( 1.322641042)

 Bond angles

  1-2-3  113.77575556   1-2-4  105.17272815   1-2-9  111.44978185   2-1-6  109.61365162

  2- 1- 7  111.05195383   2- 1- 8  110.33810539   2- 3-10  109.81769550   2- 3-11  110.22102328

  2- 3-12  110.24776375   2- 4- 5  110.69548252   3- 2- 4  109.22867131   3- 2- 9  110.88031868

  4-2-9  105.84684360   6-1-7  108.64995963   6-1-8  108.37113591   7-1-8  108.75437035

 10- 3-11  108.61766446  10- 3-12  108.80113981  11- 3-12  109.09840454

 NUCLEAR CHARGE:                   41
 NUMBER OF PRIMITIVE AOS:         354
 NUMBER OF SYMMETRY AOS:          322
 NUMBER OF CONTRACTIONS:          248   ( 248A   )
 NUMBER OF CORE ORBITALS:           5   (   5A   )
 NUMBER OF VALENCE ORBITALS:       27   (  27A   )


 NUCLEAR REPULSION ENERGY  186.46491803


 Eigenvalues of metric

         1 0.810E-03 0.964E-03 0.110E-02 0.127E-02 0.138E-02 0.154E-02 0.164E-02 0.169E-02


 Contracted 2-electron integrals neglected if value below      1.0D-16
 AO integral compression algorithm  1   Integral accuracy      1.0D-16

     3368.813 MB (compressed) written to integral file ( 82.0%)

     Node minimum: 811.860 MB, node maximum: 1280.836 MB


 NUMBER OF SORTED TWO-ELECTRON INTEGRALS:  158903334.     BUFFER LENGTH:  32768
 NUMBER OF SEGMENTS:  10  SEGMENT LENGTH:   15997437      RECORD LENGTH: 524288

 Memory used in sort:      16.55 MW

 SORT1 READ   513488342. AND WROTE   152557198. INTEGRALS IN    442 RECORDS. CPU TIME:    15.01 SEC, REAL TIME:    16.61 SEC
 SORT2 READ   459179277. AND WROTE   476679126. INTEGRALS IN   9291 RECORDS. CPU TIME:     2.16 SEC, REAL TIME:    14.11 SEC

 Node minimum:   158882750.  Node maximum:   158903334. integrals

 OPERATOR DM      FOR CENTER  0  COORDINATES:    0.000000    0.000000    0.000000


 **********************************************************************************************************************************
 DATASETS  * FILE   NREC   LENGTH (MB)   RECORD NAMES
              1      18        5.04       500      610      700      900      950      970     1000      129      960     1100   
                                          VAR    BASINP    GEOM    SYMINP    ZMAT    AOBASIS   BASIS     P2S    ABASIS      S 
                                         1400     1410     1200     1210     1080     1600     1650     1700   
                                           T        V       H0       H01     AOSYM     SMH    MOLCAS    OPER   

 PROGRAMS   *        TOTAL       INT
 CPU TIMES  *        24.95     24.91
 REAL TIME  *        40.84 SEC
 DISK USED  *         9.11 GB      
 GA USED    *         0.01 MB       (max)       0.00 MB       (current)
 **********************************************************************************************************************************

1PROGRAM * RHF-SCF (OPEN SHELL)       Authors: W. Meyer, H.-J. Werner


 NUMBER OF ELECTRONS:      21+   20-    SPACE SYMMETRY=1    SPIN SYMMETRY: Doublet 
 CONVERGENCE THRESHOLDS:    1.00E-10 (Density)    1.00E-11 (Energy)
 MAX. NUMBER OF ITERATIONS:      200
 INTERPOLATION TYPE:            DIIS
 INTERPOLATION STEPS:              2 (START)      1 (STEP)
 LEVEL SHIFTS:                 -0.30 (CLOSED)  0.00 (OPEN) 



 Orbital guess generated from atomic densities. Full valence occupancy:   32

 Molecular orbital dump at record        2100.2

 ITERATION    DDIFF          GRAD             ENERGY        2-EL.EN.            DIPOLE MOMENTS         DIIS
    1      0.000D+00      0.000D+00      -267.26078207    559.499074   -1.78190   -0.06802   -0.09490    0
    2      0.000D+00      0.325D-02      -267.33389105    562.349516   -1.01506   -0.43093   -0.36006    1
    3      0.468D-02      0.229D-02      -267.36040087    561.302961   -1.18676   -0.24308   -0.21823    2
    4      0.211D-02      0.545D-03      -267.36866084    561.486239   -0.97409   -0.31602   -0.29938    3
    5      0.925D-03      0.484D-03      -267.37287942    561.527486   -0.91768   -0.31832   -0.30387    4
    6      0.582D-03      0.271D-03      -267.37479990    561.494213   -0.87607   -0.31172   -0.30184    5
    7      0.484D-03      0.133D-03      -267.37513448    561.479664   -0.88594   -0.30015   -0.29376    6
    8      0.257D-03      0.356D-04      -267.37515620    561.477120   -0.88554   -0.29690   -0.29229    7
    9      0.845D-04      0.189D-04      -267.37516711    561.477359   -0.88805   -0.29743   -0.29235    8
   10      0.448D-04      0.824D-05      -267.37516894    561.477228   -0.88922   -0.29680   -0.29206    9
   11      0.200D-04      0.325D-05      -267.37516920    561.477170   -0.88984   -0.29664   -0.29189    9
   12      0.789D-05      0.149D-05      -267.37516926    561.477402   -0.88999   -0.29673   -0.29194    9
   13      0.373D-05      0.530D-06      -267.37516926    561.477453   -0.89000   -0.29679   -0.29196    9
   14      0.148D-05      0.301D-06      -267.37516927    561.477452   -0.88999   -0.29681   -0.29197    9
   15      0.817D-06      0.146D-06      -267.37516927    561.477459   -0.88999   -0.29681   -0.29197    9
   16      0.414D-06      0.725D-07      -267.37516927    561.477461   -0.88998   -0.29682   -0.29197    9
   17      0.168D-06      0.322D-07      -267.37516927    561.477456   -0.88998   -0.29682   -0.29197    9
   18      0.968D-07      0.168D-07      -267.37516927    561.477453   -0.88998   -0.29682   -0.29197    9
   19      0.482D-07      0.727D-08      -267.37516927    561.477455   -0.88998   -0.29682   -0.29197    9
   20      0.171D-07      0.230D-08      -267.37516927    561.477454   -0.88998   -0.29682   -0.29197    9
   21      0.593D-08      0.127D-08      -267.37516927    561.477454   -0.88998   -0.29682   -0.29197    9
   22      0.343D-08      0.759D-09      -267.37516927    561.477454   -0.88998   -0.29682   -0.29197    9
   23      0.201D-08      0.340D-09      -267.37516927    561.477454   -0.88998   -0.29682   -0.29197    9
   24      0.980D-09      0.207D-09      -267.37516927    561.477454   -0.88998   -0.29682   -0.29197    9
   25      0.718D-09      0.143D-09      -267.37516927    561.477454   -0.88998   -0.29682   -0.29197    9
   26      0.761D-09      0.119D-09      -267.37516927    561.477454   -0.88998   -0.29682   -0.29197    9
   27      0.917D-09      0.914D-10      -267.37516927    561.477454   -0.88998   -0.29682   -0.29197    9
   28      0.128D-08      0.682D-10      -267.37516927    561.477454   -0.88998   -0.29682   -0.29197    9
   29      0.815D-09      0.506D-10      -267.37516927    561.477454   -0.88998   -0.29682   -0.29197    9
   30      0.109D-08      0.247D-10      -267.37516927    561.477454   -0.88998   -0.29682   -0.29197    9
   31      0.408D-09      0.130D-10      -267.37516927    561.477454   -0.88998   -0.29682   -0.29197    9
   32      0.138D-09      0.569D-11      -267.37516927    561.477454   -0.88998   -0.29682   -0.29197    9
   33      0.390D-10      0.758D-11      -267.37516927    561.477454   -0.88998   -0.29682   -0.29197    0

 Final alpha occupancy:  21
 Final beta  occupancy:  20

 !RHF STATE 1.1 Energy               -267.375169267653
 Nuclear energy                       186.46491803
 One-electron energy                 -734.57881437
 Two-electron energy                  280.73872707
 Virial quotient                       -1.00139459
 !RHF STATE 1.1 Dipole moment          -0.88997962    -0.29681569    -0.29197183
 Dipole moment /Debye                  -2.26195439    -0.75438081    -0.74206975

 Orbital energies:

         1.1          2.1          3.1          4.1          5.1          6.1          7.1          8.1          9.1         10.1
    -20.648844   -20.640561   -11.297730   -11.232770   -11.227365    -1.523725    -1.171011    -1.033834    -0.950382    -0.818472

        11.1         12.1         13.1         14.1         15.1         16.1         17.1         18.1         19.1         20.1
     -0.695197    -0.667684    -0.652089    -0.594505    -0.561244    -0.555313    -0.542605    -0.501217    -0.489345    -0.465256

        21.1         22.1         23.1
     -0.563062     0.137269     0.174545


 **********************************************************************************************************************************
 DATASETS  * FILE   NREC   LENGTH (MB)   RECORD NAMES
              1      18        5.04       500      610      700      900      950      970     1000      129      960     1100   
                                          VAR    BASINP    GEOM    SYMINP    ZMAT    AOBASIS   BASIS     P2S    ABASIS      S 
                                         1400     1410     1200     1210     1080     1600     1650     1700   
                                           T        V       H0       H01     AOSYM     SMH    MOLCAS    OPER   

              2       3        2.21       700     1000     2100   
                                         GEOM     BASIS     RHF  

 PROGRAMS   *        TOTAL       RHF       INT
 CPU TIMES  *        72.17     47.22     24.91
 REAL TIME  *        92.19 SEC
 DISK USED  *         9.15 GB      
 SF USED    *         0.25 MB      
 GA USED    *         0.01 MB       (max)       0.00 MB       (current)
 **********************************************************************************************************************************


1PROGRAM * CCSD (Unrestricted open-shell coupled cluster)     Authors: C. Hampel, H.-J. Werner, 1991, M. Deegan, P.J. Knowles, 1992


 Convergence thresholds:  THRVAR = 1.00D-08  THRDEN = 1.00D-10

 CCSD(T)     terms to be evaluated (factor= 1.000)


 Number of core orbitals:           5 (   5 )
 Number of closed-shell orbitals:  15 (  15 )
 Number of active  orbitals:        1 (   1 )
 Number of external orbitals:     227 ( 227 )

 Memory could be reduced to 332.02 Mwords without degradation in triples

 Number of N-1 electron functions:              31
 Number of N-2 electron functions:             465
 Number of singly external CSFs:              7068
 Number of doubly external CSFs:          18353430
 Total number of CSFs:                    18360498

 Molecular orbitals read from record     2100.2  Type=RHF/CANONICAL (state 1.1)

 Integral transformation finished. Total CPU:  27.59 sec, npass=  1  Memory used: 145.25 MW

 Starting RMP2 calculation

 ITER.      SQ.NORM     CORR.ENERGY   TOTAL ENERGY   ENERGY CHANGE        DEN1      VAR(S)    VAR(P)  DIIS     TIME
   1      1.26611284    -0.96792929  -268.34309855    -0.96792929    -0.00325171  0.26D-04  0.11D-02  1  1    31.58
   2      1.26891799    -0.97143585  -268.34660512    -0.00350657    -0.00000667  0.10D-05  0.23D-05  2  2    34.72
   3      1.26899836    -0.97148900  -268.34665827    -0.00005315    -0.00000008  0.54D-07  0.11D-07  3  3    38.00
   4      1.26900005    -0.97148880  -268.34665807     0.00000020    -0.00000000  0.16D-08  0.12D-09  4  4    41.48
   5      1.26900031    -0.97148889  -268.34665816    -0.00000009    -0.00000000  0.19D-10  0.46D-11  5  5    45.11
   6      1.26900037    -0.97148892  -268.34665819    -0.00000003    -0.00000000  0.50D-13  0.56D-13  6  6    49.09
   7      1.26900037    -0.97148892  -268.34665819     0.00000000    -0.00000000  0.15D-14  0.86D-15  6  1    52.94
   8      1.26900037    -0.97148892  -268.34665819     0.00000000    -0.00000000  0.16D-16  0.80D-17  6  2    56.97
   9      1.26900037    -0.97148892  -268.34665819    -0.00000000    -0.00000000  0.31D-18  0.10D-18  6  3    61.51

 Norm of t1 vector:      0.04588962      S-energy:    -0.00446746      T1 diagnostic:  0.00074385
 Norm of t2 vector:      0.51661834      P-energy:    -0.96702146
                                         Alpha-Beta:  -0.73740846
                                         Alpha-Alpha: -0.11899768
                                         Beta-Beta:   -0.11061532

 Spin contamination <S**2-Sz**2-Sz>     0.00144975
  Reference energy                   -267.375169267657
  RHF-RMP2 correlation energy          -0.971488921767
 !RHF-RMP2 energy                    -268.346658189424

 Starting UCCSD calculation

 ITER.      SQ.NORM     CORR.ENERGY   TOTAL ENERGY   ENERGY CHANGE        DEN1      VAR(S)    VAR(P)  DIIS     TIME
   1      1.28068482    -0.97952035  -268.35468962    -0.97952035    -0.02943809  0.65D-02  0.54D-02  1  1   141.97
   2      1.30726170    -1.00624537  -268.38141464    -0.02672502    -0.00365385  0.62D-03  0.98D-03  2  2   222.82
   3      1.32402438    -1.01312186  -268.38829113    -0.00687649    -0.00091360  0.75D-03  0.77D-04  3  3   303.92
   4      1.33528853    -1.01579288  -268.39096215    -0.00267102    -0.00038520  0.31D-03  0.33D-04  4  4   384.99
   5      1.35033392    -1.01778900  -268.39295826    -0.00199611    -0.00011828  0.10D-03  0.90D-05  5  5   465.97
   6      1.36188444    -1.01881345  -268.39398272    -0.00102446    -0.00001817  0.93D-05  0.32D-05  6  6   548.03
   7      1.36558098    -1.01905405  -268.39422332    -0.00024059    -0.00000316  0.16D-05  0.61D-06  6  1   629.12
   8      1.36618752    -1.01909624  -268.39426551    -0.00004220    -0.00000067  0.27D-06  0.15D-06  6  2   710.17
   9      1.36650819    -1.01911467  -268.39428394    -0.00001842    -0.00000015  0.66D-07  0.32D-07  6  4   792.07
  10      1.36649465    -1.01911347  -268.39428274     0.00000120    -0.00000002  0.11D-07  0.43D-08  6  3   873.66
  11      1.36655711    -1.01911857  -268.39428784    -0.00000510    -0.00000000  0.23D-08  0.95D-09  6  5   955.32
  12      1.36654962    -1.01911608  -268.39428535     0.00000249    -0.00000000  0.97D-09  0.21D-09  6  6  1036.86
  13      1.36654521    -1.01911492  -268.39428419     0.00000116    -0.00000000  0.56D-09  0.53D-10  6  1  1118.74
  14      1.36653251    -1.01911344  -268.39428270     0.00000148    -0.00000000  0.36D-09  0.19D-10  6  2  1200.53
  15      1.36652679    -1.01911275  -268.39428202     0.00000069    -0.00000000  0.29D-09  0.14D-10  6  3  1282.60
  16      1.36652395    -1.01911259  -268.39428186     0.00000016    -0.00000000  0.22D-09  0.11D-10  6  4  1365.16
  17      1.36652319    -1.01911258  -268.39428185     0.00000001    -0.00000000  0.12D-09  0.11D-10  6  5  1447.64
  18      1.36652546    -1.01911273  -268.39428200    -0.00000015    -0.00000000  0.27D-10  0.51D-11  6  6  1530.44
  19      1.36652847    -1.01911304  -268.39428230    -0.00000031    -0.00000000  0.26D-11  0.16D-11  6  2  1613.14
  20      1.36652791    -1.01911290  -268.39428217     0.00000013    -0.00000000  0.62D-12  0.17D-12  6  1  1695.78
  21      1.36652822    -1.01911295  -268.39428221    -0.00000005    -0.00000000  0.21D-12  0.58D-13  6  4  1777.62
  22      1.36652812    -1.01911293  -268.39428220     0.00000002    -0.00000000  0.72D-13  0.19D-13  6  2  1860.24
  23      1.36652819    -1.01911294  -268.39428221    -0.00000001    -0.00000000  0.21D-13  0.39D-14  6  3  1942.93
  24      1.36652812    -1.01911293  -268.39428220     0.00000001    -0.00000000  0.22D-14  0.73D-15  6  5  2025.88
  25      1.36652810    -1.01911293  -268.39428220     0.00000000    -0.00000000  0.65D-15  0.20D-15  6  6  2108.65
  26      1.36652810    -1.01911293  -268.39428220     0.00000000    -0.00000000  0.33D-15  0.71D-16  6  1  2190.24
  27      1.36652810    -1.01911293  -268.39428220    -0.00000000    -0.00000000  0.21D-15  0.17D-16  6  4  2273.20
  28      1.36652810    -1.01911293  -268.39428220    -0.00000000    -0.00000000  0.15D-15  0.85D-17  6  2  2355.11
  29      1.36652810    -1.01911293  -268.39428220    -0.00000000    -0.00000000  0.11D-15  0.62D-17  6  3  2437.37
  30      1.36652810    -1.01911293  -268.39428220     0.00000000    -0.00000000  0.63D-16  0.57D-17  6  5  2519.45

 Norm of t1 vector:      0.23126977      S-energy:    -0.00501483      T1 diagnostic:  0.02849875
                                                                       D1 diagnostic:  0.14599901
 Norm of t2 vector:      0.55950192      P-energy:    -1.01409810
                                         Alpha-Beta:  -0.80186590
                                         Alpha-Alpha: -0.10864906
                                         Beta-Beta:   -0.10358315

 Singles amplitudes (print threshold =  0.500E-01):

         I         SYM. A    A   T(IA) [Beta-Beta]

         8         1         1     -0.09697618
         9         1         1      0.09881289
        11         1         1     -0.05898306
        12         1         1     -0.07296261
        14         1         1     -0.10991403

 Spin contamination <S**2-Sz**2-Sz>     0.00175554

 Memory could be reduced to 360.52 Mwords without degradation in triples
 

 RESULTS
 =======

  Reference energy                   -267.375169267657
  UCCSD singles energy                 -0.005014828066
  UCCSD pair energy                    -1.014098103434
  UCCSD correlation energy             -1.019112931500
  Triples (T) contribution             -0.040933360339
  Total correlation energy             -1.060046291839
 
  RHF-UCCSD energy                   -268.394282199157
  RHF-UCCSD[T] energy                -268.438546486078
  RHF-UCCSD-T energy                 -268.434714412243
 !RHF-UCCSD(T) energy                -268.435215559496

 Program statistics:

 Available memory in ccsd:               999997692
 Min. memory needed in ccsd:              51505734
 Max. memory used in ccsd:                74803578
 Max. memory used in cckext:              59475747 (30 integral passes)
 Max. memory used in cckint:             145249478 ( 1 integral passes)



 **********************************************************************************************************************************
 DATASETS  * FILE   NREC   LENGTH (MB)   RECORD NAMES
              1      18        5.04       500      610      700      900      950      970     1000      129      960     1100   
                                          VAR    BASINP    GEOM    SYMINP    ZMAT    AOBASIS   BASIS     P2S    ABASIS      S 
                                         1400     1410     1200     1210     1080     1600     1650     1700   
                                           T        V       H0       H01     AOSYM     SMH    MOLCAS    OPER   

              2       3        2.21       700     1000     2100   
                                         GEOM     BASIS     RHF  

 PROGRAMS   *        TOTAL  UCCSD(T)       RHF       INT
 CPU TIMES  *      4173.91   4101.74     47.22     24.91
 REAL TIME  *      4304.49 SEC
 DISK USED  *        16.13 GB      
 SF USED    *         6.57 GB      
 GA USED    *         0.01 MB       (max)       0.00 MB       (current)
 **********************************************************************************************************************************

        UCCSD(T)        RHF-SCF 
   -268.43521556   -267.37516927
 **********************************************************************************************************************************
 Variable memory released
