
 Primary working directories    : /tmp/601556.19.gen6.q
 Secondary working directories  : /tmp/601556.19.gen6.q
 Wavefunction directory         : /home/vulcan/mel64643/wfu/
 Main file repository           : /tmp/601556.19.gen6.q/

 ARCHNAME  : Linux/x86_64
 FC        : /opt/intel/compilers_and_libraries_2016.1.150/linux/bin/intel64/ifort
 FCVERSION : 16.0.1
 BLASLIB   : -mkl
 id        : ccgc

 Nodes     nprocs
 n090         1
 ga_uses_ma=false, calling ma_init with nominal heap.
 GA-space will be limited to   8.0 MW (determined by -G option)

 Using customized tuning parameters: mindgm=10; mindgv=16; mindgc=4; mindgr=1; noblas=0; mincuda=1000; minvec=7
 default implementation of scratch files=df  

 ***,Optimization of min3
 memory,1000,m
 gthresh,energy=1.0d-12,orbital=1.0d-10,oneint=1.0d-16,twoint=1.0d-16,optgrad=1.0d-6,compress=1.0d-13
 geomtyp=xyz
 
  bohr
  geometry = {
  6
  arbitrary comment
  C   -1.3738088211   -0.0235439158    0.0000015010
  O    1.3068835720    0.1208981409    0.0000006165
  H   -2.0778827702    1.9132991726   -0.0000810791
  H   -2.1103954287   -0.9816298156    1.6873151563
  H   -2.1103918265   -0.9817602664   -1.6872442360
  H    1.9418711145   -1.5773954356   -0.0000003687
 }
 
 basis=cc-pvtz
 {rhf;maxit,200}
 {ccsd(t);maxit,200}

 Variables initialized (661), CPU time= 0.01 sec
 Commands  initialized (458), CPU time= 0.00 sec, 486 directives.
 Default parameters read. Elapsed time= 0.05 sec

 Checking input...
 Passed
1


                                         ***  PROGRAM SYSTEM MOLPRO  ***
                         Copyright, University College Cardiff Consultants Limited, 2008

                                    Version 2010.1 linked May 16 2016 07:17:05


 **********************************************************************************************************************************
 LABEL *   Optimization of min3                                                          
 Linux-4.4.3/n090(x86_64) 64 bit mpp version                                             DATE: 06-Nov-21          TIME: 15:41:46  
 **********************************************************************************************************************************

 SHA1:             9e8077add272b0f3cad6f7df79ec5211205f459d
 **********************************************************************************************************************************

 THRESHOLDS:

 ZERO    =  1.00D-12  ONEINT  =  1.00D-16  TWOINT  =  1.00D-16  PREFAC  =  1.00D-14  LOCALI  =  1.00D-09  EORDER  =  1.00D-04
 ENERGY  =  1.00D-12  ETEST   =  0.00D+00  EDENS   =  0.00D+00  THRDEDEF=  1.00D-06  GRADIENT=  1.00D-02  STEP    =  1.00D-03
 ORBITAL =  1.00D-10  CIVEC   =  1.00D-05  COEFF   =  1.00D-04  PRINTCI =  5.00D-02  PUNCHCI =  9.90D+01  OPTGRAD =  1.00D-06
 OPTENERG=  1.00D-06  OPTSTEP =  3.00D-04  THRGRAD =  1.00D-10  COMPRESS=  1.00D-13  VARMIN  =  1.00D-07  VARMAX  =  1.00D-03
 THRDOUB =  0.00D+00  THRDIV  =  1.00D-05  THRRED  =  1.00D-07  THRPSP  =  1.00D+00  THRDC   =  1.00D-10  THRCS   =  1.00D-10
 THRNRM  =  1.00D-08  THREQ   =  0.00D+00  THRDE   =  1.00D+00  THRREF  =  1.00D-05  SPARFAC =  1.00D+00  THRDLP  =  1.00D-07
 THRDIA  =  1.00D-10  THRDLS  =  1.00D-07  THRGPS  =  0.00D+00  THRKEX  =  0.00D+00  THRDIS  =  2.00D-01  THRVAR  =  1.00D-10
 THRLOC  =  1.00D-06  THRGAP  =  1.00D-06  THRLOCT = -1.00D+00  THRGAPT = -1.00D+00  THRORB  =  1.00D-06  THRMLTP =  0.00D+00
 THRCPQCI=  1.00D-10  KEXTA   =  0.00D+00  THRCOARS=  0.00D+00  SYMTOL  =  1.00D-06  GRADTOL =  1.00D-06  THROVL  =  1.00D-08
 THRORTH =  1.00D-08  GRID    =  1.00D-06  GRIDMAX =  1.00D-03  DTMAX   =  0.00D+00

 SETTING GEOMTYP        =    XYZ
 ZUNIT=BOHR
 

 Variable memory set to 1000000000 words,  buffer space   230000 words

 SETTING BASIS          =    CC-PVTZ


 Recomputing integrals since basis changed


 Using spherical harmonics

 Library entry C      S cc-pVTZ              selected for orbital group  1
 Library entry C      P cc-pVTZ              selected for orbital group  1
 Library entry C      D cc-pVTZ              selected for orbital group  1
 Library entry C      F cc-pVTZ              selected for orbital group  1
 Library entry O      S cc-pVTZ              selected for orbital group  2
 Library entry O      P cc-pVTZ              selected for orbital group  2
 Library entry O      D cc-pVTZ              selected for orbital group  2
 Library entry O      F cc-pVTZ              selected for orbital group  2
 Library entry H      S cc-pVTZ              selected for orbital group  3
 Library entry H      P cc-pVTZ              selected for orbital group  3
 Library entry H      D cc-pVTZ              selected for orbital group  3

1PROGRAM * SEWARD (Integral evaluation for generally contracted gaussian basis sets)     Author: Roland Lindh, 1990

 Geometry written to block  1 of record 700


 Point group  C1  



 ATOMIC COORDINATES

 NR  ATOM    CHARGE       X              Y              Z

   1  C       6.00   -1.373808821   -0.023543916    0.000001501
   2  O       8.00    1.306883572    0.120898141    0.000000617
   3  H       1.00   -2.077882770    1.913299173   -0.000081079
   4  H       1.00   -2.110395429   -0.981629816    1.687315156
   5  H       1.00   -2.110391826   -0.981760266   -1.687244236
   6  H       1.00    1.941871115   -1.577395436   -0.000000369

 Bond lengths in Bohr (Angstrom)

 1-2  2.684581013  1-3  2.060844798  1-4  2.075455563  1-5  2.075459293  2-6  1.813121687
     ( 1.420619088)     ( 1.090552098)     ( 1.098283782)     ( 1.098285756)     ( 0.959462674)

 Bond angles

  1-2-6  107.41638934   2-1-3  106.89277854   2-1-4  112.28582710   2-1-5  112.28585382

  3-1-4  108.21796006   3-1-5  108.21759515   4-1-5  108.77379636

 NUCLEAR CHARGE:                   18
 NUMBER OF PRIMITIVE AOS:         162
 NUMBER OF SYMMETRY AOS:          148
 NUMBER OF CONTRACTIONS:          116   ( 116A   )
 NUMBER OF CORE ORBITALS:           2   (   2A   )
 NUMBER OF VALENCE ORBITALS:       12   (  12A   )


 NUCLEAR REPULSION ENERGY   40.27812074


 Eigenvalues of metric

         1 0.134E-02 0.182E-02 0.193E-02 0.235E-02 0.331E-02 0.461E-02 0.738E-02 0.101E-01


 Contracted 2-electron integrals neglected if value below      1.0D-16
 AO integral compression algorithm  1   Integral accuracy      1.0D-16

     196.346 MB (compressed) written to integral file ( 92.2%)

     Node minimum: 196.346 MB, node maximum: 196.346 MB


 NUMBER OF SORTED TWO-ELECTRON INTEGRALS:   23028291.     BUFFER LENGTH:  32768
 NUMBER OF SEGMENTS:   2  SEGMENT LENGTH:   15997996      RECORD LENGTH: 524288

 Memory used in sort:      16.56 MW

 SORT1 READ    26631627. AND WROTE    22813244. INTEGRALS IN     67 RECORDS. CPU TIME:     0.22 SEC, REAL TIME:     0.36 SEC
 SORT2 READ    22813244. AND WROTE    23028291. INTEGRALS IN    749 RECORDS. CPU TIME:     0.17 SEC, REAL TIME:     0.28 SEC

 FILE SIZES:   FILE 1:   175.9 MBYTE,  FILE 4:   281.1 MBYTE,   TOTAL:    457.0 MBYTE

 OPERATOR DM      FOR CENTER  0  COORDINATES:    0.000000    0.000000    0.000000


 **********************************************************************************************************************************
 DATASETS  * FILE   NREC   LENGTH (MB)   RECORD NAMES
              1      19      176.08       500      610      700      900      950      970     1000      129      960     1100   
                                          VAR    BASINP    GEOM    SYMINP    ZMAT    AOBASIS   BASIS     P2S    ABASIS      S 
                                         1400     1410     1200     1210     1080     1600     1650     1300     1700   
                                           T        V       H0       H01     AOSYM     SMH    MOLCAS    ERIS     OPER   

 PROGRAMS   *        TOTAL       INT
 CPU TIMES  *         1.33      1.29
 REAL TIME  *         1.90 SEC
 DISK USED  *       653.96 MB      
 GA USED    *         0.00 MB       (max)       0.00 MB       (current)
 **********************************************************************************************************************************

1PROGRAM * RHF-SCF (CLOSED SHELL)       Authors: W. Meyer, H.-J. Werner


 NUMBER OF ELECTRONS:       9+    9-    SPACE SYMMETRY=1    SPIN SYMMETRY: Singlet 
 CONVERGENCE THRESHOLDS:    1.00E-10 (Density)    1.00E-13 (Energy)
 MAX. NUMBER OF ITERATIONS:      200
 INTERPOLATION TYPE:            DIIS
 INTERPOLATION STEPS:              2 (START)      1 (STEP)
 LEVEL SHIFTS:                  0.00 (CLOSED)  0.00 (OPEN) 



 Orbital guess generated from atomic densities. Full valence occupancy:   14

 Molecular orbital dump at record        2100.2

 ITERATION    DDIFF          GRAD             ENERGY        2-EL.EN.            DIPOLE MOMENTS         DIIS
    1      0.000D+00      0.000D+00      -115.05302531    164.376775   -0.48540   -0.90513   -0.00000    0
    2      0.000D+00      0.474D-02      -115.08134557    161.933407   -0.29584   -0.50053   -0.00000    1
    3      0.784D-02      0.255D-02      -115.08845708    163.102072   -0.38784   -0.59830   -0.00000    2
    4      0.257D-02      0.497D-03      -115.08896370    162.946732   -0.38080   -0.59227   -0.00000    3
    5      0.685D-03      0.981D-04      -115.08899460    162.954149   -0.38434   -0.58751   -0.00000    4
    6      0.186D-03      0.185D-04      -115.08899596    162.952541   -0.38472   -0.58750   -0.00000    5
    7      0.478D-04      0.388D-05      -115.08899601    162.951719   -0.38491   -0.58729   -0.00000    6
    8      0.909D-05      0.114D-05      -115.08899602    162.952160   -0.38493   -0.58726   -0.00000    7
    9      0.223D-05      0.318D-06      -115.08899602    162.952051   -0.38494   -0.58725   -0.00000    6
   10      0.748D-06      0.594D-07      -115.08899602    162.952063   -0.38495   -0.58725   -0.00000    6
   11      0.157D-06      0.147D-07      -115.08899602    162.952067   -0.38495   -0.58725   -0.00000    6
   12      0.296D-07      0.616D-08      -115.08899602    162.952065   -0.38495   -0.58725   -0.00000    7
   13      0.108D-07      0.169D-08      -115.08899602    162.952065   -0.38495   -0.58725   -0.00000    7
   14      0.339D-08      0.348D-09      -115.08899602    162.952065   -0.38495   -0.58725   -0.00000    7
   15      0.834D-09      0.894D-10      -115.08899602    162.952065   -0.38495   -0.58725   -0.00000    7
   16      0.182D-09      0.220D-10      -115.08899602    162.952065   -0.38495   -0.58725   -0.00000    7
   17      0.512D-10      0.689D-11      -115.08899602    162.952065   -0.38495   -0.58725   -0.00000    7
   18      0.135D-10      0.154D-11      -115.08899602    162.952065   -0.38495   -0.58725   -0.00000    7
   19      0.296D-11      0.490D-12      -115.08899602    162.952065   -0.38495   -0.58725   -0.00000    7
   20      0.113D-11      0.119D-12      -115.08899602    162.952065   -0.38495   -0.58725   -0.00000    7
   21      0.299D-12      0.472D-13      -115.08899602    162.952065   -0.38495   -0.58725   -0.00000    7
   22      0.113D-12      0.234D-13      -115.08899602    162.952065   -0.38495   -0.58725   -0.00000    7
   23      0.902D-13      0.210D-13      -115.08899602    162.952065   -0.38495   -0.58725   -0.00000    8
   24      0.647D-13      0.333D-13      -115.08899602    162.952065   -0.38495   -0.58725   -0.00000    0

 Final occupancy:   9

 !RHF STATE 1.1 Energy               -115.088996016155
 Nuclear energy                        40.27812074
 One-electron energy                 -236.84314936
 Two-electron energy                   81.47603260
 Virial quotient                       -1.00139633
 !RHF STATE 1.1 Dipole moment          -0.38494678    -0.58724998    -0.00000165
 Dipole moment /Debye                  -0.97837303    -1.49254281    -0.00000419

 Orbital energies:

         1.1          2.1          3.1          4.1          5.1          6.1          7.1          8.1          9.1         10.1
    -20.552837   -11.270855    -1.354319    -0.922151    -0.687716    -0.616999    -0.590058    -0.501734    -0.448872     0.138328

        11.1
      0.178488


 **********************************************************************************************************************************
 DATASETS  * FILE   NREC   LENGTH (MB)   RECORD NAMES
              1      19      176.08       500      610      700      900      950      970     1000      129      960     1100   
                                          VAR    BASINP    GEOM    SYMINP    ZMAT    AOBASIS   BASIS     P2S    ABASIS      S 
                                         1400     1410     1200     1210     1080     1600     1650     1300     1700   
                                           T        V       H0       H01     AOSYM     SMH    MOLCAS    ERIS     OPER   

              2       3        0.63       700     1000     2100   
                                         GEOM     BASIS     RHF  

 PROGRAMS   *        TOTAL       RHF       INT
 CPU TIMES  *         4.45      3.12      1.29
 REAL TIME  *         5.52 SEC
 DISK USED  *       653.96 MB      
 GA USED    *         0.00 MB       (max)       0.00 MB       (current)
 **********************************************************************************************************************************


1PROGRAM * CCSD (Closed-shell coupled cluster)     Authors: C. Hampel, H.-J. Werner, 1991, M. Deegan, P.J. Knowles, 1992


 Convergence thresholds:  THRVAR = 1.00D-08  THRDEN = 1.00D-12

 CCSD(T)     terms to be evaluated (factor= 1.000)


 Number of core orbitals:           2 (   2 )
 Number of closed-shell orbitals:   7 (   7 )
 Number of external orbitals:     107 ( 107 )

 Molecular orbitals read from record     2100.2  Type=RHF/CANONICAL (state 1.1)

 Number of N-1 electron functions:               7
 Number of N-2 electron functions:              28
 Number of singly external CSFs:               749
 Number of doubly external CSFs:            280875
 Total number of CSFs:                      281625

 Length of J-op  integral file:               0.00 MB
 Length of K-op  integral file:               0.96 MB
 Length of 3-ext integral record:             0.00 MB

 Memory could be reduced to 12.77 Mwords without degradation in triples

 Integral transformation finished. Total CPU:   0.47 sec, npass=  1  Memory used:   7.23 MW

 Reference energy:                   -115.08899602

 MP2 singlet pair energy:              -0.28109308
 MP2 triplet pair energy:              -0.14730627
 MP2 correlation energy:               -0.42839935
 MP2 total energy:                   -115.51739536

 SCS-MP2 correlation energy:           -0.42896893   (PS=  1.200000  PT=  0.333333)
 SCS-MP2 total energy:               -115.51796494

 ITER.      SQ.NORM     CORR.ENERGY   TOTAL ENERGY   ENERGY CHANGE        DEN1      VAR(S)    VAR(P)  DIIS     TIME
   1      1.11820436    -0.44569534  -115.53469136    -0.01729599    -0.00692303  0.12D-02  0.18D-02  1  1     1.00
   2      1.12611720    -0.44688624  -115.53588226    -0.00119090    -0.00946759  0.16D-04  0.22D-03  2  2     1.58
   3      1.12872645    -0.44696401  -115.53596003    -0.00007777    -0.00179240  0.76D-05  0.10D-04  3  3     2.16
   4      1.12937095    -0.44696545  -115.53596146    -0.00000143    -0.00033485  0.35D-06  0.85D-06  4  4     2.74
   5      1.12947717    -0.44696735  -115.53596336    -0.00000190    -0.00004018  0.11D-06  0.66D-07  5  5     3.31
   6      1.12950231    -0.44696519  -115.53596120     0.00000216    -0.00000751  0.18D-07  0.51D-08  6  6     3.89
   7      1.12950590    -0.44696509  -115.53596111     0.00000010    -0.00000028  0.26D-08  0.90D-09  6  2     4.47
   8      1.12950724    -0.44696504  -115.53596106     0.00000005     0.00000002  0.43D-09  0.11D-09  6  1     5.04
   9      1.12950798    -0.44696499  -115.53596100     0.00000005    -0.00000003  0.28D-10  0.17D-10  6  3     5.62
  10      1.12950806    -0.44696500  -115.53596102    -0.00000002     0.00000007  0.25D-11  0.19D-11  6  4     6.19
  11      1.12950792    -0.44696501  -115.53596103    -0.00000001     0.00000011  0.23D-12  0.12D-12  6  6     6.77
  12      1.12950791    -0.44696501  -115.53596103    -0.00000000     0.00000001  0.26D-13  0.11D-13  6  5     7.34
  13      1.12950790    -0.44696501  -115.53596103    -0.00000000    -0.00000000  0.56D-14  0.17D-14  6  2     7.91
  14      1.12950791    -0.44696501  -115.53596103     0.00000000    -0.00000000  0.44D-15  0.14D-15  6  1     8.49
  15      1.12950791    -0.44696501  -115.53596103    -0.00000000    -0.00000000  0.63D-16  0.28D-16  6  3     9.06
  16      1.12950791    -0.44696501  -115.53596103     0.00000000     0.00000000  0.18D-16  0.34D-17  6  4     9.63
  17      1.12950791    -0.44696501  -115.53596103    -0.00000000     0.00000000  0.12D-17  0.72D-18  6  5    10.21
  18      1.12950791    -0.44696501  -115.53596103    -0.00000000     0.00000000  0.93D-19  0.45D-19  6  6    10.78
  19      1.12950791    -0.44696501  -115.53596103     0.00000000    -0.00000000  0.19D-19  0.98D-20  6  2    11.36
  20      1.12950791    -0.44696501  -115.53596103     0.00000000    -0.00000000  0.13D-20  0.73D-21  6  1    11.94

 Norm of t1 vector:      0.04475084      S-energy:    -0.00000000      T1 diagnostic:  0.00845711
                                                                       D1 diagnostic:  0.01719726


 Total CPU time for triples:      5.96 sec


 RESULTS
 =======

  Reference energy                   -115.088996016155
  CCSD singlet pair energy             -0.313242417673
  CCSD triplet pair energy             -0.133722596332
  CCSD correlation energy              -0.446965014005

  Triples (T) contribution             -0.014808889226
  Total correlation energy             -0.461773903231

  CCSD total energy                  -115.535961030160
  CCSD[T] energy                     -115.551237923643
  CCSD-T energy                      -115.550503375228
 !CCSD(T) total energy               -115.550769919386

 Timing summary (sec):

 STEP                 CPU(USER)    SYS     CPU(TOT)    WALL
 Transformation          0.48      0.06      0.54      0.54
 CCSD iterations        11.46      0.63     12.09     12.44
 Triples                 5.96      0.13      6.09      6.09

 Program statistics:

 Available memory in ccsd:               999999704
 Min. memory needed in ccsd:                915605
 Max. memory used in ccsd:                 1141922
 Max. memory used in cckext:                874802 (20 integral passes)



 **********************************************************************************************************************************
 DATASETS  * FILE   NREC   LENGTH (MB)   RECORD NAMES
              1      20      215.48       500      610      700      900      950      970     1000      129      960     1100   
                                          VAR    BASINP    GEOM    SYMINP    ZMAT    AOBASIS   BASIS     P2S    ABASIS      S 
                                         1400     1410     1200     1210     1080     1600     1650     1300     1700     1380   
                                           T        V       H0       H01     AOSYM     SMH    MOLCAS    ERIS     OPER     JKOP   

              2       3        0.63       700     1000     2100   
                                         GEOM     BASIS     RHF  

 PROGRAMS   *        TOTAL   CCSD(T)       RHF       INT
 CPU TIMES  *        22.37     17.91      3.12      1.29
 REAL TIME  *        24.62 SEC
 DISK USED  *       653.96 MB      
 GA USED    *         0.00 MB       (max)       0.00 MB       (current)
 **********************************************************************************************************************************

        CCSD(T)         RHF-SCF 
   -115.55076992   -115.08899602
 **********************************************************************************************************************************
 Variable memory released
