
 Primary working directories    : /tmp/786251.13.gen6.q
 Secondary working directories  : /tmp/786251.13.gen6.q
 Wavefunction directory         : /home/vulcan/nlk36701/wfu/
 Main file repository           : /tmp/786251.13.gen6.q/

 ARCHNAME  : Linux/x86_64
 FC        : /opt/intel/compilers_and_libraries_2016.1.150/linux/bin/intel64/ifort
 FCVERSION : 16.0.1
 BLASLIB   : -mkl
 id        : ccgc

 Nodes     nprocs
 n089         1
 ga_uses_ma=false, calling ma_init with nominal heap.
 GA-space will be limited to   8.0 MW (determined by -G option)

 Using customized tuning parameters: mindgm=10; mindgv=16; mindgc=4; mindgr=1; noblas=0; mincuda=1000; minvec=7
 default implementation of scratch files=df  

 ***,Optimization of min3
 memory,1000,m
 gthresh,energy=1.0d-12,orbital=1.0d-10,oneint=1.0d-16,twoint=1.0d-16,optgrad=1.0d-6,compress=1.0d-13
 geomtyp=xyz
 
  bohr
  geometry = {
  3
  arbitrary comment
  H   -0.0000000000   -1.4324558220    0.9949211737
  O    0.0000000000   -0.0000000000   -0.1234987273
  H    0.0000000000    1.4324558220    0.9949211737
 }
 
 basis=cc-pvdz
 {rhf;maxit,200}
 scfDZ=energy
 {ccsd(t);maxit,200}
 mp2DZ = emp2
 ccsdDZ=energc
 ccsdt_DZ=energy
 
 show[1,f20.15],scfDZ
 show[1,f20.15],mp2DZ
 show[1,f20.15],ccsdDZ
 show[1,f20.15],ccsdt_DZ

 Variables initialized (661), CPU time= 0.00 sec
 Commands  initialized (458), CPU time= 0.00 sec, 486 directives.
 Default parameters read. Elapsed time= 0.05 sec

 Checking input...
 Passed
1


                                         ***  PROGRAM SYSTEM MOLPRO  ***
                         Copyright, University College Cardiff Consultants Limited, 2008

                                    Version 2010.1 linked May 16 2016 07:17:05


 **********************************************************************************************************************************
 LABEL *   Optimization of min3                                                          
 Linux-4.4.3/n089(x86_64) 64 bit mpp version                                             DATE: 03-Aug-22          TIME: 12:15:35  
 **********************************************************************************************************************************

 SHA1:             9e8077add272b0f3cad6f7df79ec5211205f459d
 **********************************************************************************************************************************

 THRESHOLDS:

 ZERO    =  1.00D-12  ONEINT  =  1.00D-16  TWOINT  =  1.00D-16  PREFAC  =  1.00D-14  LOCALI  =  1.00D-09  EORDER  =  1.00D-04
 ENERGY  =  1.00D-12  ETEST   =  0.00D+00  EDENS   =  0.00D+00  THRDEDEF=  1.00D-06  GRADIENT=  1.00D-02  STEP    =  1.00D-03
 ORBITAL =  1.00D-10  CIVEC   =  1.00D-05  COEFF   =  1.00D-04  PRINTCI =  5.00D-02  PUNCHCI =  9.90D+01  OPTGRAD =  1.00D-06
 OPTENERG=  1.00D-06  OPTSTEP =  3.00D-04  THRGRAD =  1.00D-10  COMPRESS=  1.00D-13  VARMIN  =  1.00D-07  VARMAX  =  1.00D-03
 THRDOUB =  0.00D+00  THRDIV  =  1.00D-05  THRRED  =  1.00D-07  THRPSP  =  1.00D+00  THRDC   =  1.00D-10  THRCS   =  1.00D-10
 THRNRM  =  1.00D-08  THREQ   =  0.00D+00  THRDE   =  1.00D+00  THRREF  =  1.00D-05  SPARFAC =  1.00D+00  THRDLP  =  1.00D-07
 THRDIA  =  1.00D-10  THRDLS  =  1.00D-07  THRGPS  =  0.00D+00  THRKEX  =  0.00D+00  THRDIS  =  2.00D-01  THRVAR  =  1.00D-10
 THRLOC  =  1.00D-06  THRGAP  =  1.00D-06  THRLOCT = -1.00D+00  THRGAPT = -1.00D+00  THRORB  =  1.00D-06  THRMLTP =  0.00D+00
 THRCPQCI=  1.00D-10  KEXTA   =  0.00D+00  THRCOARS=  0.00D+00  SYMTOL  =  1.00D-06  GRADTOL =  1.00D-06  THROVL  =  1.00D-08
 THRORTH =  1.00D-08  GRID    =  1.00D-06  GRIDMAX =  1.00D-03  DTMAX   =  0.00D+00

 SETTING GEOMTYP        =    XYZ
 ZUNIT=BOHR
 

 Variable memory set to 1000000000 words,  buffer space   230000 words

 SETTING BASIS          =    CC-PVDZ


 Recomputing integrals since basis changed


 Using spherical harmonics

 Library entry H      S cc-pVDZ              selected for orbital group  1
 Library entry H      P cc-pVDZ              selected for orbital group  1
 Library entry O      S cc-pVDZ              selected for orbital group  2
 Library entry O      P cc-pVDZ              selected for orbital group  2
 Library entry O      D cc-pVDZ              selected for orbital group  2

1PROGRAM * SEWARD (Integral evaluation for generally contracted gaussian basis sets)     Author: Roland Lindh, 1990

 Geometry written to block  1 of record 700


 Point group  C2v 



 ATOMIC COORDINATES

 NR  ATOM    CHARGE       X              Y              Z

   1  H       1.00    0.000000000   -1.432455822    0.994921174
   2  H       1.00    0.000000000    1.432455822    0.994921174
   3  O       8.00    0.000000000    0.000000000   -0.123498727

 Bond lengths in Bohr (Angstrom)

 1-3  1.817358731  2-3  1.817358731
     ( 0.961704821)     ( 0.961704821)

 Bond angles

  1-3-2  104.03663152

 NUCLEAR CHARGE:                   10
 NUMBER OF PRIMITIVE AOS:          41
 NUMBER OF SYMMETRY AOS:           40
 NUMBER OF CONTRACTIONS:           24   (  11A1  +   4B1  +   7B2  +   2A2  )
 NUMBER OF CORE ORBITALS:           1   (   1A1  +   0B1  +   0B2  +   0A2  )
 NUMBER OF VALENCE ORBITALS:        6   (   3A1  +   1B1  +   2B2  +   0A2  )


 NUCLEAR REPULSION ENERGY    9.15303645


 Eigenvalues of metric

         1 0.177E-01 0.512E-01 0.160E+00 0.223E+00 0.516E+00 0.986E+00 0.101E+01 0.128E+01
         2 0.183E+00 0.525E+00 0.110E+01 0.224E+01
         3 0.450E-01 0.988E-01 0.171E+00 0.669E+00 0.102E+01 0.116E+01 0.254E+01
         4 0.622E+00 0.133E+01


 Contracted 2-electron integrals neglected if value below      1.0D-16
 AO integral compression algorithm  1   Integral accuracy      1.0D-16

     0.262 MB (compressed) written to integral file (100.0%)

     Node minimum: 0.262 MB, node maximum: 0.262 MB


 NUMBER OF SORTED TWO-ELECTRON INTEGRALS:      13826.     BUFFER LENGTH:  32768
 NUMBER OF SEGMENTS:   1  SEGMENT LENGTH:      13826      RECORD LENGTH: 524288

 Memory used in sort:       0.57 MW

 SORT1 READ       19080. AND WROTE       12665. INTEGRALS IN      1 RECORDS. CPU TIME:     0.00 SEC, REAL TIME:     0.00 SEC
 SORT2 READ       12665. AND WROTE       13826. INTEGRALS IN      1 RECORDS. CPU TIME:     0.01 SEC, REAL TIME:     0.00 SEC

 FILE SIZES:   FILE 1:     2.7 MBYTE,  FILE 4:     4.2 MBYTE,   TOTAL:      6.9 MBYTE

 OPERATOR DM      FOR CENTER  0  COORDINATES:    0.000000    0.000000    0.000000


 **********************************************************************************************************************************
 DATASETS  * FILE   NREC   LENGTH (MB)   RECORD NAMES
              1      19        2.69       500      610      700      900      950      970     1000      129      960     1100   
                                          VAR    BASINP    GEOM    SYMINP    ZMAT    AOBASIS   BASIS     P2S    ABASIS      S 
                                         1400     1410     1200     1210     1080     1600     1650     1300     1700   
                                           T        V       H0       H01     AOSYM     SMH    MOLCAS    ERIS     OPER   

 PROGRAMS   *        TOTAL       INT
 CPU TIMES  *         0.10      0.06
 REAL TIME  *         0.29 SEC
 DISK USED  *         7.70 MB      
 GA USED    *         0.00 MB       (max)       0.00 MB       (current)
 **********************************************************************************************************************************

1PROGRAM * RHF-SCF (CLOSED SHELL)       Authors: W. Meyer, H.-J. Werner


 NUMBER OF ELECTRONS:       5+    5-
 CONVERGENCE THRESHOLDS:    1.00E-10 (Density)    1.00E-13 (Energy)
 MAX. NUMBER OF ITERATIONS:      200
 INTERPOLATION TYPE:            DIIS
 INTERPOLATION STEPS:              2 (START)      1 (STEP)
 LEVEL SHIFTS:                  0.00 (CLOSED)  0.00 (OPEN) 



 Orbital guess generated from atomic densities. Full valence occupancy:    4   1   2   0

 Molecular orbital dump at record        2100.2

 Initial alpha occupancy:   3   1   1   0
 Initial beta  occupancy:   3   1   1   0
 Wave function symmetry:    1

 ITERATION    DDIFF          GRAD             ENERGY        2-EL.EN.            DIPOLE MOMENTS         DIIS
    1      0.000D+00      0.000D+00       -75.98814750     77.811892    0.00000    0.00000    1.15264    0
    2      0.000D+00      0.414D-01       -76.01782023     74.552558    0.00000    0.00000    0.75555    1
    3      0.776D-01      0.218D-01       -76.02631769     75.876529    0.00000    0.00000    0.83052    2
    4      0.254D-01      0.246D-02       -76.02653649     75.779134    0.00000    0.00000    0.81805    3
    5      0.479D-02      0.660D-03       -76.02655430     75.791174    0.00000    0.00000    0.81433    4
    6      0.150D-02      0.104D-03       -76.02655488     75.791129    0.00000    0.00000    0.81368    5
    7      0.237D-03      0.150D-04       -76.02655489     75.791069    0.00000    0.00000    0.81356    6
    8      0.419D-04      0.123D-05       -76.02655489     75.791057    0.00000    0.00000    0.81355    5
    9      0.277D-05      0.173D-06       -76.02655489     75.791063    0.00000    0.00000    0.81355    5
   10      0.392D-06      0.541D-07       -76.02655489     75.791060    0.00000    0.00000    0.81355    5
   11      0.923D-07      0.172D-07       -76.02655489     75.791060    0.00000    0.00000    0.81355    5
   12      0.352D-07      0.304D-08       -76.02655489     75.791060    0.00000    0.00000    0.81355    5
   13      0.806D-08      0.641D-09       -76.02655489     75.791060    0.00000    0.00000    0.81355    6
   14      0.178D-08      0.754D-10       -76.02655489     75.791060    0.00000    0.00000    0.81355    6
   15      0.200D-09      0.107D-10       -76.02655489     75.791060    0.00000    0.00000    0.81355    6
   16      0.249D-10      0.130D-11       -76.02655489     75.791060    0.00000    0.00000    0.81355    0

 Final occupancy:   3   1   1   0

 !RHF STATE 1.1 Energy                -76.026554888023
 Nuclear energy                         9.15303645
 One-electron energy                 -123.07512152
 Two-electron energy                   37.89553018
 Virial quotient                       -1.00071343
 !RHF STATE 1.1 Dipole moment           0.00000000     0.00000000     0.81355343
 Dipole moment /Debye                   0.00000000     0.00000000     2.06771112

 Orbital energies:

         1.1          2.1          3.1          4.1          5.1
    -20.551475    -1.334815    -0.566724     0.184721     0.852293

         1.2          2.2          3.2
     -0.493003     1.200204     1.671188

         1.3          2.3          3.3
     -0.696014     0.255649     0.784508

         1.4          2.4
      1.476669     3.332734


 **********************************************************************************************************************************
 DATASETS  * FILE   NREC   LENGTH (MB)   RECORD NAMES
              1      19        2.69       500      610      700      900      950      970     1000      129      960     1100   
                                          VAR    BASINP    GEOM    SYMINP    ZMAT    AOBASIS   BASIS     P2S    ABASIS      S 
                                         1400     1410     1200     1210     1080     1600     1650     1300     1700   
                                           T        V       H0       H01     AOSYM     SMH    MOLCAS    ERIS     OPER   

              2       3        0.29       700     1000     2100   
                                         GEOM     BASIS     RHF  

 PROGRAMS   *        TOTAL       RHF       INT
 CPU TIMES  *         0.10      0.00      0.06
 REAL TIME  *         0.31 SEC
 DISK USED  *         7.70 MB      
 GA USED    *         0.00 MB       (max)       0.00 MB       (current)
 **********************************************************************************************************************************
 SETTING SCFDZ          =       -76.02655489  AU                              


1PROGRAM * CCSD (Closed-shell coupled cluster)     Authors: C. Hampel, H.-J. Werner, 1991, M. Deegan, P.J. Knowles, 1992


 Convergence thresholds:  THRVAR = 1.00D-08  THRDEN = 1.00D-12

 CCSD(T)     terms to be evaluated (factor= 1.000)


 Number of core orbitals:           1 (   1   0   0   0 )
 Number of closed-shell orbitals:   4 (   2   1   1   0 )
 Number of external orbitals:      19 (   8   3   6   2 )

 Molecular orbitals read from record     2100.2  Type=RHF/CANONICAL (state 1.1)

 Number of N-1 electron functions:               4
 Number of N-2 electron functions:              10
 Number of singly external CSFs:                25
 Number of doubly external CSFs:               805
 Total number of CSFs:                         831

 Length of J-op  integral file:               0.00 MB
 Length of K-op  integral file:               0.04 MB
 Length of 3-ext integral record:             0.00 MB

 Memory could be reduced to 0.30 Mwords without degradation in triples

 Integral transformation finished. Total CPU:   0.00 sec, npass=  1  Memory used:   0.07 MW

 Reference energy:                    -76.02655489

 MP2 singlet pair energy:              -0.12582717
 MP2 triplet pair energy:              -0.07616307
 MP2 correlation energy:               -0.20199024
 MP2 total energy:                    -76.22854513

 SCS-MP2 correlation energy:           -0.19838296   (PS=  1.200000  PT=  0.333333)
 SCS-MP2 total energy:                -76.22493785

 ITER.      SQ.NORM     CORR.ENERGY   TOTAL ENERGY   ENERGY CHANGE        DEN1      VAR(S)    VAR(P)  DIIS     TIME
   1      1.05303697    -0.21054251   -76.23709739    -0.00855227    -0.00496012  0.28D-03  0.68D-03  1  1     0.00
   2      1.05621515    -0.21147830   -76.23803318    -0.00093579    -0.00389559  0.53D-05  0.57D-04  2  2     0.01
   3      1.05700348    -0.21155314   -76.23810803    -0.00007485    -0.00059598  0.20D-05  0.23D-05  3  3     0.01
   4      1.05718149    -0.21155596   -76.23811085    -0.00000282    -0.00009703  0.13D-06  0.13D-06  4  4     0.01
   5      1.05721489    -0.21155451   -76.23810940     0.00000145    -0.00001546  0.34D-07  0.75D-08  5  5     0.01
   6      1.05721958    -0.21155446   -76.23810934     0.00000006     0.00000038  0.42D-08  0.82D-09  6  6     0.01
   7      1.05722228    -0.21155440   -76.23810929     0.00000006    -0.00000027  0.16D-09  0.68D-10  6  1     0.01
   8      1.05722265    -0.21155435   -76.23810924     0.00000005     0.00000006  0.39D-11  0.47D-11  6  2     0.01
   9      1.05722275    -0.21155434   -76.23810923     0.00000001    -0.00000005  0.89D-13  0.29D-12  6  3     0.01
  10      1.05722278    -0.21155434   -76.23810923     0.00000000    -0.00000002  0.19D-14  0.81D-14  6  4     0.01
  11      1.05722279    -0.21155434   -76.23810923     0.00000000    -0.00000000  0.16D-15  0.32D-15  6  6     0.01
  12      1.05722279    -0.21155434   -76.23810923     0.00000000    -0.00000000  0.32D-17  0.12D-16  6  5     0.01
  13      1.05722279    -0.21155434   -76.23810923    -0.00000000    -0.00000000  0.81D-18  0.87D-18  6  1     0.01
  14      1.05722279    -0.21155434   -76.23810923     0.00000000    -0.00000000  0.23D-18  0.73D-19  6  2     0.01
  15      1.05722279    -0.21155434   -76.23810923     0.00000000    -0.00000000  0.56D-19  0.75D-20  6  3     0.02
  16      1.05722279    -0.21155434   -76.23810923     0.00000000    -0.00000000  0.47D-20  0.14D-20  6  4     0.02

 Norm of t1 vector:      0.02382977      S-energy:    -0.00000000      T1 diagnostic:  0.00595744
                                                                       D1 diagnostic:  0.01128311

 Doubles amplitudes (print threshold =  0.500E-01):

         I         J         SYM. A    SYM. B    A         B      T(IJ, AB)

         3         3         2         2         1         1     -0.05142280


 Total CPU time for triples:      0.00 sec


 RESULTS
 =======

  Reference energy                    -76.026554888023
  CCSD singlet pair energy             -0.143582301906
  CCSD triplet pair energy             -0.067972037630
  CCSD correlation energy              -0.211554339537

  Triples (T) contribution             -0.003059298878
  Total correlation energy             -0.214613638415

  CCSD total energy                   -76.238109227561
  CCSD[T] energy                      -76.241254860560
  CCSD-T energy                       -76.241113087285
 !CCSD(T) total energy                -76.241168526438

 Timing summary (sec):

 STEP                 CPU(USER)    SYS     CPU(TOT)    WALL
 CCSD iterations         0.02      0.01      0.03      0.04

 Program statistics:

 Available memory in ccsd:               999999836
 Min. memory needed in ccsd:                  5661
 Max. memory used in ccsd:                    6126
 Max. memory used in cckext:                 38485 (16 integral passes)



 **********************************************************************************************************************************
 DATASETS  * FILE   NREC   LENGTH (MB)   RECORD NAMES
              1      20        2.76       500      610      700      900      950      970     1000      129      960     1100   
                                          VAR    BASINP    GEOM    SYMINP    ZMAT    AOBASIS   BASIS     P2S    ABASIS      S 
                                         1400     1410     1200     1210     1080     1600     1650     1300     1700     1380   
                                           T        V       H0       H01     AOSYM     SMH    MOLCAS    ERIS     OPER     JKOP   

              2       3        0.29       700     1000     2100   
                                         GEOM     BASIS     RHF  

 PROGRAMS   *        TOTAL   CCSD(T)       RHF       INT
 CPU TIMES  *         0.12      0.02      0.00      0.06
 REAL TIME  *         0.37 SEC
 DISK USED  *         7.70 MB      
 GA USED    *         0.00 MB       (max)       0.00 MB       (current)
 **********************************************************************************************************************************
 SETTING MP2DZ          =       -76.22854513  AU                              
 SETTING CCSDDZ         =       -76.23810923  AU                              
 SETTING CCSDT_DZ       =       -76.24116853  AU                              
 SCFDZ            =     -76.026554888023128 AU
 MP2DZ            =     -76.228545128754078 AU
 CCSDDZ           =     -76.238109227560514 AU
 CCSDT_DZ         =     -76.241168526438329 AU

        CCSD(T)         RHF-SCF 
    -76.24116853    -76.02655489
 **********************************************************************************************************************************
 Variable memory released
