
 Primary working directories    : /tmp/601555.112.gen4.q
 Secondary working directories  : /tmp/601555.112.gen4.q
 Wavefunction directory         : /home/vulcan/mel64643/wfu/
 Main file repository           : /tmp/601555.112.gen4.q/

 ARCHNAME  : Linux/x86_64
 FC        : /opt/intel/compilers_and_libraries_2016.1.150/linux/bin/intel64/ifort
 FCVERSION : 16.0.1
 BLASLIB   : -mkl
 id        : ccgc

 Nodes     nprocs
 n062         1
 ga_uses_ma=false, calling ma_init with nominal heap.
 GA-space will be limited to   8.0 MW (determined by -G option)

 Using customized tuning parameters: mindgm=10; mindgv=16; mindgc=4; mindgr=1; noblas=0; mincuda=1000; minvec=7
 default implementation of scratch files=df  

 ***,Optimization of min3
 memory,1000,m
 gthresh,energy=1.0d-12,orbital=1.0d-10,oneint=1.0d-16,twoint=1.0d-16,optgrad=1.0d-6,compress=1.0d-13
 geomtyp=xyz
 
  bohr
  geometry = {
  6
  arbitrary comment
  C   -1.3751080433   -0.0250463829    0.0000003456
  O    1.3105030503    0.1234346013    0.0000002889
  H   -2.0701333299    1.9070989059   -0.0000799337
  H   -2.1133276621   -0.9815499155    1.6795046128
  H   -2.1133211279   -0.9816809001   -1.6794323969
  H    1.9376629529   -1.5723884287   -0.0000013266
 }
 
 basis=cc-pvdz
 {rhf;maxit,200}
 {ccsd(t);maxit,200}

 Variables initialized (661), CPU time= 0.00 sec
 Commands  initialized (458), CPU time= 0.01 sec, 486 directives.
 Default parameters read. Elapsed time= 0.05 sec

 Checking input...
 Passed
1


                                         ***  PROGRAM SYSTEM MOLPRO  ***
                         Copyright, University College Cardiff Consultants Limited, 2008

                                    Version 2010.1 linked May 16 2016 07:17:05


 **********************************************************************************************************************************
 LABEL *   Optimization of min3                                                          
 Linux-4.4.3/n062(x86_64) 64 bit mpp version                                             DATE: 06-Nov-21          TIME: 15:40:01  
 **********************************************************************************************************************************

 SHA1:             9e8077add272b0f3cad6f7df79ec5211205f459d
 **********************************************************************************************************************************

 THRESHOLDS:

 ZERO    =  1.00D-12  ONEINT  =  1.00D-16  TWOINT  =  1.00D-16  PREFAC  =  1.00D-14  LOCALI  =  1.00D-09  EORDER  =  1.00D-04
 ENERGY  =  1.00D-12  ETEST   =  0.00D+00  EDENS   =  0.00D+00  THRDEDEF=  1.00D-06  GRADIENT=  1.00D-02  STEP    =  1.00D-03
 ORBITAL =  1.00D-10  CIVEC   =  1.00D-05  COEFF   =  1.00D-04  PRINTCI =  5.00D-02  PUNCHCI =  9.90D+01  OPTGRAD =  1.00D-06
 OPTENERG=  1.00D-06  OPTSTEP =  3.00D-04  THRGRAD =  1.00D-10  COMPRESS=  1.00D-13  VARMIN  =  1.00D-07  VARMAX  =  1.00D-03
 THRDOUB =  0.00D+00  THRDIV  =  1.00D-05  THRRED  =  1.00D-07  THRPSP  =  1.00D+00  THRDC   =  1.00D-10  THRCS   =  1.00D-10
 THRNRM  =  1.00D-08  THREQ   =  0.00D+00  THRDE   =  1.00D+00  THRREF  =  1.00D-05  SPARFAC =  1.00D+00  THRDLP  =  1.00D-07
 THRDIA  =  1.00D-10  THRDLS  =  1.00D-07  THRGPS  =  0.00D+00  THRKEX  =  0.00D+00  THRDIS  =  2.00D-01  THRVAR  =  1.00D-10
 THRLOC  =  1.00D-06  THRGAP  =  1.00D-06  THRLOCT = -1.00D+00  THRGAPT = -1.00D+00  THRORB  =  1.00D-06  THRMLTP =  0.00D+00
 THRCPQCI=  1.00D-10  KEXTA   =  0.00D+00  THRCOARS=  0.00D+00  SYMTOL  =  1.00D-06  GRADTOL =  1.00D-06  THROVL  =  1.00D-08
 THRORTH =  1.00D-08  GRID    =  1.00D-06  GRIDMAX =  1.00D-03  DTMAX   =  0.00D+00

 SETTING GEOMTYP        =    XYZ
 ZUNIT=BOHR
 

 Variable memory set to 1000000000 words,  buffer space   230000 words

 SETTING BASIS          =    CC-PVDZ


 Recomputing integrals since basis changed


 Using spherical harmonics

 Library entry C      S cc-pVDZ              selected for orbital group  1
 Library entry C      P cc-pVDZ              selected for orbital group  1
 Library entry C      D cc-pVDZ              selected for orbital group  1
 Library entry O      S cc-pVDZ              selected for orbital group  2
 Library entry O      P cc-pVDZ              selected for orbital group  2
 Library entry O      D cc-pVDZ              selected for orbital group  2
 Library entry H      S cc-pVDZ              selected for orbital group  3
 Library entry H      P cc-pVDZ              selected for orbital group  3

1PROGRAM * SEWARD (Integral evaluation for generally contracted gaussian basis sets)     Author: Roland Lindh, 1990

 Geometry written to block  1 of record 700


 Point group  C1  



 ATOMIC COORDINATES

 NR  ATOM    CHARGE       X              Y              Z

   1  C       6.00   -1.375108043   -0.025046383    0.000000346
   2  O       8.00    1.310503050    0.123434601    0.000000289
   3  H       1.00   -2.070133330    1.907098906   -0.000079934
   4  H       1.00   -2.113327662   -0.981549916    1.679504613
   5  H       1.00   -2.113321128   -0.981680900   -1.679432397
   6  H       1.00    1.937662953   -1.572388429   -0.000001327

 Bond lengths in Bohr (Angstrom)

 1-2  2.689712540  1-3  2.053349842  1-4  2.068961526  1-5  2.068961695  2-6  1.808077789
     ( 1.423334575)     ( 1.086585938)     ( 1.094847286)     ( 1.094847375)     ( 0.956793558)

 Bond angles

  1-2-6  107.13119349   2-1-3  106.61999064   2-1-4  112.44422274   2-1-5  112.44423986

  3-1-4  108.31736809   3-1-5  108.31719563   4-1-5  108.53347954

 NUCLEAR CHARGE:                   18
 NUMBER OF PRIMITIVE AOS:          82
 NUMBER OF SYMMETRY AOS:           80
 NUMBER OF CONTRACTIONS:           48   (  48A   )
 NUMBER OF CORE ORBITALS:           2   (   2A   )
 NUMBER OF VALENCE ORBITALS:       12   (  12A   )


 NUCLEAR REPULSION ENERGY   40.29277513


 Eigenvalues of metric

         1 0.966E-02 0.176E-01 0.367E-01 0.374E-01 0.379E-01 0.476E-01 0.477E-01 0.514E-01


 Contracted 2-electron integrals neglected if value below      1.0D-16
 AO integral compression algorithm  1   Integral accuracy      1.0D-16

     6.291 MB (compressed) written to integral file ( 98.3%)

     Node minimum: 6.291 MB, node maximum: 6.291 MB


 NUMBER OF SORTED TWO-ELECTRON INTEGRALS:     692076.     BUFFER LENGTH:  32768
 NUMBER OF SEGMENTS:   1  SEGMENT LENGTH:     692076      RECORD LENGTH: 524288

 Memory used in sort:       1.25 MW

 SORT1 READ      832256. AND WROTE      682148. INTEGRALS IN      2 RECORDS. CPU TIME:     0.00 SEC, REAL TIME:     0.02 SEC
 SORT2 READ      682148. AND WROTE      692076. INTEGRALS IN     24 RECORDS. CPU TIME:     0.02 SEC, REAL TIME:     0.02 SEC

 FILE SIZES:   FILE 1:     8.0 MBYTE,  FILE 4:     8.4 MBYTE,   TOTAL:     16.4 MBYTE

 OPERATOR DM      FOR CENTER  0  COORDINATES:    0.000000    0.000000    0.000000


 **********************************************************************************************************************************
 DATASETS  * FILE   NREC   LENGTH (MB)   RECORD NAMES
              1      19        8.03       500      610      700      900      950      970     1000      129      960     1100   
                                          VAR    BASINP    GEOM    SYMINP    ZMAT    AOBASIS   BASIS     P2S    ABASIS      S 
                                         1400     1410     1200     1210     1080     1600     1650     1300     1700   
                                           T        V       H0       H01     AOSYM     SMH    MOLCAS    ERIS     OPER   

 PROGRAMS   *        TOTAL       INT
 CPU TIMES  *         0.22      0.18
 REAL TIME  *         0.42 SEC
 DISK USED  *        23.34 MB      
 GA USED    *         0.00 MB       (max)       0.00 MB       (current)
 **********************************************************************************************************************************

1PROGRAM * RHF-SCF (CLOSED SHELL)       Authors: W. Meyer, H.-J. Werner


 NUMBER OF ELECTRONS:       9+    9-    SPACE SYMMETRY=1    SPIN SYMMETRY: Singlet 
 CONVERGENCE THRESHOLDS:    1.00E-10 (Density)    1.00E-13 (Energy)
 MAX. NUMBER OF ITERATIONS:      200
 INTERPOLATION TYPE:            DIIS
 INTERPOLATION STEPS:              2 (START)      1 (STEP)
 LEVEL SHIFTS:                  0.00 (CLOSED)  0.00 (OPEN) 



 Orbital guess generated from atomic densities. Full valence occupancy:   14

 Molecular orbital dump at record        2100.2

 ITERATION    DDIFF          GRAD             ENERGY        2-EL.EN.            DIPOLE MOMENTS         DIIS
    1      0.000D+00      0.000D+00      -115.01419784    164.345151   -0.50370   -0.90109   -0.00000    0
    2      0.000D+00      0.110D-01      -115.04253881    162.137705   -0.32170   -0.53528   -0.00000    1
    3      0.205D-01      0.530D-02      -115.04857645    163.158098   -0.40591   -0.61061   -0.00000    2
    4      0.639D-02      0.112D-02      -115.04903907    163.002776   -0.39536   -0.59955   -0.00000    3
    5      0.204D-02      0.202D-03      -115.04905999    163.009113   -0.39809   -0.59528   -0.00000    4
    6      0.433D-03      0.353D-04      -115.04906078    163.009258   -0.39836   -0.59509   -0.00000    5
    7      0.927D-04      0.730D-05      -115.04906081    163.008069   -0.39849   -0.59492   -0.00000    6
    8      0.148D-04      0.235D-05      -115.04906081    163.008446   -0.39852   -0.59490   -0.00000    7
    9      0.497D-05      0.482D-06      -115.04906081    163.008406   -0.39854   -0.59490   -0.00000    6
   10      0.138D-05      0.835D-07      -115.04906081    163.008404   -0.39854   -0.59490   -0.00000    6
   11      0.226D-06      0.311D-07      -115.04906081    163.008410   -0.39854   -0.59490   -0.00000    6
   12      0.559D-07      0.127D-07      -115.04906081    163.008408   -0.39854   -0.59490   -0.00000    7
   13      0.235D-07      0.284D-08      -115.04906081    163.008408   -0.39854   -0.59490   -0.00000    7
   14      0.708D-08      0.632D-09      -115.04906081    163.008408   -0.39854   -0.59490   -0.00000    7
   15      0.163D-08      0.143D-09      -115.04906081    163.008408   -0.39854   -0.59490   -0.00000    7
   16      0.318D-09      0.429D-10      -115.04906081    163.008408   -0.39854   -0.59490   -0.00000    7
   17      0.840D-10      0.140D-10      -115.04906081    163.008408   -0.39854   -0.59490   -0.00000    0

 Final occupancy:   9

 !RHF STATE 1.1 Energy               -115.049060809342
 Nuclear energy                        40.29277513
 One-electron energy                 -236.84604001
 Two-electron energy                   81.50420407
 Virial quotient                       -1.00089509
 !RHF STATE 1.1 Dipole moment          -0.39853850    -0.59489740    -0.00000276
 Dipole moment /Debye                  -1.01291747    -1.51197934    -0.00000701

 Orbital energies:

         1.1          2.1          3.1          4.1          5.1          6.1          7.1          8.1          9.1         10.1
    -20.549986   -11.274714    -1.349880    -0.921860    -0.683219    -0.613027    -0.584287    -0.498404    -0.443439     0.184697

        11.1
      0.224796


 **********************************************************************************************************************************
 DATASETS  * FILE   NREC   LENGTH (MB)   RECORD NAMES
              1      19        8.03       500      610      700      900      950      970     1000      129      960     1100   
                                          VAR    BASINP    GEOM    SYMINP    ZMAT    AOBASIS   BASIS     P2S    ABASIS      S 
                                         1400     1410     1200     1210     1080     1600     1650     1300     1700   
                                           T        V       H0       H01     AOSYM     SMH    MOLCAS    ERIS     OPER   

              2       3        0.39       700     1000     2100   
                                         GEOM     BASIS     RHF  

 PROGRAMS   *        TOTAL       RHF       INT
 CPU TIMES  *         0.31      0.09      0.18
 REAL TIME  *         0.53 SEC
 DISK USED  *        23.34 MB      
 GA USED    *         0.00 MB       (max)       0.00 MB       (current)
 **********************************************************************************************************************************


1PROGRAM * CCSD (Closed-shell coupled cluster)     Authors: C. Hampel, H.-J. Werner, 1991, M. Deegan, P.J. Knowles, 1992


 Convergence thresholds:  THRVAR = 1.00D-08  THRDEN = 1.00D-12

 CCSD(T)     terms to be evaluated (factor= 1.000)


 Number of core orbitals:           2 (   2 )
 Number of closed-shell orbitals:   7 (   7 )
 Number of external orbitals:      39 (  39 )

 Molecular orbitals read from record     2100.2  Type=RHF/CANONICAL (state 1.1)

 Number of N-1 electron functions:               7
 Number of N-2 electron functions:              28
 Number of singly external CSFs:               273
 Number of doubly external CSFs:             37401
 Total number of CSFs:                       37675

 Length of J-op  integral file:               0.00 MB
 Length of K-op  integral file:               0.19 MB
 Length of 3-ext integral record:             0.00 MB

 Memory could be reduced to 0.96 Mwords without degradation in triples

 Integral transformation finished. Total CPU:   0.02 sec, npass=  1  Memory used:   0.66 MW

 Reference energy:                   -115.04906081

 MP2 singlet pair energy:              -0.21863783
 MP2 triplet pair energy:              -0.11984240
 MP2 correlation energy:               -0.33848024
 MP2 total energy:                   -115.38754105

 SCS-MP2 correlation energy:           -0.33693401   (PS=  1.200000  PT=  0.333333)
 SCS-MP2 total energy:               -115.38599482

 ITER.      SQ.NORM     CORR.ENERGY   TOTAL ENERGY   ENERGY CHANGE        DEN1      VAR(S)    VAR(P)  DIIS     TIME
   1      1.10732202    -0.36127084  -115.41033164    -0.02279060    -0.01410768  0.92D-03  0.17D-02  1  1     0.05
   2      1.11584424    -0.36321248  -115.41227329    -0.00194164    -0.00924816  0.20D-04  0.16D-03  2  2     0.09
   3      1.11772760    -0.36333995  -115.41240076    -0.00012747    -0.00120493  0.96D-05  0.86D-05  3  3     0.13
   4      1.11824385    -0.36333836  -115.41239917     0.00000159    -0.00025543  0.33D-06  0.68D-06  4  4     0.17
   5      1.11834239    -0.36333873  -115.41239954    -0.00000037    -0.00003620  0.99D-07  0.49D-07  5  5     0.20
   6      1.11836148    -0.36333737  -115.41239817     0.00000137    -0.00000437  0.16D-07  0.41D-08  6  6     0.24
   7      1.11836622    -0.36333694  -115.41239775     0.00000042    -0.00000035  0.20D-08  0.71D-09  6  1     0.28
   8      1.11836749    -0.36333704  -115.41239785    -0.00000010     0.00000074  0.26D-09  0.71D-10  6  3     0.32
   9      1.11836855    -0.36333692  -115.41239773     0.00000012    -0.00000038  0.12D-10  0.10D-10  6  2     0.36
  10      1.11836848    -0.36333692  -115.41239773    -0.00000000     0.00000007  0.11D-11  0.87D-12  6  5     0.39
  11      1.11836851    -0.36333692  -115.41239773     0.00000000    -0.00000000  0.19D-12  0.50D-13  6  4     0.43
  12      1.11836850    -0.36333692  -115.41239773    -0.00000000     0.00000001  0.18D-13  0.99D-14  6  1     0.47
  13      1.11836850    -0.36333692  -115.41239773    -0.00000000    -0.00000000  0.23D-14  0.92D-15  6  6     0.51
  14      1.11836850    -0.36333692  -115.41239773     0.00000000    -0.00000000  0.22D-15  0.12D-15  6  3     0.55
  15      1.11836850    -0.36333692  -115.41239773    -0.00000000    -0.00000000  0.24D-16  0.16D-16  6  2     0.59
  16      1.11836850    -0.36333692  -115.41239773    -0.00000000    -0.00000000  0.55D-17  0.16D-17  6  5     0.63
  17      1.11836850    -0.36333692  -115.41239773    -0.00000000    -0.00000000  0.52D-18  0.25D-18  6  4     0.66
  18      1.11836850    -0.36333692  -115.41239773     0.00000000    -0.00000000  0.80D-19  0.41D-19  6  1     0.70
  19      1.11836850    -0.36333692  -115.41239773    -0.00000000    -0.00000000  0.89D-20  0.42D-20  6  6     0.74
  20      1.11836850    -0.36333692  -115.41239773     0.00000000     0.00000000  0.13D-20  0.54D-21  6  3     0.78

 Norm of t1 vector:      0.04174935      S-energy:    -0.00000000      T1 diagnostic:  0.00788988
                                                                       D1 diagnostic:  0.01760447


 Total CPU time for triples:      0.21 sec


 RESULTS
 =======

  Reference energy                   -115.049060809342
  CCSD singlet pair energy             -0.254579782271
  CCSD triplet pair energy             -0.108757139577
  CCSD correlation energy              -0.363336921848

  Triples (T) contribution             -0.007744060470
  Total correlation energy             -0.371080982319

  CCSD total energy                  -115.412397731190
  CCSD[T] energy                     -115.420432969217
  CCSD-T energy                      -115.419991322543
 !CCSD(T) total energy               -115.420141791660

 Timing summary (sec):

 STEP                 CPU(USER)    SYS     CPU(TOT)    WALL
 Transformation          0.02      0.00      0.02      0.03
 CCSD iterations         0.76      0.05      0.81      0.84
 Triples                 0.21      0.01      0.22      0.21

 Program statistics:

 Available memory in ccsd:               999999704
 Min. memory needed in ccsd:                136801
 Max. memory used in ccsd:                  163198
 Max. memory used in cckext:                182024 (20 integral passes)



 **********************************************************************************************************************************
 DATASETS  * FILE   NREC   LENGTH (MB)   RECORD NAMES
              1      20       10.56       500      610      700      900      950      970     1000      129      960     1100   
                                          VAR    BASINP    GEOM    SYMINP    ZMAT    AOBASIS   BASIS     P2S    ABASIS      S 
                                         1400     1410     1200     1210     1080     1600     1650     1300     1700     1380   
                                           T        V       H0       H01     AOSYM     SMH    MOLCAS    ERIS     OPER     JKOP   

              2       3        0.39       700     1000     2100   
                                         GEOM     BASIS     RHF  

 PROGRAMS   *        TOTAL   CCSD(T)       RHF       INT
 CPU TIMES  *         1.30      0.99      0.09      0.18
 REAL TIME  *         1.63 SEC
 DISK USED  *        24.77 MB      
 GA USED    *         0.00 MB       (max)       0.00 MB       (current)
 **********************************************************************************************************************************

        CCSD(T)         RHF-SCF 
   -115.42014179   -115.04906081
 **********************************************************************************************************************************
 Variable memory released
