
 Primary working directories    : /tmp/795519.105.gen4.q
 Secondary working directories  : /tmp/795519.105.gen4.q
 Wavefunction directory         : /home/vulcan/mel64643/wfu/
 Main file repository           : /tmp/795519.105.gen4.q/

 ARCHNAME  : Linux/x86_64
 FC        : /opt/intel/compilers_and_libraries_2016.1.150/linux/bin/intel64/ifort
 FCVERSION : 16.0.1
 BLASLIB   : -mkl
 id        : ccgc

 Nodes     nprocs
 n051         1
 ga_uses_ma=false, calling ma_init with nominal heap.
 GA-space will be limited to   8.0 MW (determined by -G option)

 Using customized tuning parameters: mindgm=10; mindgv=16; mindgc=4; mindgr=1; noblas=0; mincuda=1000; minvec=7
 default implementation of scratch files=df  

 ***,Optimization of min3
 memory,1000,m
 gthresh,energy=1.0d-12,orbital=1.0d-10,oneint=1.0d-16,twoint=1.0d-16,optgrad=1.0d-6,compress=1.0d-13
 geomtyp=xyz
 
  bohr
  geometry = {
  6
  arbitrary comment
  C   -1.3744814715   -0.0243669208    0.0015518793
  O    1.2994595234    0.1185010239    0.0002132417
  H   -2.0773708239    1.9103403782    0.0043580361
  H   -2.1068926172   -0.9742795022    1.6804664203
  H   -2.1075919312   -0.9831255447   -1.6863952465
  H    1.9431531605   -1.5772015545   -0.0002027409
 }
 
 basis=cc-pvdz
 {rhf;maxit,200}
 {ccsd(t);maxit,200}

 Variables initialized (661), CPU time= 0.00 sec
 Commands  initialized (458), CPU time= 0.00 sec, 486 directives.
 Default parameters read. Elapsed time= 0.04 sec

 Checking input...
 Passed
1


                                         ***  PROGRAM SYSTEM MOLPRO  ***
                         Copyright, University College Cardiff Consultants Limited, 2008

                                    Version 2010.1 linked May 16 2016 07:17:05


 **********************************************************************************************************************************
 LABEL *   Optimization of min3                                                          
 Linux-4.4.3/n051(x86_64) 64 bit mpp version                                             DATE: 24-Oct-22          TIME: 15:43:05  
 **********************************************************************************************************************************

 SHA1:             9e8077add272b0f3cad6f7df79ec5211205f459d
 **********************************************************************************************************************************

 THRESHOLDS:

 ZERO    =  1.00D-12  ONEINT  =  1.00D-16  TWOINT  =  1.00D-16  PREFAC  =  1.00D-14  LOCALI  =  1.00D-09  EORDER  =  1.00D-04
 ENERGY  =  1.00D-12  ETEST   =  0.00D+00  EDENS   =  0.00D+00  THRDEDEF=  1.00D-06  GRADIENT=  1.00D-02  STEP    =  1.00D-03
 ORBITAL =  1.00D-10  CIVEC   =  1.00D-05  COEFF   =  1.00D-04  PRINTCI =  5.00D-02  PUNCHCI =  9.90D+01  OPTGRAD =  1.00D-06
 OPTENERG=  1.00D-06  OPTSTEP =  3.00D-04  THRGRAD =  1.00D-10  COMPRESS=  1.00D-13  VARMIN  =  1.00D-07  VARMAX  =  1.00D-03
 THRDOUB =  0.00D+00  THRDIV  =  1.00D-05  THRRED  =  1.00D-07  THRPSP  =  1.00D+00  THRDC   =  1.00D-10  THRCS   =  1.00D-10
 THRNRM  =  1.00D-08  THREQ   =  0.00D+00  THRDE   =  1.00D+00  THRREF  =  1.00D-05  SPARFAC =  1.00D+00  THRDLP  =  1.00D-07
 THRDIA  =  1.00D-10  THRDLS  =  1.00D-07  THRGPS  =  0.00D+00  THRKEX  =  0.00D+00  THRDIS  =  2.00D-01  THRVAR  =  1.00D-10
 THRLOC  =  1.00D-06  THRGAP  =  1.00D-06  THRLOCT = -1.00D+00  THRGAPT = -1.00D+00  THRORB  =  1.00D-06  THRMLTP =  0.00D+00
 THRCPQCI=  1.00D-10  KEXTA   =  0.00D+00  THRCOARS=  0.00D+00  SYMTOL  =  1.00D-06  GRADTOL =  1.00D-06  THROVL  =  1.00D-08
 THRORTH =  1.00D-08  GRID    =  1.00D-06  GRIDMAX =  1.00D-03  DTMAX   =  0.00D+00

 SETTING GEOMTYP        =    XYZ
 ZUNIT=BOHR
 

 Variable memory set to 1000000000 words,  buffer space   230000 words

 SETTING BASIS          =    CC-PVDZ


 Recomputing integrals since basis changed


 Using spherical harmonics

 Library entry C      S cc-pVDZ              selected for orbital group  1
 Library entry C      P cc-pVDZ              selected for orbital group  1
 Library entry C      D cc-pVDZ              selected for orbital group  1
 Library entry O      S cc-pVDZ              selected for orbital group  2
 Library entry O      P cc-pVDZ              selected for orbital group  2
 Library entry O      D cc-pVDZ              selected for orbital group  2
 Library entry H      S cc-pVDZ              selected for orbital group  3
 Library entry H      P cc-pVDZ              selected for orbital group  3

1PROGRAM * SEWARD (Integral evaluation for generally contracted gaussian basis sets)     Author: Roland Lindh, 1990

 Geometry written to block  1 of record 700


 Point group  C1  



 ATOMIC COORDINATES

 NR  ATOM    CHARGE       X              Y              Z

   1  C       6.00   -1.374481471   -0.024366921    0.001551879
   2  O       8.00    1.299459523    0.118501024    0.000213242
   3  H       1.00   -2.077370824    1.910340378    0.004358036
   4  H       1.00   -2.106892617   -0.974279502    1.680466420
   5  H       1.00   -2.107591931   -0.983125545   -1.686395247
   6  H       1.00    1.943153161   -1.577201554   -0.000202741

 Bond lengths in Bohr (Angstrom)

 1-2  2.677755307  1-3  2.058434757  1-4  2.063374429  1-5  2.075050492  2-6  1.813766497
     ( 1.417007080)     ( 1.089276760)     ( 1.091890722)     ( 1.098069428)     ( 0.959803893)

 Bond angles

  1-2-6  107.72852191   2-1-3  106.90798236   2-1-4  112.29784853   2-1-5  112.15041092

  3-1-4  108.08218675   3-1-5  108.34500282   4-1-5  108.89090568

 NUCLEAR CHARGE:                   18
 NUMBER OF PRIMITIVE AOS:          82
 NUMBER OF SYMMETRY AOS:           80
 NUMBER OF CONTRACTIONS:           48   (  48A   )
 NUMBER OF CORE ORBITALS:           2   (   2A   )
 NUMBER OF VALENCE ORBITALS:       12   (  12A   )


 NUCLEAR REPULSION ENERGY   40.36117521


 Eigenvalues of metric

         1 0.965E-02 0.176E-01 0.367E-01 0.375E-01 0.381E-01 0.472E-01 0.480E-01 0.518E-01


 Contracted 2-electron integrals neglected if value below      1.0D-16
 AO integral compression algorithm  1   Integral accuracy      1.0D-16

     6.816 MB (compressed) written to integral file (100.0%)

     Node minimum: 6.816 MB, node maximum: 6.816 MB


 NUMBER OF SORTED TWO-ELECTRON INTEGRALS:     692076.     BUFFER LENGTH:  32768
 NUMBER OF SEGMENTS:   1  SEGMENT LENGTH:     692076      RECORD LENGTH: 524288

 Memory used in sort:       1.25 MW

 SORT1 READ      832256. AND WROTE      682150. INTEGRALS IN      2 RECORDS. CPU TIME:     0.01 SEC, REAL TIME:     0.01 SEC
 SORT2 READ      682150. AND WROTE      692076. INTEGRALS IN     26 RECORDS. CPU TIME:     0.02 SEC, REAL TIME:     0.02 SEC

 FILE SIZES:   FILE 1:     8.4 MBYTE,  FILE 4:     8.4 MBYTE,   TOTAL:     16.8 MBYTE

 OPERATOR DM      FOR CENTER  0  COORDINATES:    0.000000    0.000000    0.000000


 **********************************************************************************************************************************
 DATASETS  * FILE   NREC   LENGTH (MB)   RECORD NAMES
              1      19        8.40       500      610      700      900      950      970     1000      129      960     1100   
                                          VAR    BASINP    GEOM    SYMINP    ZMAT    AOBASIS   BASIS     P2S    ABASIS      S 
                                         1400     1410     1200     1210     1080     1600     1650     1300     1700   
                                           T        V       H0       H01     AOSYM     SMH    MOLCAS    ERIS     OPER   

 PROGRAMS   *        TOTAL       INT
 CPU TIMES  *         0.21      0.17
 REAL TIME  *         1.47 SEC
 DISK USED  *        24.24 MB      
 GA USED    *         0.00 MB       (max)       0.00 MB       (current)
 **********************************************************************************************************************************

1PROGRAM * RHF-SCF (CLOSED SHELL)       Authors: W. Meyer, H.-J. Werner


 NUMBER OF ELECTRONS:       9+    9-    SPACE SYMMETRY=1    SPIN SYMMETRY: Singlet 
 CONVERGENCE THRESHOLDS:    1.00E-10 (Density)    1.00E-13 (Energy)
 MAX. NUMBER OF ITERATIONS:      200
 INTERPOLATION TYPE:            DIIS
 INTERPOLATION STEPS:              2 (START)      1 (STEP)
 LEVEL SHIFTS:                  0.00 (CLOSED)  0.00 (OPEN) 



 Orbital guess generated from atomic densities. Full valence occupancy:   14

 Molecular orbital dump at record        2100.2

 ITERATION    DDIFF          GRAD             ENERGY        2-EL.EN.            DIPOLE MOMENTS         DIIS
    1      0.000D+00      0.000D+00      -115.01437064    164.497311   -0.48394   -0.89893   -0.00003    0
    2      0.000D+00      0.109D-01      -115.04272839    162.270261   -0.30899   -0.53504    0.00190    1
    3      0.205D-01      0.528D-02      -115.04872664    163.297448   -0.39190   -0.60979    0.00224    2
    4      0.637D-02      0.112D-02      -115.04918948    163.140725   -0.38210   -0.59867    0.00254    3
    5      0.204D-02      0.202D-03      -115.04921035    163.147192   -0.38497   -0.59437    0.00265    4
    6      0.432D-03      0.353D-04      -115.04921114    163.147363   -0.38530   -0.59416    0.00268    5
    7      0.928D-04      0.735D-05      -115.04921117    163.146176   -0.38543   -0.59400    0.00268    6
    8      0.150D-04      0.238D-05      -115.04921118    163.146558   -0.38547   -0.59397    0.00268    7
    9      0.507D-05      0.492D-06      -115.04921118    163.146517   -0.38548   -0.59397    0.00268    6
   10      0.142D-05      0.891D-07      -115.04921118    163.146516   -0.38549   -0.59397    0.00268    6
   11      0.238D-06      0.333D-07      -115.04921118    163.146521   -0.38549   -0.59397    0.00268    6
   12      0.608D-07      0.140D-07      -115.04921118    163.146519   -0.38549   -0.59397    0.00268    7
   13      0.260D-07      0.311D-08      -115.04921118    163.146520   -0.38549   -0.59397    0.00268    7
   14      0.771D-08      0.652D-09      -115.04921118    163.146520   -0.38549   -0.59397    0.00268    7
   15      0.165D-08      0.154D-09      -115.04921118    163.146520   -0.38549   -0.59397    0.00268    7
   16      0.342D-09      0.465D-10      -115.04921118    163.146520   -0.38549   -0.59397    0.00268    7
   17      0.888D-10      0.157D-10      -115.04921118    163.146520   -0.38549   -0.59397    0.00268    0

 Final occupancy:   9

 !RHF STATE 1.1 Energy               -115.049211177659
 Nuclear energy                        40.36117521
 One-electron energy                 -236.98364621
 Two-electron energy                   81.57325982
 Virial quotient                       -1.00087749
 !RHF STATE 1.1 Dipole moment          -0.38548691    -0.59396840     0.00268281
 Dipole moment /Debye                  -0.97974582    -1.50961821     0.00681858

 Orbital energies:

         1.1          2.1          3.1          4.1          5.1          6.1          7.1          8.1          9.1         10.1
    -20.549719   -11.274453    -1.350926    -0.921067    -0.683384    -0.614302    -0.585864    -0.496202    -0.442646     0.184599

        11.1
      0.224381


 **********************************************************************************************************************************
 DATASETS  * FILE   NREC   LENGTH (MB)   RECORD NAMES
              1      19        8.40       500      610      700      900      950      970     1000      129      960     1100   
                                          VAR    BASINP    GEOM    SYMINP    ZMAT    AOBASIS   BASIS     P2S    ABASIS      S 
                                         1400     1410     1200     1210     1080     1600     1650     1300     1700   
                                           T        V       H0       H01     AOSYM     SMH    MOLCAS    ERIS     OPER   

              2       3        0.39       700     1000     2100   
                                         GEOM     BASIS     RHF  

 PROGRAMS   *        TOTAL       RHF       INT
 CPU TIMES  *         0.29      0.08      0.17
 REAL TIME  *         1.59 SEC
 DISK USED  *        24.24 MB      
 GA USED    *         0.00 MB       (max)       0.00 MB       (current)
 **********************************************************************************************************************************


1PROGRAM * CCSD (Closed-shell coupled cluster)     Authors: C. Hampel, H.-J. Werner, 1991, M. Deegan, P.J. Knowles, 1992


 Convergence thresholds:  THRVAR = 1.00D-08  THRDEN = 1.00D-12

 CCSD(T)     terms to be evaluated (factor= 1.000)


 Number of core orbitals:           2 (   2 )
 Number of closed-shell orbitals:   7 (   7 )
 Number of external orbitals:      39 (  39 )

 Molecular orbitals read from record     2100.2  Type=RHF/CANONICAL (state 1.1)

 Number of N-1 electron functions:               7
 Number of N-2 electron functions:              28
 Number of singly external CSFs:               273
 Number of doubly external CSFs:             37401
 Total number of CSFs:                       37675

 Length of J-op  integral file:               0.00 MB
 Length of K-op  integral file:               0.19 MB
 Length of 3-ext integral record:             0.00 MB

 Memory could be reduced to 0.96 Mwords without degradation in triples

 Integral transformation finished. Total CPU:   0.01 sec, npass=  1  Memory used:   0.66 MW

 Reference energy:                   -115.04921118

 MP2 singlet pair energy:              -0.21855537
 MP2 triplet pair energy:              -0.11980673
 MP2 correlation energy:               -0.33836210
 MP2 total energy:                   -115.38757328

 SCS-MP2 correlation energy:           -0.33681285   (PS=  1.200000  PT=  0.333333)
 SCS-MP2 total energy:               -115.38602403

 ITER.      SQ.NORM     CORR.ENERGY   TOTAL ENERGY   ENERGY CHANGE        DEN1      VAR(S)    VAR(P)  DIIS     TIME
   1      1.10723080    -0.36117177  -115.41038295    -0.02280967    -0.01414573  0.91D-03  0.17D-02  1  1     0.06
   2      1.11574090    -0.36311543  -115.41232661    -0.00194366    -0.00923927  0.20D-04  0.16D-03  2  2     0.09
   3      1.11761238    -0.36324209  -115.41245327    -0.00012666    -0.00119874  0.94D-05  0.85D-05  3  3     0.13
   4      1.11812436    -0.36324085  -115.41245203     0.00000124    -0.00025361  0.33D-06  0.67D-06  4  4     0.17
   5      1.11822172    -0.36324127  -115.41245244    -0.00000042    -0.00003578  0.99D-07  0.49D-07  5  5     0.21
   6      1.11824064    -0.36323993  -115.41245110     0.00000134    -0.00000434  0.16D-07  0.41D-08  6  6     0.24
   7      1.11824538    -0.36323951  -115.41245069     0.00000042    -0.00000035  0.20D-08  0.71D-09  6  1     0.28
   8      1.11824664    -0.36323961  -115.41245079    -0.00000010     0.00000075  0.25D-09  0.72D-10  6  3     0.32
   9      1.11824770    -0.36323949  -115.41245067     0.00000012    -0.00000038  0.13D-10  0.10D-10  6  2     0.36
  10      1.11824775    -0.36323949  -115.41245067     0.00000000     0.00000000  0.13D-11  0.12D-11  6  4     0.40
  11      1.11824771    -0.36323949  -115.41245067     0.00000000     0.00000003  0.33D-12  0.84D-13  6  5     0.43
  12      1.11824766    -0.36323949  -115.41245067    -0.00000000     0.00000003  0.33D-13  0.13D-13  6  6     0.47
  13      1.11824764    -0.36323949  -115.41245067    -0.00000000     0.00000001  0.39D-14  0.16D-14  6  3     0.51
  14      1.11824764    -0.36323949  -115.41245067    -0.00000000     0.00000000  0.31D-15  0.15D-15  6  1     0.54
  15      1.11824764    -0.36323949  -115.41245067     0.00000000    -0.00000000  0.45D-16  0.33D-16  6  2     0.58
  16      1.11824764    -0.36323949  -115.41245067     0.00000000    -0.00000000  0.62D-17  0.23D-17  6  4     0.62
  17      1.11824764    -0.36323949  -115.41245067    -0.00000000     0.00000000  0.10D-17  0.29D-18  6  5     0.66
  18      1.11824764    -0.36323949  -115.41245067    -0.00000000    -0.00000000  0.28D-18  0.58D-19  6  6     0.70
  19      1.11824764    -0.36323949  -115.41245067     0.00000000    -0.00000000  0.39D-19  0.91D-20  6  3     0.74

 Norm of t1 vector:      0.04152286      S-energy:    -0.00000000      T1 diagnostic:  0.00784708
                                                                       D1 diagnostic:  0.01735924


 Total CPU time for triples:      0.20 sec


 RESULTS
 =======

  Reference energy                   -115.049211177659
  CCSD singlet pair energy             -0.254486905604
  CCSD triplet pair energy             -0.108752587255
  CCSD correlation energy              -0.363239492861

  Triples (T) contribution             -0.007720603509
  Total correlation energy             -0.370960096370

  CCSD total energy                  -115.412450670520
  CCSD[T] energy                     -115.420459484808
  CCSD-T energy                      -115.420022194235
 !CCSD(T) total energy               -115.420171274030

 Timing summary (sec):

 STEP                 CPU(USER)    SYS     CPU(TOT)    WALL
 Transformation          0.01      0.01      0.02      0.02
 CCSD iterations         0.73      0.05      0.78      0.80
 Triples                 0.20      0.00      0.20      0.22

 Program statistics:

 Available memory in ccsd:               999999704
 Min. memory needed in ccsd:                136801
 Max. memory used in ccsd:                  163198
 Max. memory used in cckext:                182024 (19 integral passes)



 **********************************************************************************************************************************
 DATASETS  * FILE   NREC   LENGTH (MB)   RECORD NAMES
              1      20       10.94       500      610      700      900      950      970     1000      129      960     1100   
                                          VAR    BASINP    GEOM    SYMINP    ZMAT    AOBASIS   BASIS     P2S    ABASIS      S 
                                         1400     1410     1200     1210     1080     1600     1650     1300     1700     1380   
                                           T        V       H0       H01     AOSYM     SMH    MOLCAS    ERIS     OPER     JKOP   

              2       3        0.39       700     1000     2100   
                                         GEOM     BASIS     RHF  

 PROGRAMS   *        TOTAL   CCSD(T)       RHF       INT
 CPU TIMES  *         1.24      0.95      0.08      0.17
 REAL TIME  *         4.63 SEC
 DISK USED  *        25.67 MB      
 GA USED    *         0.00 MB       (max)       0.00 MB       (current)
 **********************************************************************************************************************************

        CCSD(T)         RHF-SCF 
   -115.42017127   -115.04921118
 **********************************************************************************************************************************
 Variable memory released
