
 Working directory              : /scratch/mel64643/tmp/40073458/
 Global scratch directory       : /scratch/mel64643/tmp/40073458/
 Wavefunction directory         : /home/mel64643/wfu/
 Main file repository           : /scratch/mel64643/tmp/40073458/

 id        : ccgc

 Nodes     nprocs
 a1-8         3
 Distribution of processes:   nprocs(total)=    4   nprocs(compute)=    3   nprocs(helper)=    1
 GA implementation: MPI file
 GA implementation (serial work in mppx): MPI file

 Using customized tuning parameters: mindgm=1; mindgv=20; mindgc=4; mindgr=1; noblas=0; minvec=7
 default implementation of scratch files=sf  


 Variables initialized (1015), CPU time= 0.00 sec
 ***,Optimization of min3
 memory,1000,m
 gthresh,energy=1.0d-12,orbital=1.0d-10,oneint=1.0d-16,twoint=1.0d-16,optgrad=1.0d-6,compress=1.0d-13
 geomtyp=xyz
 
  bohr
  geometry = {
  6
  arbitrary comment
  C   -1.3752353370   -0.0215859316    0.0017537220
  O    1.3071734823    0.1208134573   -0.0034671040
  H   -2.0757715164    1.8976785437    0.0034978685
  H   -2.1240530427   -0.9713751148    1.6936717073
  H   -2.0967402966   -0.9794951382   -1.6867022383
  H    1.9409025505   -1.5761679364   -0.0087623656
 }
 
 basis=cc-pvdz
 {rhf;maxit,200}
 {ccsd(t);maxit,200}
 Commands initialized (818), CPU time= 0.01 sec, 672 directives.
 Default parameters read. Elapsed time= 0.10 sec

 Checking input...
 Passed
1


                                         ***  PROGRAM SYSTEM MOLPRO  ***
                                       Copyright, TTI GmbH Stuttgart, 2015
                                    Version 2022.1 linked Mar  4 2022 00:40:14


 **********************************************************************************************************************************
 LABEL *   Optimization of min3                                                          
  64 bit mpp version                                                                     DATE: 07-Aug-25          TIME: 21:27:36  
 **********************************************************************************************************************************

 SHA1:             31073afc4d8441e10870424e0d77336a33bc4286
 **********************************************************************************************************************************

 Memory per process:      1000 MW
 Total memory per node:   3000 MW

 GA preallocation disabled
 GA check disabled

 Variable memory set to 1000.0 MW


 THRESHOLDS:

 ZERO    =  1.00D-12  ONEINT  =  1.00D-16  TWOINT  =  1.00D-16  PREFAC  =  1.00D-14  XXXXXX  =  1.00D-09  EORDER  =  1.00D-04
 ENERGY  =  1.00D-12  ETEST   =  0.00D+00  EDENS   =  0.00D+00  THRDEDEF=  1.00D-06  GRADIENT=  1.00D-05  STEP    =  1.00D-03
 ORBITAL =  1.00D-10  CIVEC   =  1.00D-05  COEFF   =  1.00D-04  PRINTCI =  5.00D-02  PUNCHCI =  9.90D+01  OPTGRAD =  1.00D-06
 OPTENERG=  1.00D-06  OPTSTEP =  3.00D-04  THRGRAD =  1.00D-10  COMPRESS=  1.00D-13  VARMIN  =  1.00D-07  VARMAX  =  1.00D-03
 THRDOUB =  0.00D+00  THRDIV  =  1.00D-05  THRRED  =  1.00D-07  THRPSP  =  1.00D+00  THRDC   =  1.00D-10  THRCS   =  1.00D-10
 THRNRM  =  1.00D-08  THREQ   =  0.00D+00  THRDE   =  1.00D+00  THRREF  =  1.00D-05  SPARFAC =  1.00D+00  THRDLP  =  1.00D-07
 THRDIA  =  1.00D-10  THRDLS  =  1.00D-07  THRGPS  =  0.00D+00  THRKEX  =  0.00D+00  THRDIS  =  2.00D-01  THRVAR  =  1.00D-10
 THRLOC  =  1.00D-06  THRGAP  =  1.00D-06  THRLOCT = -1.00D+00  THRGAPT = -1.00D+00  THRORB  =  1.00D-06  THRMLTP =  0.00D+00
 THRCPQCI=  1.00D-10  KEXTA   =  0.00D+00  THRCOARS=  0.00D+00  SYMTOL  =  1.00D-06  GRADTOL =  1.00D-06  THROVL  =  1.00D-08
 THRORTH =  1.00D-08  THRDLOVL= -1.00D+00  GRID    =  1.00D-06  GRIDMAX =  1.00D-03  DTMAX   =  0.00D+00  THROCCDE=  1.00D-01
 THROCCDE=  1.00D-01  THRPRINT=  2.50D-01

 SETTING GEOMTYP        =    XYZ
 ZUNIT=BOHR

 SETTING BASIS          =    CC-PVDZ


 Recomputing integrals since basis changed


 Using spherical harmonics

 Library entry C      S cc-pVDZ              selected for orbital group  1
 Library entry C      P cc-pVDZ              selected for orbital group  1
 Library entry C      D cc-pVDZ              selected for orbital group  1
 Library entry O      S cc-pVDZ              selected for orbital group  2
 Library entry O      P cc-pVDZ              selected for orbital group  2
 Library entry O      D cc-pVDZ              selected for orbital group  2
 Library entry H      S cc-pVDZ              selected for orbital group  3
 Library entry H      P cc-pVDZ              selected for orbital group  3


 PROGRAM * SEWARD (Integral evaluation for generally contracted gaussian basis sets)     Author: Roland Lindh, 1990

 Geometry written to block  1 of record 700


 Point group  C1  



 ATOMIC COORDINATES

 NR  ATOM    CHARGE       X              Y              Z

   1  C       6.00   -1.375235337   -0.021585932    0.001753722
   2  O       8.00    1.307173482    0.120813457   -0.003467104
   3  H       1.00   -2.075771516    1.897678544    0.003497869
   4  H       1.00   -2.124053043   -0.971375115    1.693671707
   5  H       1.00   -2.096740297   -0.979495138   -1.686702238
   6  H       1.00    1.940902550   -1.576167936   -0.008762366

 Bond lengths in Bohr (Angstrom)

 1-2  2.686190968  1-3  2.043117742  1-4  2.079762948  1-5  2.071000479  2-6  1.811459749
     ( 1.421471044)     ( 1.081171348)     ( 1.100563156)     ( 1.095926257)     ( 0.958583218)

 Bond angles

  1-2-6  107.43934720   2-1-3  107.01349105   2-1-4  112.66442491   2-1-5  111.76677486

  3-1-4  107.74918218   3-1-5  108.40543166   4-1-5  109.06131767

 NUCLEAR CHARGE:                   18
 NUMBER OF PRIMITIVE AOS:          82
 NUMBER OF SYMMETRY AOS:           80
 NUMBER OF CONTRACTIONS:           48   (   48A   )
 NUMBER OF INNER CORE ORBITALS:     0   (    0A   )
 NUMBER OF OUTER CORE ORBITALS:     2   (    2A   )
 NUMBER OF VALENCE ORBITALS:       12   (   12A   )


 NUCLEAR REPULSION ENERGY   40.30474519

 Eigenvalues of metric

         1 0.966E-02 0.176E-01 0.364E-01 0.378E-01 0.379E-01 0.475E-01 0.482E-01 0.511E-01


 Contracted 2-electron integrals neglected if value below      1.0D-16
 AO integral compression algorithm  1   Integral accuracy      1.0D-16

     7.340 MB (compressed) written to integral file (100.0%)

     Node minimum: 2.359 MB, node maximum: 2.621 MB


 NUMBER OF SORTED TWO-ELECTRON INTEGRALS:     231084.     BUFFER LENGTH:  32768
 NUMBER OF SEGMENTS:   1  SEGMENT LENGTH:     231084      RECORD LENGTH: 524288

 Memory used in sort:       0.79 MW

 SORT1 READ      832256. AND WROTE      227683. INTEGRALS IN      1 RECORDS. CPU TIME:     0.01 SEC, REAL TIME:     0.02 SEC
 SORT2 READ      682150. AND WROTE      692076. INTEGRALS IN     27 RECORDS. CPU TIME:     0.01 SEC, REAL TIME:     0.02 SEC

 Node minimum:      230300.  Node maximum:      231084. integrals

 OPERATOR DM      FOR CENTER  0  COORDINATES:    0.000000    0.000000    0.000000


 **********************************************************************************************************************************
 DATASETS  * FILE   NREC   LENGTH (MB)   RECORD NAMES
              1      18       28.73       500      610      700      900      950      970     1000      129      960     1100   
                                          VAR    BASINP    GEOM    SYMINP    ZMAT    AOBASIS   BASIS     P2S    ABASIS      S 
                                         1400     1410     1200     1210     1080     1600     1650     1700   
                                           T        V       H0       H01     AOSYM     SMH    MOLCAS    OPER   

 PROGRAMS   *        TOTAL       INT
 CPU TIMES  *         0.50      0.34
 REAL TIME  *         1.83 SEC
 DISK USED  *        29.07 MB (local),      104.71 MB (total)
 GA USED    *         0.00 MB       (max)       0.00 MB       (current)
 **********************************************************************************************************************************


 Program * Restricted Hartree-Fock

 Orbital guess generated from atomic densities. Full valence occupancy:   14

 Initial occupancy:   9

 NELEC=   18   SYM=1   MS2= 0   THRE=1.0D-12   THRD=1.0D-10   THRG=1.0D-10  HFMA2=F  DIIS_START=2   DIIS_MAX=10   DIIS_INCORE=F

 Level shifts:    0.00 (CLOSED)    0.00 (OPEN)    0.30 (GAP_MIN)

 ITER           ETOT              DE          GRAD        DDIFF     DIIS  NEXP   TIME(IT)  TIME(TOT)  DIAG
   1     -115.01415042    -115.01415042     0.00D+00     0.16D+00     0     0       0.00      0.00    start
   2     -115.04251792      -0.02836750     0.10D-01     0.21D-01     1     0       0.01      0.01    diag
   3     -115.04854939      -0.00603147     0.48D-02     0.64D-02     2     0       0.00      0.01    diag
   4     -115.04901231      -0.00046292     0.10D-02     0.20D-02     3     0       0.00      0.01    diag
   5     -115.04903323      -0.00002091     0.18D-03     0.43D-03     4     0       0.00      0.01    diag
   6     -115.04903401      -0.00000078     0.32D-04     0.93D-04     5     0       0.02      0.03    diag
   7     -115.04903404      -0.00000003     0.67D-05     0.15D-04     6     0       0.00      0.03    diag
   8     -115.04903404      -0.00000000     0.22D-05     0.50D-05     7     0       0.00      0.03    fixocc
   9     -115.04903404      -0.00000000     0.44D-06     0.14D-05     8     0       0.00      0.03    diag
  10     -115.04903404      -0.00000000     0.71D-07     0.23D-06     9     0       0.01      0.04    diag/orth
  11     -115.04903404      -0.00000000     0.17D-07     0.46D-07     9     0       0.00      0.04    diag
  12     -115.04903404       0.00000000     0.43D-08     0.14D-07     9     0       0.00      0.04    diag
  13     -115.04903404      -0.00000000     0.69D-09     0.19D-08     9     0       0.00      0.04    diag
  14     -115.04903404      -0.00000000     0.16D-09     0.41D-09     9     0       0.01      0.05    diag
  15     -115.04903404       0.00000000     0.65D-10     0.12D-09     9     0       0.00      0.05    diag
  16     -115.04903404       0.00000000     0.18D-10     0.41D-10     9     0       0.00      0.05    diag
  17     -115.04903404       0.00000000     0.43D-11     0.69D-11     0     0       0.00      0.05    diag

 Final occupancy:   9

 !RHF STATE 1.1 Energy               -115.049034040950
  RHF One-electron energy            -236.871910570514
  RHF Two-electron energy              81.518131339567
  RHF Kinetic energy                  114.944015545868
  RHF Nuclear energy                   40.304745189997
  RHF Virial quotient                  -1.000913649089

 !RHF STATE 1.1 Dipole moment          -0.39456542    -0.59041189    -0.00167356
 Dipole moment /Debye                  -1.00288526    -1.50067735    -0.00425376

 Orbital energies:

           1.1          2.1          3.1          4.1          5.1          6.1          7.1          8.1          9.1         10.1
    -20.549863   -11.274733    -1.349838    -0.921649    -0.682318    -0.613186    -0.585994    -0.497294    -0.442949     0.184648

          11.1
      0.224487


 HOMO      9.1    -0.442949 =     -12.0533eV
 LUMO     10.1     0.184648 =       5.0245eV
 LUMO-HOMO         0.627597 =      17.0778eV

 Orbitals saved in record  2100.2


 **********************************************************************************************************************************
 DATASETS  * FILE   NREC   LENGTH (MB)   RECORD NAMES
              1      18       28.73       500      610      700      900      950      970     1000      129      960     1100   
                                          VAR    BASINP    GEOM    SYMINP    ZMAT    AOBASIS   BASIS     P2S    ABASIS      S 
                                         1400     1410     1200     1210     1080     1600     1650     1700   
                                           T        V       H0       H01     AOSYM     SMH    MOLCAS    OPER   

              2       4        0.47       700     1000      520     2100   
                                         GEOM     BASIS   MCVARS     RHF  

 PROGRAMS   *        TOTAL   RHF-SCF       INT
 CPU TIMES  *         0.55      0.05      0.34
 REAL TIME  *         2.13 SEC
 DISK USED  *        29.40 MB (local),      105.70 MB (total)
 GA USED    *         0.00 MB       (max)       0.00 MB       (current)
 **********************************************************************************************************************************


 PROGRAM * CCSD (Closed-shell coupled cluster)     Authors: C. Hampel, H.-J. Werner, 1991, M. Deegan, P.J. Knowles, 1992


 Convergence thresholds:  THRVAR = 1.00D-08  THRDEN = 1.00D-12

 CCSD(T)     terms to be evaluated (factor= 1.000)


 Number of core orbitals:           2 (   2 )
 Number of closed-shell orbitals:   7 (   7 )
 Number of external orbitals:      39 (  39 )

 Molecular orbitals read from record     2100.2  Type=RHF/CANONICAL  

 Number of N-1 electron functions:               7
 Number of N-2 electron functions:              28
 Number of singly external CSFs:               273
 Number of doubly external CSFs:             37401
 Total number of CSFs:                       37675

 Length of J-op  integral file:               0.00 MB
 Length of K-op  integral file:               0.16 MB
 Length of 3-ext integral record:             0.00 MB

 Memory could be reduced to 0.73 Mwords without degradation in triples

 Integral transformation finished. Total CPU:   0.02 sec, npass=  1  Memory used:   0.66 MW

 Reference energy:                   -115.04903404

 MP2 singlet pair energy:              -0.21862866
 MP2 triplet pair energy:              -0.11982725
 MP2 correlation energy:               -0.33845591
 MP2 total energy:                   -115.38748995

 SCS-MP2 correlation energy:           -0.33691357   (PS=  1.200000  PT=  0.333333)
 SCS-MP2 total energy:               -115.38594761

 ITER.      SQ.NORM     CORR.ENERGY   TOTAL ENERGY   ENERGY CHANGE        DEN1      VAR(S)    VAR(P)  DIIS     TIME  TIME/IT
   1      1.10731939    -0.36125541  -115.41028945    -0.02279950    -0.01411868  0.91D-03  0.17D-02  1  1     0.05     0.04
   2      1.11584499    -0.36319966  -115.41223370    -0.00194425    -0.00924958  0.20D-04  0.16D-03  2  2     0.07     0.05
   3      1.11772715    -0.36332701  -115.41236105    -0.00012735    -0.00120420  0.95D-05  0.86D-05  3  3     0.09     0.05
   4      1.11824303    -0.36332556  -115.41235960     0.00000146    -0.00025528  0.34D-06  0.68D-06  4  4     0.11     0.05
   5      1.11834156    -0.36332594  -115.41235998    -0.00000038    -0.00003619  0.10D-06  0.49D-07  5  5     0.13     0.05
   6      1.11836076    -0.36332458  -115.41235862     0.00000136    -0.00000439  0.16D-07  0.41D-08  6  6     0.15     0.04
   7      1.11836554    -0.36332416  -115.41235820     0.00000042    -0.00000035  0.20D-08  0.73D-09  6  1     0.17     0.04
   8      1.11836682    -0.36332426  -115.41235830    -0.00000010     0.00000075  0.26D-09  0.73D-10  6  3     0.19     0.04
   9      1.11836789    -0.36332413  -115.41235818     0.00000012    -0.00000038  0.13D-10  0.10D-10  6  2     0.21     0.04
  10      1.11836781    -0.36332414  -115.41235818    -0.00000000     0.00000007  0.11D-11  0.88D-12  6  5     0.23     0.04
  11      1.11836784    -0.36332413  -115.41235818     0.00000000    -0.00000000  0.19D-12  0.50D-13  6  4     0.25     0.04
  12      1.11836783    -0.36332414  -115.41235818    -0.00000000     0.00000001  0.19D-13  0.10D-13  6  1     0.27     0.04
  13      1.11836783    -0.36332414  -115.41235818    -0.00000000    -0.00000000  0.24D-14  0.95D-15  6  6     0.29     0.04
  14      1.11836783    -0.36332414  -115.41235818     0.00000000    -0.00000000  0.23D-15  0.13D-15  6  3     0.31     0.04
  15      1.11836783    -0.36332414  -115.41235818    -0.00000000    -0.00000000  0.28D-16  0.17D-16  6  2     0.33     0.04
  16      1.11836783    -0.36332414  -115.41235818    -0.00000000    -0.00000000  0.64D-17  0.17D-17  6  5     0.35     0.04
  17      1.11836783    -0.36332414  -115.41235818    -0.00000000    -0.00000000  0.73D-18  0.28D-18  6  4     0.37     0.04
  18      1.11836783    -0.36332414  -115.41235818     0.00000000    -0.00000000  0.13D-18  0.51D-19  6  1     0.39     0.04
  19      1.11836783    -0.36332414  -115.41235818    -0.00000000    -0.00000000  0.20D-19  0.56D-20  6  6     0.41     0.04
  20      1.11836783    -0.36332414  -115.41235818     0.00000000     0.00000000  0.38D-20  0.97D-21  6  3     0.44     0.04

 Norm of t1 vector:      0.04169813      S-energy:    -0.00000000      T1 diagnostic:  0.00788021
                                                                       D1 diagnostic:  0.01752557
                                                                       D2 diagnostic:  0.13413145 (internal)


 Total CPU time for triples:      0.08 sec


 RESULTS
 =======

  Reference energy                   -115.049034040950
  CCSD singlet pair energy             -0.254577714100
  CCSD triplet pair energy             -0.108746423064
  CCSD correlation energy              -0.363324137164

  Triples (T) contribution             -0.007738598784
  Total correlation energy             -0.371062735948

  CCSD total energy                  -115.412358178114
  CCSD[T] energy                     -115.420387134575
  CCSD-T energy                      -115.419946642582
 !CCSD(T) total energy               -115.420096776898

 Timing summary (sec):

 STEP                 CPU(USER)    SYS     CPU(TOT)    WALL
 Transformation          0.02      0.01      0.03      0.04
 CCSD iterations         0.42      0.07      0.49      1.03
 Triples                 0.08      0.00      0.08      0.09

 Program statistics:

 Available memory in ccsd:               999999795
 Min. memory needed in ccsd:                136177
 Max. memory used in ccsd:                  162910
 Max. memory used in cckext:                178997 (20 integral passes)



 **********************************************************************************************************************************
 DATASETS  * FILE   NREC   LENGTH (MB)   RECORD NAMES
              1      19       31.13       500      610      700      900      950      970     1000      129      960     1100   
                                          VAR    BASINP    GEOM    SYMINP    ZMAT    AOBASIS   BASIS     P2S    ABASIS      S 
                                         1400     1410     1200     1210     1080     1600     1650     1700     1380   
                                           T        V       H0       H01     AOSYM     SMH    MOLCAS    OPER     JKOP   

              2       4        0.47       700     1000      520     2100   
                                         GEOM     BASIS   MCVARS     RHF  

 PROGRAMS   *        TOTAL   CCSD(T)   RHF-SCF       INT
 CPU TIMES  *         1.11      0.55      0.05      0.34
 REAL TIME  *         3.35 SEC
 DISK USED  *        35.56 MB (local),      116.35 MB (total)
 SF USED    *         5.97 MB
 GA USED    *         0.00 MB       (max)       0.00 MB       (current)
 **********************************************************************************************************************************

 CCSD(T)/cc-pVDZ energy=   -115.420096776898

         CCSD(T)         RHF-SCF
   -115.42009678   -115.04903404
 **********************************************************************************************************************************
 Molpro calculation terminated
