
    -----------------------------------------------------------------------
          Psi4: An Open-Source Ab Initio Electronic Structure Package
                               Psi4 1.4a2.dev629 

                         Git: Rev {master} 2938fc2 dirty


    D. G. A. Smith, L. A. Burns, A. C. Simmonett, R. M. Parrish,
    M. C. Schieber, R. Galvelis, P. Kraus, H. Kruse, R. Di Remigio,
    A. Alenaizan, A. M. James, S. Lehtola, J. P. Misiewicz, M. Scheurer,
    R. A. Shaw, J. B. Schriber, Y. Xie, Z. L. Glick, D. A. Sirianni,
    J. S. O'Brien, J. M. Waldrop, A. Kumar, E. G. Hohenstein,
    B. P. Pritchard, B. R. Brooks, H. F. Schaefer III, A. Yu. Sokolov,
    K. Patkowski, A. E. DePrince III, U. Bozkaya, R. A. King,
    F. A. Evangelista, J. M. Turney, T. D. Crawford, C. D. Sherrill,
    J. Chem. Phys. 152(18) 184108 (2020). https://doi.org/10.1063/5.0006002

                            Additional Code Authors
    E. T. Seidl, C. L. Janssen, E. F. Valeev, M. L. Leininger,
    J. F. Gonthier, R. M. Richard, H. R. McAlexander, M. Saitow, X. Wang,
    P. Verma, and M. H. Lechner

             Previous Authors, Complete List of Code Contributors,
                       and Citations for Specific Modules
    https://github.com/psi4/psi4/blob/master/codemeta.json
    https://github.com/psi4/psi4/graphs/contributors
    http://psicode.org/psi4manual/master/introduction.html#citing-psifour

    -----------------------------------------------------------------------


    Psi4 started on: Saturday, 19 September 2020 05:49PM

    Process ID: 18491
    Host:       n006
    PSIDATADIR: /opt/psi/4/master/share/psi4
    Memory:     500.0 MiB
    Threads:    1
    
  ==> Input File <==

--------------------------------------------------------------------------
# o-Benzyne preliminary computations

memory 14 gb

molecule {
  0 1
  C   -1.3709378998   -0.0245352893    0.0008292912
  O    1.3018483254    0.1205456829    0.0033464441
  H   -2.0719867646    1.9029386135   -0.0021388235
  H   -2.1051806383   -0.9738522716    1.6775558425
  H   -2.1017111749   -0.9774767935   -1.6753146507
  H    1.9411039122   -1.5727584019   -0.0043710937
  units bohr
}

set {
  basis=cc-pVTZ
  reference rhf
  e_convergence 10 
  d_convergence 10
  r_convergence 8
  maxiter 300
}

energy('ccsd(t)')
--------------------------------------------------------------------------

  Memory set to  13.039 GiB by Python driver.

Scratch directory: /tmp/

*** tstart() called on n006
*** at Sat Sep 19 17:50:00 2020

   => Loading Basis Set <=

    Name: CC-PVTZ
    Role: ORBITAL
    Keyword: BASIS
    atoms 1   entry C          line   186 file /opt/psi/4/master/share/psi4/basis/cc-pvtz.gbs 
    atoms 2   entry O          line   262 file /opt/psi/4/master/share/psi4/basis/cc-pvtz.gbs 
    atoms 3-6 entry H          line    23 file /opt/psi/4/master/share/psi4/basis/cc-pvtz.gbs 


         ---------------------------------------------------------
                                   SCF
               by Justin Turney, Rob Parrish, Andy Simmonett
                          and Daniel G. A. Smith
                              RHF Reference
                        1 Threads,  13351 MiB Core
         ---------------------------------------------------------

  ==> Geometry <==

    Molecular point group: c1
    Full point group: C1

    Geometry (in Bohr), charge = 0, multiplicity = 1:

       Center              X                  Y                   Z               Mass       
    ------------   -----------------  -----------------  -----------------  -----------------
         C           -1.370937279141    -0.024530919087    -0.001018428058    12.000000000000
         O            1.301848946059     0.120550053113     0.001498724842    15.994914619570
         H           -2.071986143941     1.902942983713    -0.003986542758     1.007825032230
         H           -2.105180017641    -0.973847901387     1.675708123242     1.007825032230
         H           -2.101710554241    -0.977472423287    -1.677162369958     1.007825032230
         H            1.941104532859    -1.572754031687    -0.006218812958     1.007825032230

  Running in c1 symmetry.

  Rotational constants: A =      4.31052  B =      0.83184  C =      0.80261 [cm^-1]
  Rotational constants: A = 129226.10857  B =  24937.98069  C =  24061.54472 [MHz]
  Nuclear repulsion =   40.424655767418166

  Charge       = 0
  Multiplicity = 1
  Electrons    = 18
  Nalpha       = 9
  Nbeta        = 9

  ==> Algorithm <==

  SCF Algorithm Type is PK.
  DIIS enabled.
  MOM disabled.
  Fractional occupation disabled.
  Guess Type is SAD.
  Energy threshold   = 1.00e-10
  Density threshold  = 1.00e-10
  Integral threshold = 0.00e+00

  ==> Primary Basis <==

  Basis Set: CC-PVTZ
    Blend: CC-PVTZ
    Number of shells: 44
    Number of basis function: 116
    Number of Cartesian functions: 130
    Spherical Harmonics?: true
    Max angular momentum: 3

  ==> Integral Setup <==

  Using in-core PK algorithm.
   Calculation information:
      Number of atoms:                   6
      Number of AO shells:              44
      Number of primitives:             84
      Number of atomic orbitals:       130
      Number of basis functions:       116

      Integral cutoff                 1.00e-12
      Number of threads:                 1

  Performing in-core PK
  Using 46056582 doubles for integral storage.
  We computed 490499 shell quartets total.
  Whereas there are 490545 unique shell quartets.

  ==> DiskJK: Disk-Based J/K Matrices <==

    J tasked:                  Yes
    K tasked:                  Yes
    wK tasked:                  No
    Memory [MiB]:            10013
    Schwarz Cutoff:          1E-12

    OpenMP threads:              1

  Minimum eigenvalue in the overlap matrix is 1.8301920254E-03.
  Reciprocal condition number of the overlap matrix is 2.7593093145E-04.
    Using symmetric orthogonalization.

  ==> Pre-Iterations <==

  SCF Guess: Superposition of Atomic Densities via on-the-fly atomic UHF (no occupation information).

   -------------------------
    Irrep   Nso     Nmo    
   -------------------------
     A        116     116 
   -------------------------
    Total     116     116
   -------------------------

  ==> Iterations <==

                        Total Energy        Delta E     RMS |[F,P]|

   @RHF iter SAD:  -114.42810206100262   -1.14428e+02   0.00000e+00 
   @RHF iter   1:  -115.01461639468504   -5.86514e-01   3.41859e-03 DIIS
   @RHF iter   2:  -115.07169819555864   -5.70818e-02   1.94991e-03 DIIS
   @RHF iter   3:  -115.08845221642144   -1.67540e-02   3.01105e-04 DIIS
   @RHF iter   4:  -115.08933440031652   -8.82184e-04   8.77555e-05 DIIS
   @RHF iter   5:  -115.08940759232669   -7.31920e-05   2.13405e-05 DIIS
   @RHF iter   6:  -115.08941241076559   -4.81844e-06   4.71527e-06 DIIS
   @RHF iter   7:  -115.08941277511579   -3.64350e-07   1.09358e-06 DIIS
   @RHF iter   8:  -115.08941279648440   -2.13686e-08   2.26172e-07 DIIS
   @RHF iter   9:  -115.08941279738923   -9.04834e-10   4.19919e-08 DIIS
   @RHF iter  10:  -115.08941279741838   -2.91465e-11   1.07548e-08 DIIS
   @RHF iter  11:  -115.08941279742075   -2.37321e-12   2.18866e-09 DIIS
   @RHF iter  12:  -115.08941279742085   -9.94760e-14   3.91100e-10 DIIS
   @RHF iter  13:  -115.08941279742029    5.54223e-13   7.20951e-11 DIIS
  Energy and wave function converged.


  ==> Post-Iterations <==

    Orbital Energies [Eh]
    ---------------------

    Doubly Occupied:                                                      

       1A    -20.552184     2A    -11.267948     3A     -1.355806  
       4A     -0.924263     5A     -0.689362     6A     -0.618996  
       7A     -0.591444     8A     -0.502002     9A     -0.449008  

    Virtual:                                                              

      10A      0.138591    11A      0.178903    12A      0.220549  
      13A      0.224202    14A      0.291043    15A      0.386455  
      16A      0.404425    17A      0.546361    18A      0.584668  
      19A      0.624346    20A      0.625613    21A      0.639797  
      22A      0.690804    23A      0.704912    24A      0.722035  
      25A      0.833186    26A      0.865438    27A      0.872361  
      28A      0.927836    29A      1.069892    30A      1.101793  
      31A      1.178089    32A      1.190220    33A      1.263349  
      34A      1.271882    35A      1.284072    36A      1.365719  
      37A      1.447603    38A      1.492602    39A      1.523978  
      40A      1.546424    41A      1.584096    42A      1.622008  
      43A      1.778236    44A      2.093229    45A      2.180688  
      46A      2.200065    47A      2.301673    48A      2.323685  
      49A      2.488920    50A      2.510138    51A      2.576076  
      52A      2.805536    53A      2.952057    54A      3.056980  
      55A      3.110949    56A      3.118469    57A      3.144119  
      58A      3.225084    59A      3.244707    60A      3.314801  
      61A      3.316404    62A      3.344181    63A      3.385605  
      64A      3.502084    65A      3.615601    66A      3.635321  
      67A      3.702573    68A      3.710435    69A      3.747315  
      70A      3.762470    71A      3.817017    72A      3.844055  
      73A      3.906864    74A      4.011867    75A      4.028959  
      76A      4.119546    77A      4.162477    78A      4.173616  
      79A      4.249978    80A      4.257957    81A      4.291066  
      82A      4.403941    83A      4.441275    84A      4.469907  
      85A      4.563073    86A      4.584465    87A      4.715737  
      88A      4.788992    89A      4.999711    90A      5.038547  
      91A      5.059735    92A      5.204828    93A      5.276001  
      94A      5.318117    95A      5.375635    96A      5.442899  
      97A      5.550908    98A      5.553127    99A      5.569783  
     100A      5.793374   101A      5.946427   102A      6.193924  
     103A      6.213469   104A      6.251432   105A      6.436440  
     106A      6.644577   107A      7.000557   108A      7.127294  
     109A      7.185746   110A      7.236581   111A      7.356717  
     112A      7.436713   113A      7.594978   114A      7.916004  
     115A     12.158148   116A     13.765101  

    Final Occupation by Irrep:
              A 
    DOCC [     9 ]

  @RHF Final Energy:  -115.08941279742029

   => Energetics <=

    Nuclear Repulsion Energy =             40.4246557674181659
    One-Electron Energy =                -237.1261095109411769
    Two-Electron Energy =                  81.6120409461027236
    Total Energy =                       -115.0894127974202945

Computation Completed


Properties will be evaluated at   0.000000,   0.000000,   0.000000 [a0]

Properties computed using the SCF density matrix

  Nuclear Dipole Moment: [e a0]
     X:    -2.1486      Y:    -0.8039      Z:    -0.0058

  Electronic Dipole Moment: [e a0]
     X:     1.7666      Y:     0.2163      Z:     0.0024

  Dipole Moment: [e a0]
     X:    -0.3820      Y:    -0.5876      Z:    -0.0034     Total:     0.7009

  Dipole Moment: [D]
     X:    -0.9709      Y:    -1.4936      Z:    -0.0086     Total:     1.7815


*** tstop() called on n006 at Sat Sep 19 17:50:06 2020
Module time:
	user time   =       6.18 seconds =       0.10 minutes
	system time =       0.07 seconds =       0.00 minutes
	total time  =          6 seconds =       0.10 minutes
Total time:
	user time   =       6.18 seconds =       0.10 minutes
	system time =       0.07 seconds =       0.00 minutes
	total time  =          6 seconds =       0.10 minutes
 MINTS: Wrapper to libmints.
   by Justin Turney

   Calculation information:
      Number of threads:                 1
      Number of atoms:                   6
      Number of AO shells:              44
      Number of SO shells:              44
      Number of primitives:             84
      Number of atomic orbitals:       130
      Number of basis functions:       116

      Number of irreps:                  1
      Integral cutoff                 0.00e+00
      Number of functions per irrep: [ 116 ]

 OEINTS: Overlap, kinetic, potential, dipole, and quadrupole integrals
         stored in file 35.

      Computing two-electron integrals...done
      Computed 22871599 non-zero two-electron integrals.
        Stored in file 33.


*** tstart() called on n006
*** at Sat Sep 19 17:50:10 2020


	Wfn Parameters:
	--------------------
	Wavefunction         = CCSD_T
	Number of irreps     = 1
	Number of MOs        = 116
	Number of active MOs = 116
	AO-Basis             = NONE
	Semicanonical        = false
	Reference            = RHF
	Print Level          = 1

	IRREP	# MOs	# FZDC	# DOCC	# SOCC	# VIRT	# FZVR
	-----	-----	------	------	------	------	------
	 A	   116	    0	    9	    0	    107	    0
	Transforming integrals...
	IWL integrals will be deleted.
	(OO|OO)...
	Presorting SO-basis two-electron integrals.
	Sorting File: SO Ints (nn|nn) nbuckets = 1
	Transforming the one-electron integrals and constructing Fock matrices
	Starting first half-transformation.
	Sorting half-transformed integrals.
	First half integral transformation complete.
	Starting second half-transformation.
	Two-electron integral transformation complete.
	(OO|OV)...
	Starting second half-transformation.
	Two-electron integral transformation complete.
	(OO|VV)...
	Starting second half-transformation.
	Two-electron integral transformation complete.
	(OV|OO)...
	Starting first half-transformation.
	Sorting half-transformed integrals.
	First half integral transformation complete.
	Starting second half-transformation.
	Two-electron integral transformation complete.
	(OV|OV)...
	Starting second half-transformation.
	Two-electron integral transformation complete.
	(OV|VV)...
	Starting second half-transformation.
	Two-electron integral transformation complete.
	(VV|OO)...
	Starting first half-transformation.
	Sorting half-transformed integrals.
	First half integral transformation complete.
	Starting second half-transformation.
	Two-electron integral transformation complete.
	(VV|OV)...
	Starting second half-transformation.
	Two-electron integral transformation complete.
	(VV|VV)...
	Starting second half-transformation.
	Two-electron integral transformation complete.
	Frozen core energy     =      0.00000000000000

	Size of irrep 0 of <ab|cd> integrals:    131.080 (MW) /   1048.637 (MB)
	Total:                                   131.080 (MW) /   1048.637 (MB)

	Size of irrep 0 of <ia|bc> integrals:     11.025 (MW) /     88.203 (MB)
	Total:                                    11.025 (MW) /     88.203 (MB)

	Size of irrep 0 of tijab amplitudes:       0.927 (MW) /      7.419 (MB)
	Total:                                     0.927 (MW) /      7.419 (MB)

	Nuclear Rep. energy          =     40.42465576741817
	SCF energy                   =   -115.08941279742029
	One-electron energy          =   -237.12610954282746
	Two-electron energy          =     81.61204097798864
	Reference energy             =   -115.08941279742066

*** tstop() called on n006 at Sat Sep 19 17:50:41 2020
Module time:
	user time   =      23.88 seconds =       0.40 minutes
	system time =       5.91 seconds =       0.10 minutes
	total time  =         31 seconds =       0.52 minutes
Total time:
	user time   =      33.44 seconds =       0.56 minutes
	system time =       6.32 seconds =       0.11 minutes
	total time  =         41 seconds =       0.68 minutes
            **************************
            *                        *
            *        CCENERGY        *
            *                        *
            **************************

    Nuclear Rep. energy (wfn)     =   40.424655767418166
    SCF energy          (wfn)     = -115.089412797420295
    Reference energy    (file100) = -115.089412797420664

    Input parameters:
    -----------------
    Wave function   =     CCSD_T
    Reference wfn   =     RHF
    Brueckner       =     No
    Memory (Mbytes) =     14000.0
    Maxiter         =    300
    R_Convergence   =     1.0e-08
    E_Convergence   =     1.0e-10
    Restart         =     Yes
    DIIS            =     Yes
    AO Basis        =     NONE
    ABCD            =     NEW
    Cache Level     =     2
    Cache Type      =     LOW
    Print Level     =     1
    Num. of threads =     1
    # Amps to Print =     10
    Print MP2 Amps? =     No
    Analyze T2 Amps =     No
    Print Pair Ener =     No
    Local CC        =     No
    SCS-MP2         =     False
    SCSN-MP2        =     False
    SCS-CCSD        =     False

MP2 correlation energy -0.4574281433479334
                Solving CC Amplitude Equations
                ------------------------------
  Iter             Energy              RMS        T1Diag      D1Diag    New D1Diag    D2Diag
  ----     ---------------------    ---------   ----------  ----------  ----------   --------
     0        -0.457428143347933    0.000e+00    0.000000    0.000000    0.000000    0.128069
     1        -0.464956024951571    4.762e-02    0.006483    0.014787    0.014787    0.129187
     2        -0.474908221719009    1.562e-02    0.006591    0.014746    0.014746    0.134893
     3        -0.476379499263191    5.473e-03    0.007386    0.016813    0.016813    0.136317
     4        -0.476276352098361    1.202e-03    0.007438    0.016954    0.016954    0.136542
     5        -0.476316129075564    4.339e-04    0.007470    0.017086    0.017086    0.136638
     6        -0.476324697121723    1.223e-04    0.007480    0.017136    0.017136    0.136645
     7        -0.476322527337797    4.530e-05    0.007481    0.017151    0.017151    0.136643
     8        -0.476322392516584    1.683e-05    0.007483    0.017160    0.017160    0.136643
     9        -0.476322499165474    4.882e-06    0.007483    0.017161    0.017161    0.136642
    10        -0.476322254275017    1.557e-06    0.007483    0.017162    0.017162    0.136642
    11        -0.476322321392631    4.782e-07    0.007483    0.017162    0.017162    0.136642
    12        -0.476322307070268    1.169e-07    0.007483    0.017162    0.017162    0.136642
    13        -0.476322310125372    4.174e-08    0.007483    0.017162    0.017162    0.136642
    14        -0.476322311274603    1.189e-08    0.007483    0.017162    0.017162    0.136642
    15        -0.476322311318792    4.919e-09    0.007483    0.017162    0.017162    0.136642
    16        -0.476322311347897    1.540e-09    0.007483    0.017162    0.017162    0.136642

    Iterations converged.


    Largest TIA Amplitudes:
              5   6        -0.0079970322
              5  14        -0.0076335897
              5   9         0.0070388767
              8  14         0.0063656075
              6   7         0.0059733737
              6   3        -0.0059192949
              7   8         0.0058104246
              5   2        -0.0056999805
              8   6         0.0053153633
              6   5        -0.0050948862

    Largest TIjAb Amplitudes:
      5   5   9   9        -0.0229989524
      8   8  14  14        -0.0211937688
      6   6   7   7        -0.0210290827
      7   7  12  12        -0.0205144118
      4   4   7   7        -0.0191029643
      6   6   8   8        -0.0162748783
      5   5  14  14        -0.0151808793
      7   7   7   7        -0.0151102477
      5   5   2   9         0.0149453562
      5   5   9   2         0.0149453562

    SCF energy       (wfn)                    = -115.089412797420295
    Reference energy (file100)                = -115.089412797420664

    Opposite-spin MP2 correlation energy      =   -0.353849827283220
    Same-spin MP2 correlation energy          =   -0.103578316064713
    Singles MP2 correlation energy            =   -0.000000000000000
    MP2 correlation energy                    =   -0.457428143347933
      * MP2 total energy                      = -115.546840940768604

    Opposite-spin CCSD correlation energy     =   -0.381807717582424
    Same-spin CCSD correlation energy         =   -0.094514593765472
    Singles CCSD correlation energy           =    0.000000000000000
    CCSD correlation energy                   =   -0.476322311347897
      * CCSD total energy                     = -115.565735108768564

            **************************
            *                        *
            *        CCTRIPLES       *
            *                        *
            **************************


    Wave function   =    CCSD_T
    Reference wfn   =      RHF

    Nuclear Rep. energy (wfn)                =   40.424655767418166
    SCF energy          (wfn)                = -115.089412797420295
    Reference energy    (file100)            = -115.089412797420664
    CCSD energy         (file100)            =   -0.476322311347897
    Total CCSD energy   (file100)            = -115.565735108768564

    Number of ijk index combinations:              165
    Memory available in words        :      1750000000
    ~Words needed per explicit thread:         4900172
    Number of threads for explicit ijk threading:    1

    MKL num_threads set to 1 for explicit threading.

    (T) energy                                =   -0.015046510514619
      * CCSD(T) total energy                  = -115.580781619283187


    Psi4 stopped on: Saturday, 19 September 2020 05:52PM
    Psi4 wall time for execution: 0:02:55.73

*** Psi4 exiting successfully. Buy a developer a beer!
