
 Primary working directories    : /tmp/601556.18.gen6.q
 Secondary working directories  : /tmp/601556.18.gen6.q
 Wavefunction directory         : /home/vulcan/mel64643/wfu/
 Main file repository           : /tmp/601556.18.gen6.q/

 ARCHNAME  : Linux/x86_64
 FC        : /opt/intel/compilers_and_libraries_2016.1.150/linux/bin/intel64/ifort
 FCVERSION : 16.0.1
 BLASLIB   : -mkl
 id        : ccgc

 Nodes     nprocs
 n083         1
 ga_uses_ma=false, calling ma_init with nominal heap.
 GA-space will be limited to   8.0 MW (determined by -G option)

 Using customized tuning parameters: mindgm=10; mindgv=16; mindgc=4; mindgr=1; noblas=0; mincuda=1000; minvec=7
 default implementation of scratch files=df  

 ***,Optimization of min3
 memory,1000,m
 gthresh,energy=1.0d-12,orbital=1.0d-10,oneint=1.0d-16,twoint=1.0d-16,optgrad=1.0d-6,compress=1.0d-13
 geomtyp=xyz
 
  bohr
  geometry = {
  6
  arbitrary comment
  C   -1.3763366364   -0.0250098991   -0.0000008000
  O    1.3051497976    0.1205045904   -0.0000000148
  H   -2.0778650084    1.9059263213   -0.0000787491
  H   -2.1075808430   -0.9769155436    1.6766318145
  H   -2.1075703997   -0.9770475588   -1.6765584138
  H    1.9404789300   -1.5775900302   -0.0000022468
 }
 
 basis=cc-pvtz
 {rhf;maxit,200}
 {ccsd(t);maxit,200}

 Variables initialized (661), CPU time= 0.01 sec
 Commands  initialized (458), CPU time= 0.00 sec, 486 directives.
 Default parameters read. Elapsed time= 0.04 sec

 Checking input...
 Passed
1


                                         ***  PROGRAM SYSTEM MOLPRO  ***
                         Copyright, University College Cardiff Consultants Limited, 2008

                                    Version 2010.1 linked May 16 2016 07:17:05


 **********************************************************************************************************************************
 LABEL *   Optimization of min3                                                          
 Linux-4.4.3/n083(x86_64) 64 bit mpp version                                             DATE: 06-Nov-21          TIME: 15:41:46  
 **********************************************************************************************************************************

 SHA1:             9e8077add272b0f3cad6f7df79ec5211205f459d
 **********************************************************************************************************************************

 THRESHOLDS:

 ZERO    =  1.00D-12  ONEINT  =  1.00D-16  TWOINT  =  1.00D-16  PREFAC  =  1.00D-14  LOCALI  =  1.00D-09  EORDER  =  1.00D-04
 ENERGY  =  1.00D-12  ETEST   =  0.00D+00  EDENS   =  0.00D+00  THRDEDEF=  1.00D-06  GRADIENT=  1.00D-02  STEP    =  1.00D-03
 ORBITAL =  1.00D-10  CIVEC   =  1.00D-05  COEFF   =  1.00D-04  PRINTCI =  5.00D-02  PUNCHCI =  9.90D+01  OPTGRAD =  1.00D-06
 OPTENERG=  1.00D-06  OPTSTEP =  3.00D-04  THRGRAD =  1.00D-10  COMPRESS=  1.00D-13  VARMIN  =  1.00D-07  VARMAX  =  1.00D-03
 THRDOUB =  0.00D+00  THRDIV  =  1.00D-05  THRRED  =  1.00D-07  THRPSP  =  1.00D+00  THRDC   =  1.00D-10  THRCS   =  1.00D-10
 THRNRM  =  1.00D-08  THREQ   =  0.00D+00  THRDE   =  1.00D+00  THRREF  =  1.00D-05  SPARFAC =  1.00D+00  THRDLP  =  1.00D-07
 THRDIA  =  1.00D-10  THRDLS  =  1.00D-07  THRGPS  =  0.00D+00  THRKEX  =  0.00D+00  THRDIS  =  2.00D-01  THRVAR  =  1.00D-10
 THRLOC  =  1.00D-06  THRGAP  =  1.00D-06  THRLOCT = -1.00D+00  THRGAPT = -1.00D+00  THRORB  =  1.00D-06  THRMLTP =  0.00D+00
 THRCPQCI=  1.00D-10  KEXTA   =  0.00D+00  THRCOARS=  0.00D+00  SYMTOL  =  1.00D-06  GRADTOL =  1.00D-06  THROVL  =  1.00D-08
 THRORTH =  1.00D-08  GRID    =  1.00D-06  GRIDMAX =  1.00D-03  DTMAX   =  0.00D+00

 SETTING GEOMTYP        =    XYZ
 ZUNIT=BOHR
 

 Variable memory set to 1000000000 words,  buffer space   230000 words

 SETTING BASIS          =    CC-PVTZ


 Recomputing integrals since basis changed


 Using spherical harmonics

 Library entry C      S cc-pVTZ              selected for orbital group  1
 Library entry C      P cc-pVTZ              selected for orbital group  1
 Library entry C      D cc-pVTZ              selected for orbital group  1
 Library entry C      F cc-pVTZ              selected for orbital group  1
 Library entry O      S cc-pVTZ              selected for orbital group  2
 Library entry O      P cc-pVTZ              selected for orbital group  2
 Library entry O      D cc-pVTZ              selected for orbital group  2
 Library entry O      F cc-pVTZ              selected for orbital group  2
 Library entry H      S cc-pVTZ              selected for orbital group  3
 Library entry H      P cc-pVTZ              selected for orbital group  3
 Library entry H      D cc-pVTZ              selected for orbital group  3

1PROGRAM * SEWARD (Integral evaluation for generally contracted gaussian basis sets)     Author: Roland Lindh, 1990

 Geometry written to block  1 of record 700


 Point group  C1  



 ATOMIC COORDINATES

 NR  ATOM    CHARGE       X              Y              Z

   1  C       6.00   -1.376336636   -0.025009899   -0.000000800
   2  O       8.00    1.305149798    0.120504590   -0.000000015
   3  H       1.00   -2.077865008    1.905926321   -0.000078749
   4  H       1.00   -2.107580843   -0.976915544    1.676631815
   5  H       1.00   -2.107570400   -0.977047559   -1.676558414
   6  H       1.00    1.940478930   -1.577590030   -0.000002247

 Bond lengths in Bohr (Angstrom)

 1-2  2.685431802  1-3  2.054423703  1-4  2.062023125  1-5  2.062019388  2-6  1.813055004
     ( 1.421069306)     ( 1.087154201)     ( 1.091175642)     ( 1.091173664)     ( 0.959427387)

 Bond angles

  1-2-6  107.40676596   2-1-3  106.86040132   2-1-4  112.27905614   2-1-5  112.27902981

  3-1-4  108.22956532   3-1-5  108.22961179   4-1-5  108.79656930

 NUCLEAR CHARGE:                   18
 NUMBER OF PRIMITIVE AOS:         162
 NUMBER OF SYMMETRY AOS:          148
 NUMBER OF CONTRACTIONS:          116   ( 116A   )
 NUMBER OF CORE ORBITALS:           2   (   2A   )
 NUMBER OF VALENCE ORBITALS:       12   (  12A   )


 NUCLEAR REPULSION ENERGY   40.33753250


 Eigenvalues of metric

         1 0.132E-02 0.179E-02 0.189E-02 0.235E-02 0.328E-02 0.460E-02 0.737E-02 0.100E-01


 Contracted 2-electron integrals neglected if value below      1.0D-16
 AO integral compression algorithm  1   Integral accuracy      1.0D-16

     196.346 MB (compressed) written to integral file ( 92.2%)

     Node minimum: 196.346 MB, node maximum: 196.346 MB


 NUMBER OF SORTED TWO-ELECTRON INTEGRALS:   23028291.     BUFFER LENGTH:  32768
 NUMBER OF SEGMENTS:   2  SEGMENT LENGTH:   15997996      RECORD LENGTH: 524288

 Memory used in sort:      16.56 MW

 SORT1 READ    26631627. AND WROTE    22813252. INTEGRALS IN     67 RECORDS. CPU TIME:     0.21 SEC, REAL TIME:     0.35 SEC
 SORT2 READ    22813252. AND WROTE    23028291. INTEGRALS IN    749 RECORDS. CPU TIME:     0.19 SEC, REAL TIME:     0.28 SEC

 FILE SIZES:   FILE 1:   176.0 MBYTE,  FILE 4:   281.1 MBYTE,   TOTAL:    457.0 MBYTE

 OPERATOR DM      FOR CENTER  0  COORDINATES:    0.000000    0.000000    0.000000


 **********************************************************************************************************************************
 DATASETS  * FILE   NREC   LENGTH (MB)   RECORD NAMES
              1      19      176.14       500      610      700      900      950      970     1000      129      960     1100   
                                          VAR    BASINP    GEOM    SYMINP    ZMAT    AOBASIS   BASIS     P2S    ABASIS      S 
                                         1400     1410     1200     1210     1080     1600     1650     1300     1700   
                                           T        V       H0       H01     AOSYM     SMH    MOLCAS    ERIS     OPER   

 PROGRAMS   *        TOTAL       INT
 CPU TIMES  *         1.34      1.30
 REAL TIME  *         1.84 SEC
 DISK USED  *       654.02 MB      
 GA USED    *         0.00 MB       (max)       0.00 MB       (current)
 **********************************************************************************************************************************

1PROGRAM * RHF-SCF (CLOSED SHELL)       Authors: W. Meyer, H.-J. Werner


 NUMBER OF ELECTRONS:       9+    9-    SPACE SYMMETRY=1    SPIN SYMMETRY: Singlet 
 CONVERGENCE THRESHOLDS:    1.00E-10 (Density)    1.00E-13 (Energy)
 MAX. NUMBER OF ITERATIONS:      200
 INTERPOLATION TYPE:            DIIS
 INTERPOLATION STEPS:              2 (START)      1 (STEP)
 LEVEL SHIFTS:                  0.00 (CLOSED)  0.00 (OPEN) 



 Orbital guess generated from atomic densities. Full valence occupancy:   14

 Molecular orbital dump at record        2100.2

 ITERATION    DDIFF          GRAD             ENERGY        2-EL.EN.            DIPOLE MOMENTS         DIIS
    1      0.000D+00      0.000D+00      -115.05329274    164.498827   -0.48659   -0.90483   -0.00000    0
    2      0.000D+00      0.474D-02      -115.08160374    162.043851   -0.30038   -0.50223   -0.00000    1
    3      0.784D-02      0.254D-02      -115.08865945    163.215446   -0.39188   -0.60000   -0.00000    2
    4      0.257D-02      0.498D-03      -115.08916657    163.059948   -0.38511   -0.59405   -0.00000    3
    5      0.687D-03      0.981D-04      -115.08919752    163.066742   -0.38881   -0.58936   -0.00000    4
    6      0.186D-03      0.186D-04      -115.08919888    163.065507   -0.38923   -0.58937   -0.00000    5
    7      0.480D-04      0.399D-05      -115.08919894    163.064511   -0.38943   -0.58916   -0.00000    6
    8      0.912D-05      0.124D-05      -115.08919894    163.064993   -0.38946   -0.58913   -0.00000    7
    9      0.242D-05      0.327D-06      -115.08919894    163.064892   -0.38947   -0.58912   -0.00000    6
   10      0.784D-06      0.601D-07      -115.08919894    163.064902   -0.38948   -0.58912   -0.00000    6
   11      0.160D-06      0.153D-07      -115.08919894    163.064906   -0.38948   -0.58912   -0.00000    6
   12      0.301D-07      0.647D-08      -115.08919894    163.064904   -0.38948   -0.58912   -0.00000    7
   13      0.114D-07      0.174D-08      -115.08919894    163.064904   -0.38948   -0.58912   -0.00000    7
   14      0.355D-08      0.357D-09      -115.08919894    163.064904   -0.38948   -0.58912   -0.00000    7
   15      0.862D-09      0.914D-10      -115.08919894    163.064904   -0.38948   -0.58912   -0.00000    7
   16      0.185D-09      0.230D-10      -115.08919894    163.064904   -0.38948   -0.58912   -0.00000    7
   17      0.521D-10      0.771D-11      -115.08919894    163.064904   -0.38948   -0.58912   -0.00000    7
   18      0.156D-10      0.160D-11      -115.08919894    163.064904   -0.38948   -0.58912   -0.00000    7
   19      0.308D-11      0.506D-12      -115.08919894    163.064904   -0.38948   -0.58912   -0.00000    7
   20      0.122D-11      0.164D-12      -115.08919894    163.064904   -0.38948   -0.58912   -0.00000    0

 Final occupancy:   9

 !RHF STATE 1.1 Energy               -115.089198942155
 Nuclear energy                        40.33753250
 One-electron energy                 -236.95918343
 Two-electron energy                   81.53245198
 Virial quotient                       -1.00117887
 !RHF STATE 1.1 Dipole moment          -0.38947884    -0.58911907    -0.00000335
 Dipole moment /Debye                  -0.98989162    -1.49729325    -0.00000850

 Orbital energies:

         1.1          2.1          3.1          4.1          5.1          6.1          7.1          8.1          9.1         10.1
    -20.552405   -11.268650    -1.353887    -0.924008    -0.688031    -0.618327    -0.590037    -0.502378    -0.449418     0.138488

        11.1
      0.178734


 **********************************************************************************************************************************
 DATASETS  * FILE   NREC   LENGTH (MB)   RECORD NAMES
              1      19      176.14       500      610      700      900      950      970     1000      129      960     1100   
                                          VAR    BASINP    GEOM    SYMINP    ZMAT    AOBASIS   BASIS     P2S    ABASIS      S 
                                         1400     1410     1200     1210     1080     1600     1650     1300     1700   
                                           T        V       H0       H01     AOSYM     SMH    MOLCAS    ERIS     OPER   

              2       3        0.63       700     1000     2100   
                                         GEOM     BASIS     RHF  

 PROGRAMS   *        TOTAL       RHF       INT
 CPU TIMES  *         3.96      2.62      1.30
 REAL TIME  *         4.83 SEC
 DISK USED  *       654.02 MB      
 GA USED    *         0.00 MB       (max)       0.00 MB       (current)
 **********************************************************************************************************************************


1PROGRAM * CCSD (Closed-shell coupled cluster)     Authors: C. Hampel, H.-J. Werner, 1991, M. Deegan, P.J. Knowles, 1992


 Convergence thresholds:  THRVAR = 1.00D-08  THRDEN = 1.00D-12

 CCSD(T)     terms to be evaluated (factor= 1.000)


 Number of core orbitals:           2 (   2 )
 Number of closed-shell orbitals:   7 (   7 )
 Number of external orbitals:     107 ( 107 )

 Molecular orbitals read from record     2100.2  Type=RHF/CANONICAL (state 1.1)

 Number of N-1 electron functions:               7
 Number of N-2 electron functions:              28
 Number of singly external CSFs:               749
 Number of doubly external CSFs:            280875
 Total number of CSFs:                      281625

 Length of J-op  integral file:               0.00 MB
 Length of K-op  integral file:               0.96 MB
 Length of 3-ext integral record:             0.00 MB

 Memory could be reduced to 12.77 Mwords without degradation in triples

 Integral transformation finished. Total CPU:   0.46 sec, npass=  1  Memory used:   7.23 MW

 Reference energy:                   -115.08919894

 MP2 singlet pair energy:              -0.28096808
 MP2 triplet pair energy:              -0.14730196
 MP2 correlation energy:               -0.42827004
 MP2 total energy:                   -115.51746898

 SCS-MP2 correlation energy:           -0.42881625   (PS=  1.200000  PT=  0.333333)
 SCS-MP2 total energy:               -115.51801519

 ITER.      SQ.NORM     CORR.ENERGY   TOTAL ENERGY   ENERGY CHANGE        DEN1      VAR(S)    VAR(P)  DIIS     TIME
   1      1.11786023    -0.44554361  -115.53474255    -0.01727357    -0.00694506  0.12D-02  0.18D-02  1  1     0.99
   2      1.12571080    -0.44672289  -115.53592183    -0.00117928    -0.00943084  0.16D-04  0.21D-03  2  2     1.56
   3      1.12828482    -0.44679832  -115.53599726    -0.00007543    -0.00177500  0.75D-05  0.10D-04  3  3     2.14
   4      1.12892055    -0.44679974  -115.53599868    -0.00000142    -0.00033101  0.35D-06  0.83D-06  4  4     2.71
   5      1.12902528    -0.44680150  -115.53600045    -0.00000177    -0.00003971  0.11D-06  0.65D-07  5  5     3.29
   6      1.12905011    -0.44679933  -115.53599827     0.00000217    -0.00000741  0.18D-07  0.50D-08  6  6     3.87
   7      1.12905369    -0.44679924  -115.53599819     0.00000009    -0.00000026  0.26D-08  0.89D-09  6  2     4.46
   8      1.12905504    -0.44679919  -115.53599813     0.00000005     0.00000002  0.42D-09  0.11D-09  6  1     5.04
   9      1.12905577    -0.44679914  -115.53599808     0.00000005    -0.00000003  0.28D-10  0.17D-10  6  3     5.61
  10      1.12905585    -0.44679916  -115.53599810    -0.00000002     0.00000007  0.25D-11  0.18D-11  6  4     6.19
  11      1.12905572    -0.44679916  -115.53599810    -0.00000001     0.00000011  0.23D-12  0.12D-12  6  6     6.77
  12      1.12905570    -0.44679917  -115.53599811    -0.00000000     0.00000001  0.27D-13  0.11D-13  6  5     7.34
  13      1.12905570    -0.44679917  -115.53599811    -0.00000000    -0.00000000  0.56D-14  0.17D-14  6  2     7.93
  14      1.12905570    -0.44679917  -115.53599811     0.00000000    -0.00000000  0.43D-15  0.14D-15  6  1     8.51
  15      1.12905570    -0.44679917  -115.53599811    -0.00000000    -0.00000000  0.62D-16  0.27D-16  6  3     9.09
  16      1.12905570    -0.44679917  -115.53599811     0.00000000     0.00000000  0.18D-16  0.33D-17  6  4     9.66
  17      1.12905570    -0.44679917  -115.53599811    -0.00000000     0.00000000  0.12D-17  0.72D-18  6  5    10.24
  18      1.12905570    -0.44679917  -115.53599811    -0.00000000     0.00000000  0.93D-19  0.45D-19  6  6    10.82
  19      1.12905570    -0.44679917  -115.53599811     0.00000000    -0.00000000  0.19D-19  0.98D-20  6  2    11.41
  20      1.12905570    -0.44679917  -115.53599811     0.00000000    -0.00000000  0.13D-20  0.74D-21  6  1    11.98

 Norm of t1 vector:      0.04462144      S-energy:    -0.00000000      T1 diagnostic:  0.00843266
                                                                       D1 diagnostic:  0.01725531


 Total CPU time for triples:      5.97 sec


 RESULTS
 =======

  Reference energy                   -115.089198942155
  CCSD singlet pair energy             -0.313033412106
  CCSD triplet pair energy             -0.133765753592
  CCSD correlation energy              -0.446799165698

  Triples (T) contribution             -0.014771596073
  Total correlation energy             -0.461570761772

  CCSD total energy                  -115.535998107853
  CCSD[T] energy                     -115.551234075867
  CCSD-T energy                      -115.550504922819
 !CCSD(T) total energy               -115.550769703927

 Timing summary (sec):

 STEP                 CPU(USER)    SYS     CPU(TOT)    WALL
 Transformation          0.47      0.06      0.53      0.53
 CCSD iterations        11.51      0.57     12.08     12.13
 Triples                 5.97      0.12      6.09      6.09

 Program statistics:

 Available memory in ccsd:               999999704
 Min. memory needed in ccsd:                915605
 Max. memory used in ccsd:                 1141922
 Max. memory used in cckext:                874802 (20 integral passes)



 **********************************************************************************************************************************
 DATASETS  * FILE   NREC   LENGTH (MB)   RECORD NAMES
              1      20      215.54       500      610      700      900      950      970     1000      129      960     1100   
                                          VAR    BASINP    GEOM    SYMINP    ZMAT    AOBASIS   BASIS     P2S    ABASIS      S 
                                         1400     1410     1200     1210     1080     1600     1650     1300     1700     1380   
                                           T        V       H0       H01     AOSYM     SMH    MOLCAS    ERIS     OPER     JKOP   

              2       3        0.63       700     1000     2100   
                                         GEOM     BASIS     RHF  

 PROGRAMS   *        TOTAL   CCSD(T)       RHF       INT
 CPU TIMES  *        21.93     17.97      2.62      1.30
 REAL TIME  *        23.60 SEC
 DISK USED  *       654.02 MB      
 GA USED    *         0.00 MB       (max)       0.00 MB       (current)
 **********************************************************************************************************************************

        CCSD(T)         RHF-SCF 
   -115.55076970   -115.08919894
 **********************************************************************************************************************************
 Variable memory released
