 --invoking executable xjoda


   *************************************************************************
         <<<     CCCCCC     CCCCCC   |||     CCCCCC     CCCCCC   >>>
       <<<      CCC        CCC       |||    CCC        CCC         >>>
      <<<      CCC        CCC        |||   CCC        CCC            >>>
    <<<        CCC        CCC        |||   CCC        CCC              >>>
      <<<      CCC        CCC        |||   CCC        CCC            >>>
       <<<      CCC        CCC       |||    CCC        CCC         >>>
         <<<     CCCCCC     CCCCCC   |||     CCCCCC     CCCCCC   >>>
   *************************************************************************

     ****************************************************************
     * CFOUR Coupled-Cluster techniques for Computational Chemistry *
     ****************************************************************
 

   Department of Chemistry                Institut fuer Physikalische Chemie
   University of Texas at Austin          Universitaet Mainz
   Austin, TX  78712, USA                 D-55099 Mainz, Germany
 
                       Version 1.0
 
                     n044                                              
                     Tue Jul 28 16:34:08 EDT 2020                      
                     integer*8 version is running
 
    -------------------------------------------------------------------
                    Input from ZMAT file
    -------------------------------------------------------------------
 
 MIN4                                                                           
 H                                                                              
 O 1 R*                                                                         
 H 2 R* 1 A*                                                                    
                                                                                
 R    =        1.825003884611470                                                
 A    =      101.941289586768463                                                
                                                                                
 *CFOUR(REF=RHF                                                                 
        CALC=CCSD(T)                                                            
        BASIS=cc-pVTZ                                                           
        ORB=SEMICANONICAL                                                       
        UNITS=BOHR                                                              
        MEMORY=24                                                               
        MEM_UNIT=GB                                                             
        SCF_CONV=9                                                              
        CC_CONV=6                                                               
        CHARGE=0                                                                
        MULT=1)                                                                 
                                                                                
                                                                                
 
    -------------------------------------------------------------------
                    CFOUR Control Parameters 
    -------------------------------------------------------------------
        External           Internal           Value            Units
          Name               Name
    -------------------------------------------------------------------
       PRINT                IPRNT               0               ***   
       CALCLEVEL            ICLLVL           CCSD(T)    [ 22]   ***   
       DERIV_LEV            IDRLVL            FIRST     [  1]   ***   
       CC_CONV              ICCCNV          10D-  6             ***   
       SCF_CONV             ISCFCV          10D-  9             ***   
       XFORM_TOL            IXFTOL          10D- 11             ***   
       CC_MAXCYC            ICCCYC             50              cycles 
       LINDEP_TOL           ILINDP              8               ***   
       RDO                  IRDOFM              ON      [  1]   ***   
  
       SCF_EXTRAPO          IRPP                ON      [  1]   ***   
       REFERENCE            IREFNC             RHF      [  0]   ***   
       CC_EXPORDER          ICCEOR              5               ***   
       TAMP_SUM             IEVERY              5               ***   
       NTOP_TAMP            ITOPT2             15               ***   
       CCORBOPT             ICCORB             OFF      [  0] x 0.01  
       SCF_MAXCYC           ISCFCY            150              cycles 
       OCCUPATION           IOCCU   ESTIMATED BY SCF 
       PROPS                IPROPS             OFF      [  0]   ***   
       RELAX_DENS           IRDENS              ON      [  1]   ***   
  
       SCF_EXPORDE          IRPPOR              6               ***   
       CC_EXTRAPOL          ICCEXT             DIIS     [  1]   ***   
       BRUECKNER            IBRKNR             OFF      [  0]   ***   
       XFIELD               IXEFLD              0             x 10-6  
       YFIELD               IYEFLD              0             x 10-6  
       ZFIELD               IZEFLD              0             x 10-6  
       SAVE_INTS            ISVINT             OFF      [  0]   ***   
       DROPMO               IDRPMO      NONE         
       CHARGE               ICHRGE              0               ***   
       MULTIPLICTY          IMULTP              1               ***   
  
       CPHF_CONVER          ICPHFT          10D- 16             ***   
       CPHF_MAXCYC          ICPHFC             64              cycles 
       INCORE               INCORE             OFF      [  0]   ***   
       MEMORY_SIZE          IMEMSZ         *********           words  
       FILE_RECSIZ          IFLREC              4096           words  
       NON-HF               INONHF             OFF      [  0]   ***   
       ORBITALS             IORBTP         SEMICANONICAL[  1]   ***   
  
       SCF_EXPSTAR          IRPPLS              8               ***   
       LOCK_ORBOCC          ILOCOC             OFF      [  0]   ***   
       HBAR                 IHBAR              OFF      [  0]   ***   
       CACHE_RECS           ICHREC             10               ***   
       GUESS                IGUESS            MOREAD    [  0]   ***   
       JODA_PRINT           IJPRNT              0               ***   
       GEO_METHOD           INR                NR       [  0]   ***   
       GEO_CONV             ICONTL              5              H/bohr 
       EIGENVECTOR          IVEC                1               ***   
  
       NEGEVAL              IDIE             ABORT      [  0]   ***   
       CURVILINEAR          ICURVY            OFF       [  0]   ***   
       SCALE_ON             ISTCRT              0               ***   
       GEO_MAXSTEP          IMXSTP            300            millibohr
       VIBRATION            IVIB              NO        [  0]   ***   
       EVAL_HESS            IRECAL              0            # of cyc.
       INTEGRALS            INTTYP             VMOL     [  1]   ***   
       FD_STEPSIZE          IDISFD              0            10-4 bohr
       POINTS               IGRDFD              0               ***   
       CONTRACTION          ICNTYP          GENERAL     [  1]   ***   
  
       SYMMETRY             ISYM             ON         [  0]   ***   
       BASIS                IBASIS         PVTZ         [ 14]   ***   
       SPHERICAL            IDFGHI             ON       [  1]   ***   
       RESET_FLAGS          IRESET             OFF      [  0]   ***   
       PERT_ORB             IPTORB         CANONICAL    [  1]   ***   
       GENBAS_1             IGNBS1              0               ***   
       GENBAS_2             IGNBS2              0               ***   
       GENBAS_3             IGNBS3              0               ***   
       COORDINATES          ICOORD         INTERNAL     [  0]   ***   
       SYM_CHECK            ISYMCK         OVERRIDE     [  1]   ***   
  
       SCF_PRINT            ISCFPR              0               ***   
       ECP                  IECP           OFF          [  0]   ***   
       RESTART_CC           ICCRES         OFF          [  0]   ***   
       TRANS_INV            ITRAIN         USE          [  0]   ***   
       HFSTABILITY          ISTABL         OFF          [  0]   ***   
       ROT_EVEC             ROTVEC              0               ***   
       BRUCK_CONV           IBRTOL          10D-  4             ***   
       UNITS                IUNITS         BOHR         [  1]   ***   
       FD_USEGROUP          IFDGRP         FULL         [  0]   ***   
  
       FD_PROJECT           IFDPRJ         ON           [  0]   ***   
       FD_CALTYPE           IFDCAL         GRADONLY     [  0]   ***   
       VTRAN                IVTRAN         FULL/PARTIAL [  0]   ***   
       HF2_FILE             IHF2Fl         USE          [  1]   ***   
       SUBGROUP             ISUBGP         DEFAULT      [  0]   ***   
       SUBGRPAXIS           ISBXYZ         X            [  0]   ***   
       EXCITE               IEXCIT         NONE         [  0]   ***   
       LINEQ_CONV           IZTACN          10D-  7           cycles  
  
       TREAT_PERT           ITREAT         SIMULTANEOUS [  0]   ***   
       ESTATE_PROP          IEXPRP         OFF          [  0]   ***   
       GEO_MAXCYC           IOPTCY             50               ***   
       ABCDTYPE             IABCDT         STANDARD     [  0]   ***   
       AO_LADDERS           IAOLAD         SINGLEPASS   [  1]   ***   
       FOCK                 IFOCK          AO           [  1]   ***   
       ESTATE_MAXC          IEXMXC             20               ***   
       ESTATE_CONV          IEXTOL          10D-  5             ***   
       DIRECT               IDIRCT         OFF          [  0]   ***   
  
       GAMMA_ABCD           IGABCD         STORE        [  0]   ***   
       LINEQ_TYPE           ILTYPE         DIIS         [  1]   ***   
       LINEQ_MAXCY          ILMAXC             50               ***   
       TRANGRAD             IRESRM         OFF          [  0]   ***   
       PSI                  IPSI           OFF          [  0]   ***   
       GAMMA_ABCI           IGABCI         STORE        [  0]   ***   
       ESTATE_DIAG          IEXDIG         ITERATIVE    [  0]   ***   
       FC_FIELD             IFINFC              0             x 10-6  
       SD_FIELD             IFINSD              0             x 10-6  
       DIFF_TYPE            IDIFTY         RELAXED      [  0]   ***   
  
       LINEQ_EXPOR          ILMAXD              5               ***   
       FINITE_PERT          IFIPER              0             x 10-6  
       ANHARMONIC           IANHAR         OFF          [  0]   ***   
       CC_PROGRAM           ICCPRO         VCC          [  0]   ***   
       OPEN-SHELL           IOPEN          SPIN-ORBITAL [  0]   ***   
       UIJ_THRESHO          IUIJTH             25               ***   
       SCF_DAMPING          IDAMP               0             x 10-3  
       PROP_INTEGR          IINTYP         INTERNAL     [  0]   ***   
       ANH_SYMMETR          IANHSM         ABELIAN      [  0]   ***   
       ANH_ALGORIT          IANALG         STANDARD     [  0]   ***   
  
       EOM_NONIT            EOMNON         OFF          [  0]   ***   
       VIB_ALGORIT          IGEALG         STANDARD     [  0]   ***   
       ANH_DERIVAT          IANDER         SECOND       [  1]   ***   
       SPINROTATIO          ISRCON         OFF          [  0]   ***   
       CIS_CONV             ICISTL              5               ***   
       ANH_STEPSIZ          ICUBST             50000          x 10-6  
       SPIN_FLIP            ISPFLP         OFF          [  0]   ***   
       GRID                 IGRID          OFF          [  0]   ***   
  
       DBOC                 IDBOC          OFF          [  0]   ***   
       EOMFOLLOW            IEOMSR         ENERGY       [  0]   ***   
       T3_EXTRAPOL          IT3EXT         OFF          [  0]   ***   
       ESTATE_LOCK          IESLOC         OFF          [  0]   ***   
       UNOS                 IUNOS          OFF          [  0]   ***   
       FREQ_ALGORI          IVIALG         STANDARD     [  0]   ***   
       RELATIVIST           IRELAT         OFF          [  0]   ***   
       FROZEN_CORE          IFROCO         OFF          [  0]   ***   
       EXCITATION           IEXCIT              0               ***   
       INPUT_MRCC           IMRCC          ON           [  1]   ***   
  
       GIAO                 IGIAO          OFF          [  1]   ***   
       EOM_NSING            IEOMSI          10D-  0             ***   
       EOM_NTRIP            IEOMTR          10D-  0             ***   
       EOM_NSTATES          IMRCCD         DAVIDSON     [  0]   ***   
       DIAG_MRCC            IEOMST          10D-  0             ***   
       NEWNORM              INEWNO         OFF          [  0]   ***   
       TESTSUITE            ITESTS         OFF          [  0]   ***   
       BUFFERSIZE           IBUFFS            600               ***   
       SPINORBIT            ISOCAL         OFF          [  0]   ***   
       DCT                  IDCT           OFF          [  0]   ***   
  
       PARALLEL             IPARAL         ON           [  1]   ***   
       PARA_PRINT           IPPRIN              0               ***   
       COMM_SIZE            IPSIZE            ***               ***   
       PARA_INT             IPINTS         ON           [  1]   ***   
       RAMAN_INT            IRAMIN         OFF          [  0]   ***   
       RAMAN_ORB            IRAMRE         UNRELAXED    [  0]   ***   
       BREIT                IBREIT         OFF          [  0]   ***   
       MEM_UNIT             IMEMU          GB           [  3]   ***   
       SPIN_ORBIT           ISPORB         OFF          [  0]   ***   
       GENBAS_4             IGNBS4              0               ***   
  
       SPIN_SCAL            ISCSMP         OFF          [  0]   ***   
       GRID_ALGO            IGALGO         SERIAL       [  0]   ***   
       VIBPHASE             ISETPH         STANDARD     [  0]   ***   
       SEQUENCE             ISEQUE         OFF          [  0]   ***   
       HESS_TYPE            IHESTP         SCF          [  0]   ***   
       CONTINUUM            ICONTU         NONE         [  0]   ***   
       SCF_NOSTOP           ISCFST         OFF          [  0]   ***   
       CONSTANT             ICONST         OLD          [  1]   ***   
  
       EOM_MRCC             IMRCCE         OLD          [  0]   ***   
       EOM_ORDER            IEXORD         ENERGY       [  0]   ***   
       GIMIC                IGIMIC         OFF          [  0]   ***   
    -------------------------------------------------------------------
   3 entries found in Z-matrix 
   Job Title : MIN4                                                                            
   There are  2 unique internal coordinates.
   Of these,  2 will be optimized.
   User supplied Z-matrix: 
--------------------------------------------------------------------------------
       SYMBOL    BOND      LENGTH    ANGLE     ANGLE     DIHED     ANGLE
                  TO      (ANGST)    WRT      (DEG)      WRT      (DEG)
--------------------------------------------------------------------------------
        H    
        O          1         R    
        H          2         R          1        A    
                  *Initial values for internal coordinates* 
                      Name             Value
                        R               1.8250038846
                        A             101.9412895868
--------------------------------------------------------------------------------
  1  H          1     1.00783
  2  O          8    15.99491
  3  H          1     1.00783
   Rotational constants (in cm-1): 
          9.3835291840            14.8595998499            25.4626898300
   Rotational constants (in MHz): 
     281311.1672885226        445479.6588001747        763352.3440853170
********************************************************************************
   The full molecular point group is C2v .
   The largest Abelian subgroup of the full molecular point group is C2v .
   The computational point group is C2v .
********************************************************************************
--------------------------------------------------------------------------------
   Analysis of internal coordinates specified by Z-matrix 
--------------------------------------------------------------------------------
   *The nuclear repulsion energy is    9.11979 a.u.
   *There are   2 degrees of freedom within the tot. symm. molecular subspace.
   *Z-matrix requests optimization of   2 coordinates.
   *The optimization is unconstrained and your Z-matrix is great.
--------------------------------------------------------------------------------
 ----------------------------------------------------------------
 Z-matrix   Atomic            Coordinates (in bohr)
  Symbol    Number           X              Y              Z
 ----------------------------------------------------------------
     H         1         0.00000000    -1.41770578     1.02062176
     O         8        -0.00000000     0.00000000    -0.12861690
     H         1         0.00000000     1.41770578     1.02062176
 ----------------------------------------------------------------
   Interatomic distance matrix (Angstroms) 
 
                 H             O             H    
                [ 1]        [ 2]        [ 3]
  H    [ 1]     0.00000
  O    [ 2]     0.96575     0.00000
  H    [ 3]     1.50043     0.96575     0.00000
   Rotational constants (in cm-1): 
          9.3835291840            25.4626898300            14.8595998499
   Rotational constants (in MHz): 
     281311.1672885224        763352.3440853157        445479.6588001742
  There are   58 basis functions.
                0.00 seconds walltime passed
 --executable xjoda finished with status            0
 --invoking executable xvmol
 Serial version of molecule started
 
    -------------------------------------------------------------------
                    Input from MOL file
    -------------------------------------------------------------------
 INTGRL        1    0    1    0    0    0    0    0    0                        
          *** CFOUR Program System (Release V0.1) ***                           
 MIN4                                                                           
     2    2 X  Y       0.10E-08              0    0                             
    9999.00      3.00                                                           
           1.00000000    1    3    1    1    1                                  
 H #1   0.000000000000000  -1.417705777974530   1.020621763958146               
     5    3                                                                     
    33.8700000000000       6.068000000000000E-003  0.000000000000000E+000       
   0.000000000000000E+000                                                       
    5.09500000000000       4.530800000000000E-002  0.000000000000000E+000       
   0.000000000000000E+000                                                       
    1.15900000000000       0.202822000000000       0.000000000000000E+000       
   0.000000000000000E+000                                                       
   0.325800000000000       0.503903000000000        1.00000000000000            
   0.000000000000000E+000                                                       
   0.102700000000000       0.383421000000000       0.000000000000000E+000       
    1.00000000000000                                                            
     2    2                                                                     
    1.40700000000000        1.00000000000000       0.000000000000000E+000       
   0.388000000000000       0.000000000000000E+000   1.00000000000000            
     1    1                                                                     
    1.05700000000000        1.00000000000000                                    
           8.00000000    1    4    1    1    1    1                             
 O #2  -0.000000000000000   0.000000000000000  -0.128616899655548               
    10    4                                                                     
    15330.0000000000       5.080000000000000E-004 -1.150000000000000E-004       
   0.000000000000000E+000  0.000000000000000E+000                               
    2299.00000000000       3.929000000000000E-003 -8.950000000000000E-004       
   0.000000000000000E+000  0.000000000000000E+000                               
    522.400000000000       2.024300000000000E-002 -4.636000000000000E-003       
   0.000000000000000E+000  0.000000000000000E+000                               
    147.300000000000       7.918100000000000E-002 -1.872400000000000E-002       
   0.000000000000000E+000  0.000000000000000E+000                               
    47.5500000000000       0.230687000000000      -5.846300000000000E-002       
   0.000000000000000E+000  0.000000000000000E+000                               
    16.7600000000000       0.433118000000000      -0.136463000000000            
   0.000000000000000E+000  0.000000000000000E+000                               
    6.20700000000000       0.350260000000000      -0.175740000000000            
   0.000000000000000E+000  0.000000000000000E+000                               
    1.75200000000000       4.272800000000000E-002  0.160934000000000            
    1.00000000000000       0.000000000000000E+000                               
   0.688200000000000      -8.154000000000000E-003  0.603418000000000            
   0.000000000000000E+000  0.000000000000000E+000                               
   0.238400000000000       2.381000000000000E-003  0.378765000000000            
   0.000000000000000E+000   1.00000000000000                                    
     5    3                                                                     
    34.4600000000000       1.592800000000000E-002  0.000000000000000E+000       
   0.000000000000000E+000                                                       
    7.74900000000000       9.974000000000000E-002  0.000000000000000E+000       
   0.000000000000000E+000                                                       
    2.28000000000000       0.310492000000000       0.000000000000000E+000       
   0.000000000000000E+000                                                       
   0.715600000000000       0.491026000000000        1.00000000000000            
   0.000000000000000E+000                                                       
   0.214000000000000       0.336337000000000       0.000000000000000E+000       
    1.00000000000000                                                            
     2    2                                                                     
    2.31400000000000        1.00000000000000       0.000000000000000E+000       
   0.645000000000000       0.000000000000000E+000   1.00000000000000            
     1    1                                                                     
    1.42800000000000        1.00000000000000                                    
 FINISH                                                                         
 
    -------------------------------------------------------------------
 
 One- and two-electron integrals over symmetry-adapted AOs are calculated.

  Spherical harmonics are used.
  
  Integrals less than  0.10E-13 are neglected.

  Nuclear repulsion energy :    9.1197871137 a.u.
  required memory for a1 array                5020257  words 
  required memory for a2 array                2070308  words 
 basis number:   1    15
 basis number:   8    35
  @GETMEM-I,   Allocated      69 MB of main memory.
  @MOLECU-I, One electron integrals required         0.01000 seconds.
  @TWOEL-I,      47635 integrals of symmetry type  I I I I
  @TWOEL-I,     139318 integrals of symmetry type  I J I J
  @TWOEL-I,      78162 integrals of symmetry type  I I J J
  @TWOEL-I,      84950 integrals of symmetry type  I J K L
  @TWOEL-I, Total number of 2-e integrals     350065.
  @MOLECU-I, Two electron integrals required         0.68000 seconds.
  @CHECKOUT-I, Total execution time :       0.7100 seconds.
                0.25 seconds walltime passed
 --executable xvmol finished with status            0
 --invoking executable xvmol2ja
  @GETMEM-I,   Allocated   22888 MB of main memory.
  @CHECKOUT-I, Total execution time :       0.0000 seconds.
                0.00 seconds walltime passed
 --executable xvmol2ja finished with status            0
 --invoking executable xvscf
 NSOSCF                     0
  There are   58 functions in the AO basis.

  There are 4 irreducible representations.

       Irrep        # of functions
         1                 23
         2                 11
         3                 17
         4                  7


  Parameters for SCF calculation: 
        SCF reference function:  RHF  
  Maximum number of iterations:  150
     Full symmetry point group: C2v 
     Computational point group: C2v 
        Initial density matrix: MOREAD                 
     SCF convergence tolerance: 10**(- 9)
  DIIS convergence acceleration:  ON
          Latest start for DIIS:   8
                     DIIS order:   6

  Memory information:     179852 words required.
  Fock matrices are constructed from AO integral file.
  @GETMEM-I,   Allocated       1 MB of main memory.
  Initialization and symmetry analysis required      0.000 seconds.

  @INITGES-I, Occupancies from core Hamiltonian:

          Alpha population by irrep:   3    1    1    0
           Beta population by irrep:   3    1    1    0


 total no. of electrons in initial guess :  0.000000000000000E+000
  --------------------------------------------------------------------
  Iteration         Total Energy            Largest Density Difference
  --------------------------------------------------------------------
       0             9.119787113688455              0.0000000000D+00
   current occupation vector 
     3  1  1  0
     3  1  1  0
       1           -61.385417049279745              0.1205106965D+02
   current occupation vector 
     3  1  1  0
     3  1  1  0
       2           -66.618499574281699              0.1200059328D+02
   current occupation vector 
     3  0  2  0
     3  0  2  0
       3           -71.689423322796713              0.1004794656D+02
   current occupation vector 
     3  1  1  0
     3  1  1  0
       4           -70.142516704308903              0.8703043157D+01
   current occupation vector 
     3  0  2  0
     3  0  2  0
       5           -73.049756938785023              0.8678094576D+01
   current occupation vector 
     3  1  1  0
     3  1  1  0
       6           -72.839550645578470              0.6096127479D+01
   current occupation vector 
     4  0  1  0
     4  0  1  0
       7           -74.253640817480985              0.6167271378D+01
   current occupation vector 
     3  1  1  0
     3  1  1  0
       8           -75.061009859007669              0.3128778561D+01
   current occupation vector 
     3  1  1  0
     3  1  1  0
       9           -76.036908706107511              0.1066163316D+01
   current occupation vector 
     3  1  1  0
     3  1  1  0
      10           -76.055947800971936              0.1542962284D+00
   current occupation vector 
     3  1  1  0
     3  1  1  0
      11           -76.056186880710897              0.1321598489D-01
   current occupation vector 
     3  1  1  0
     3  1  1  0
      12           -76.056194784580057              0.4661676651D-02
   current occupation vector 
     3  1  1  0
     3  1  1  0
      13           -76.056195416073649              0.1283631150D-02
   current occupation vector 
     3  1  1  0
     3  1  1  0
      14           -76.056195456730379              0.3286279545D-03
   current occupation vector 
     3  1  1  0
     3  1  1  0
      15           -76.056195457078090              0.2944919389D-04
   current occupation vector 
     3  1  1  0
     3  1  1  0
      16           -76.056195457083803              0.5417872654D-05
   current occupation vector 
     3  1  1  0
     3  1  1  0
      17           -76.056195457084286              0.1506214712D-05
   current occupation vector 
     3  1  1  0
     3  1  1  0
      18           -76.056195457084513              0.3067913623D-06
   current occupation vector 
     3  1  1  0
     3  1  1  0
      19           -76.056195457084343              0.4183765911D-07
   current occupation vector 
     3  1  1  0
     3  1  1  0
      20           -76.056195457084129              0.7787358147D-08
   current occupation vector 
     3  1  1  0
     3  1  1  0

  SCF has converged.

 save density matrix on hard disk
 total electron number:   9.99999999999999     
     E(SCF)=       -76.056195457084328              0.8932867779D-09

  Eigenvector printing suppressed.

 @PUTMOS-I, Writing converged MOs to NEWMOS. 
 @PUTMOS-I, Symmetry   1 Full   5 Partial   3
 @PUTMOS-I, Symmetry   2 Full   2 Partial   3
 @PUTMOS-I, Symmetry   3 Full   4 Partial   1
 @PUTMOS-I, Symmetry   4 Full   1 Partial   3
  @DMPJOB-I, Rotating orbitals to semicanonical basis.
             *** Eigenvalues correspond to new basis. ***



 
  ORBITAL EIGENVALUES (ALPHA)  (1H = 27.2113838 eV)

       MO #        E(hartree)               E(eV)           FULLSYM    COMPSYM
       ----   --------------------   --------------------   -------   ---------
    1     1         -20.5575137472        -559.3983969504      A1        A1 (1)
    2     2          -1.3432495344         -36.5516786458      A1        A1 (1)
    3    35          -0.7002302475         -19.0542340256      B2        B2 (3)
    4     3          -0.5812164886         -15.8157049532      A1        A1 (1)
    5    24          -0.5046534954         -13.7323199586      B1        B1 (2)
  +++++++++++++++++++++++++++++++++++++++++++++++++++++++++++++++++++++++++++++
    6     4           0.1408751893           3.8334088477      A1        A1 (1)
    7    36           0.2037864809           5.5453121484      B2        B2 (3)
    8    37           0.5364557379          14.5977029854      B2        B2 (3)
    9     5           0.6063145246          16.4986572454      A1        A1 (1)
   10     6           0.6681291649          18.1807191464      A1        A1 (1)
   11    25           0.7868134631          21.4102831397      B1        B1 (2)
   12     7           0.7869702039          21.4145482727      A1        A1 (1)
   13    38           0.8066580752          21.9502824957      B2        B2 (3)
   14    52           0.8648694450          23.5342944205      A2        A2 (4)
   15    26           0.9436106683          25.6769520715      B1        B1 (2)
   16     8           1.1410712345          31.0501273288      A1        A1 (1)
   17    39           1.1995827609          32.6423069310      B2        B2 (3)
   18    40           1.5133250928          41.1796699433      B2        B2 (3)
   19     9           1.5587728819          42.4163671782      A1        A1 (1)
   20    27           2.0449067059          55.6447412494      B1        B1 (2)
   21    53           2.0570822709          55.9760552208      A2        A2 (4)
   22    41           2.0631158891          56.1402383216      B2        B2 (3)
   23    10           2.1719629563          59.1021176460      A1        A1 (1)
   24    11           2.2333580650          60.7727635127      A1        A1 (1)
   25    12           2.5753995990          70.0801869770      A1        A1 (1)
   26    42           2.9636592056          80.6452681546      B2        B2 (3)
   27    28           3.3314928351          90.6545302294      B1        B1 (2)
   28    13           3.4737184846          94.5246869667      A1        A1 (1)
   29    54           3.5973956748          97.8901144569      A2        A2 (4)
   30    43           3.6595445296          99.5812707985      B2        B2 (3)
   31    29           3.7897507715         103.1243628239      B1        B1 (2)
   32    44           3.8708447770         105.3310429325      B2        B2 (3)
   33    14           3.8898359296         105.8478184745      A1        A1 (1)
   34    55           3.9638344600         107.8614208879      A2        A2 (4)
   35    30           4.0123031482         109.1803209664      B1        B1 (2)
   36    45           4.0649815378         110.6137728455      B2        B2 (3)
   37    15           4.1850324267         113.8805236606      A1        A1 (1)
   38    56           4.2892096101         116.7153289830      A2        A2 (4)
   39    16           4.3473029397         118.2961288720      A1        A1 (1)
   40    46           4.6011843073         125.2045922100      B2        B2 (3)
   41    31           4.6742802242         127.1936332612      B1        B1 (2)
   42    47           4.8543596770         132.0938443681      B2        B2 (3)
   43    17           5.1432860220         139.9559300378      A1        A1 (1)
   44    18           5.2461769011         142.7557332416      A1        A1 (1)
   45    48           5.5146376873         150.0609227362      B2        B2 (3)
   46    32           6.0447720777         164.4866131074      B1        B1 (2)
   47    19           6.5697581606         178.7722109101      A1        A1 (1)
   48    33           6.8840027692         187.3232415667      B1        B1 (2)
   49    57           6.9232058177         188.3900107662      A2        A2 (4)
   50    49           6.9803941564         189.9461846025      B2        B2 (3)
   51    20           7.0017160730         190.5263834578      A1        A1 (1)
   52    34           7.0095864058         190.7405461039      B1        B1 (2)
   53    21           7.1911649765         195.6815502847      A1        A1 (1)
   54    58           7.2252927432         196.6102140445      A2        A2 (4)
   55    22           7.4360945338         202.3464224786      A1        A1 (1)
   56    50           7.7837215216         211.8058338692      B2        B2 (3)
   57    51           8.2695089294         225.0247814774      B2        B2 (3)
   58    23          12.7246083861         346.2542027483      A1        A1 (1)


  VSCF finished.

  @CHECKOUT-I, Total execution time :       0.2800 seconds.
                0.25 seconds walltime passed
 --executable xvscf finished with status            0
 --invoking executable xvtran
  @GETMEM-I,   Allocated   22888 MB of main memory.
  Full RHF integral transformation
  Transformation of IIII integrals :
  1 pass through the AO integral file was required.
       47635 AO integrals were read.
       52624 MO integrals were written to HF2.
  Transformation of IIJJ integrals :
  1 pass through the AO integral file was required.
       78162 AO integrals were read.
       84402 MO integrals were written to HF2.
  Transformation of IJIJ integrals :
  1 pass through the AO integral file was required.
      139318 AO integrals were read.
      149529 MO integrals were written to HF2.
  Transformation of IJKL integrals :
  1 pass through the AO integral file was required.
       84950 AO integrals were read.
       90321 MO integrals were written to HF2.
  Summary of active molecular orbitals: 
------------------------------------------------------------------------
 
  Index      Eigenvalue    Symmetry    Index      Eigenvalue    Symmetry
------------------------------------------------------------------------
     1       -20.5575137        1        30         3.7897508        2
     2        -1.3432495        1        31         4.0123031        2
     3        -0.5812165        1        32         4.6742802        2
     4        -0.5046535        2        33         6.0447721        2
     5        -0.7002302        3        34         6.8840028        2
     6         0.1408752        1        35         7.0095864        2
     7         0.6063145        1        36         0.2037865        3
     8         0.6681292        1        37         0.5364557        3
     9         0.7869702        1        38         0.8066581        3
    10         1.1410712        1        39         1.1995828        3
    11         1.5587729        1        40         1.5133251        3
    12         2.1719630        1        41         2.0631159        3
    13         2.2333581        1        42         2.9636592        3
    14         2.5753996        1        43         3.6595445        3
    15         3.4737185        1        44         3.8708448        3
    16         3.8898359        1        45         4.0649815        3
    17         4.1850324        1        46         4.6011843        3
    18         4.3473029        1        47         4.8543597        3
    19         5.1432860        1        48         5.5146377        3
    20         5.2461769        1        49         6.9803942        3
    21         6.5697582        1        50         7.7837215        3
    22         7.0017161        1        51         8.2695089        3
    23         7.1911650        1        52         0.8648694        4
    24         7.4360945        1        53         2.0570823        4
    25        12.7246084        1        54         3.5973957        4
    26         0.7868135        2        55         3.9638345        4
    27         0.9436107        2        56         4.2892096        4
    28         2.0449067        2        57         6.9232058        4
    29         3.3314928        2        58         7.2252927        4
------------------------------------------------------------------------
  @CHECKOUT-I, Total execution time :       0.2000 seconds.
                0.00 seconds walltime passed
 --executable xvtran finished with status            0
 --invoking executable xintprc
  @GETMEM-I,   Allocated   22888 MB of main memory.
  @GMOIAA-I, Processing MO integrals for spin case AA.
  @GMOIAA-I, Generation of integral list completed.
                      TYPE                NUMBER
                      ----               --------
                      PPPP                262458
                      PPPH                 98028
                      PPHH                  9372
                      PHPH                  5838
                      PHHH                  1131
                      HHHH                    49

                     TOTAL                376876

  @FORMT2-I, Second-order MP correlation energies:
              ----------------------------------------------
              E(SCF)                =  -76.056195457084 a.u.
              E2(AA)                =   -0.033375087473 a.u.
              E2(AB)                =   -0.209144402935 a.u.
              E2(TOT)               =   -0.275894577881 a.u.
              Total MP2 energy      =  -76.332090034965 a.u.
              ----------------------------------------------
   Largest T2 amplitudes for spin case AB:
       _       _                 _       _                 _       _
   i   j   a   b             i   j   a   b             i   j   a   b
-----------------------------------------------------------------------------
[  4   4  26  26]-0.04504 [  3   3   8   8]-0.02802 [  4   3  26   8] 0.02746
[  3   4   8  26] 0.02746 [  5   5  37  37]-0.02391 [  5   4  38  26] 0.02341
[  4   5  26  38] 0.02341 [  5   5   7   7]-0.02147 [  5   5  38  38]-0.02144
[  5   4  36  26] 0.02123 [  4   5  26  36] 0.02123 [  3   3  37  37]-0.01975
[  5   5  36  36]-0.01935 [  5   3  38   8]-0.01845 [  3   5   8  38]-0.01845
-----------------------------------------------------------------------------
   Norm of T2AB vector (    18479 symmetry allowed elements):  0.2135015371.
-----------------------------------------------------------------------------
  @CHECKOUT-I, Total execution time :       0.0900 seconds.
                0.00 seconds walltime passed
 --executable xintprc finished with status            0
 --invoking executable xvcc
  @GETMEM-I,   Allocated   22888 MB of main memory.
   CCSD(T) energy will be calculated.
   The total correlation energy is -0.275894577881 a.u.
   The total correlation energy is -0.275812497747 a.u.
  Convergence information after     1 iterations: 
  Largest element of residual vector : -0.56996219E-02.
  Largest element of DIIS residual   : -0.56996219E-02.
   The total correlation energy is -0.280740911270 a.u.
  Convergence information after     2 iterations: 
  Largest element of residual vector : -0.22835426E-02.
  Largest element of DIIS residual   : -0.23134722E-02.
   The total correlation energy is -0.281090065410 a.u.
  Convergence information after     3 iterations: 
  Largest element of residual vector :  0.79923194E-03.
  Largest element of DIIS residual   :  0.73731674E-03.
   The total correlation energy is -0.281523926978 a.u.
  Convergence information after     4 iterations: 
  Largest element of residual vector : -0.11793385E-03.
  Largest element of DIIS residual   : -0.92898455E-04.
   The total correlation energy is -0.281545332322 a.u.
  Convergence information after     5 iterations: 
  Largest element of residual vector :  0.12526826E-03.
  Largest element of DIIS residual   :  0.79857957E-04.
   The total correlation energy is -0.281546553190 a.u.
  Convergence information after     6 iterations: 
  Largest element of residual vector :  0.38648945E-04.
  Largest element of DIIS residual   :  0.23078889E-04.
   The total correlation energy is -0.281546845203 a.u.
  Convergence information after     7 iterations: 
  Largest element of residual vector :  0.21295705E-04.
  Largest element of DIIS residual   :  0.71890705E-05.
   The total correlation energy is -0.281546856278 a.u.
  Convergence information after     8 iterations: 
  Largest element of residual vector :  0.46677349E-05.
  Largest element of DIIS residual   :  0.13776131E-05.
   The total correlation energy is -0.281546926523 a.u.
  Convergence information after     9 iterations: 
  Largest element of residual vector :  0.94509461E-06.
  Largest element of DIIS residual   : -0.27117005E-06.
  Amplitude equations converged in     9iterations.
   The total correlation energy is -0.281546933030 a.u.
   The CC iterations have converged.

   Largest T1 amplitudes for spin case AA:
   i       a                 i       a                 i       a    
-----------------------------------------------------------------------------
[  4      26    ]-0.00737 [  5      40    ]-0.00606 [  3       6    ] 0.00557
[  4      27    ]-0.00499 [  3       9    ]-0.00453 [  3      11    ]-0.00451
[  2       8    ]-0.00419 [  5      45    ]-0.00399 [  3      17    ]-0.00394
[  3       8    ] 0.00346 [  4      30    ]-0.00336 [  5      38    ]-0.00330
[  5      46    ]-0.00290 [  4      31    ] 0.00272 [  4      32    ] 0.00255
-----------------------------------------------------------------------------
   Norm of T1AA vector (       86 symmetry allowed elements):  0.0187226856.
-----------------------------------------------------------------------------
   Largest T2 amplitudes for spin case AB:
       _       _                 _       _                 _       _
   i   j   a   b             i   j   a   b             i   j   a   b
-----------------------------------------------------------------------------
[  4   4  26  26]-0.04769 [  3   3   8   8]-0.02927 [  5   5  37  37]-0.02779
[  4   3  26   8] 0.02581 [  3   4   8  26] 0.02581 [  5   5   7   7]-0.02511
[  5   5  38  38]-0.02259 [  3   3  37  37]-0.02241 [  5   4  38  26] 0.02227
[  4   5  26  38] 0.02227 [  5   5  36  36]-0.02030 [  5   4  36  26] 0.01958
[  4   5  26  36] 0.01958 [  5   5  38  36]-0.01947 [  5   5  36  38]-0.01947
-----------------------------------------------------------------------------
   Norm of T2AB vector (    18479 symmetry allowed elements):  0.2307469909.
-----------------------------------------------------------------------------
       Summary of iterative solution of CC equations 
      -----------------------------------------------------------
                       Correlation           Total
       Iteration         Energy              Energy
      -----------------------------------------------------------
            0        -0.275894577881     -76.332090034965  DIIS 
            1        -0.275812497747     -76.332007954832  DIIS 
            2        -0.280740911270     -76.336936368354  DIIS 
            3        -0.281090065410     -76.337285522495  DIIS 
            4        -0.281523926978     -76.337719384062  DIIS 
            5        -0.281545332322     -76.337740789406  DIIS 
            6        -0.281546553190     -76.337742010275  DIIS 
            7        -0.281546845203     -76.337742302287  DIIS 
            8        -0.281546856278     -76.337742313362  DIIS 
            9        -0.281546933030     -76.337742390114  DIIS 
      -----------------------------------------------------------
      A miracle has come to pass. The CC iterations have converged.
        E(CCSD)           =     -76.337742390114
        E(CCSD + T(CCSD)) =     -76.345810647339
        E(CCSD(T))        =     -76.345612717681
  @CHECKOUT-I, Total execution time :       1.3600 seconds.
 --executable xvcc finished with status            0
 --invoking executable xlambda
  @GETMEM-I,   Allocated   22888 MB of main memory.
  The Lambda equations are solved for CCSD(T).
  Initial lambda amplitudes: 
  Convergence information after     1 iterations: 
  Largest element of residual vector : -0.39271321E-02.
  Largest element of DIIS residual   : -0.39271321E-02.
  Convergence information after     2 iterations: 
  Largest element of residual vector :  0.12389570E-02.
  Largest element of DIIS residual   :  0.86218900E-03.
  Convergence information after     3 iterations: 
  Largest element of residual vector :  0.28593418E-03.
  Largest element of DIIS residual   :  0.16103052E-03.
  Convergence information after     4 iterations: 
  Largest element of residual vector :  0.17224099E-03.
  Largest element of DIIS residual   :  0.14094361E-03.
  Convergence information after     5 iterations: 
  Largest element of residual vector :  0.78461439E-04.
  Largest element of DIIS residual   :  0.28619115E-04.
  Convergence information after     6 iterations: 
  Largest element of residual vector :  0.24071036E-04.
  Largest element of DIIS residual   :  0.72210553E-05.
  Convergence information after     7 iterations: 
  Largest element of residual vector :  0.52895592E-05.
  Largest element of DIIS residual   : -0.20010808E-05.
  Convergence information after     8 iterations: 
  Largest element of residual vector :  0.95086185E-06.
  Largest element of DIIS residual   : -0.23389948E-06.
  Convergence information after     9 iterations: 
  Largest element of residual vector : -0.19312459E-06.
  Largest element of DIIS residual   : -0.65254595E-07.
  Amplitude equations converged in     9 iterations.
      The lambda equations have converged.
  @CHECKOUT-I, Total execution time :       0.6300 seconds.
 --executable xlambda finished with status            0
 --invoking executable xdens
  @GETMEM-I,   Allocated   22888 MB of main memory.
  CCSD(T) density and intermediates are calculated.
  The perturbed orbitals are chosen canonical.
  The iterative expansion of D(ai) converged after  16 iterations.
  ----------------------------------------------------------------------
                 Natural orbital occupation numbers
  ----------------------------------------------------------------------
  1.99952  1.98042  1.96371  1.95852  1.95735  0.02998  0.02742  0.02003
  0.01313  0.00756  0.00727  0.00723  0.00645  0.00642  0.00151  0.00146
  0.00121  0.00114  0.00103  0.00097  0.00081  0.00079  0.00078  0.00060
  0.00051  0.00049  0.00046  0.00045  0.00042  0.00042  0.00022  0.00022
  0.00015  0.00015  0.00014  0.00013  0.00013  0.00009  0.00008  0.00007
  0.00007  0.00007  0.00007  0.00006  0.00005  0.00005  0.00005  0.00003
  0.00003  0.00002  0.00001  0.00001  0.00001  0.00001  0.00001  0.00001
  0.00001  0.00000
  Trace of density matrix :  10.0000000000.
  ----------------------------------------------------------------------
  Density calculation successfully completed.
  @CHECKOUT-I, Total execution time :       0.2700 seconds.
                0.25 seconds walltime passed
 --executable xdens finished with status            0
 --invoking executable xanti
  @GETMEM-I,   Allocated   22888 MB of main memory.
 CCSD(T) MO gammas will be sorted to Mulliken order.
  @CHECKOUT-I, Total execution time :       0.1700 seconds.
                0.25 seconds walltime passed
 --executable xanti finished with status            0
 --invoking executable xbcktrn
  @GETMEM-I,   Allocated   22888 MB of main memory.
  @CHECKOUT-I, Total execution time :       0.0200 seconds.
                0.00 seconds walltime passed
 --executable xbcktrn finished with status            0
 --invoking executable xvdint
  @GETMEM-I,   Allocated   22888 MB of main memory.
 One- and two-electron integral derivatives are calculated
 for RHF-CC/MBPT gradients and dipole moments.
 Spherical gaussians are used.

                     Kinetic energy integral gradient
                     --------------------------------

                         H #1 y     1.0617610076
                         H #1 z    -0.8859687084
                         O #2 z     0.8859687084


 H #1 1     0.0000000000            0.5308805038           -0.4429843542
 H #1 2     0.0000000000           -0.5308805038           -0.4429843542
 O #2       0.0000000000            0.0000000000            0.8859687084



                   Nuclear attraction integral gradient
                   ------------------------------------

                         H #1 y    -9.7266273217
                         H #1 z     8.0105053676
                         O #2 z    -8.0105053676


 H #1 1     0.0000000000           -4.8633136609            4.0052526838
 H #1 2     0.0000000000            4.8633136609            4.0052526838
 O #2       0.0000000000            0.0000000000           -8.0105053676



                      Reorthonormalization gradient
                      -----------------------------

                         H #1 y     0.4229968303
                         H #1 z    -0.4049277650
                         O #2 z     0.4049277650


 H #1 1     0.0000000000            0.2114984152           -0.2024638825
 H #1 2     0.0000000000           -0.2114984152           -0.2024638825
 O #2       0.0000000000            0.0000000000            0.4049277650



                Electronic contributions to dipole moment
                -----------------------------------------

                               au             Debye

                    z     -0.24766905     -0.62951205

  Conversion factor used: 1 a.u. =   2.54174691 Debye 


  Evaluation of 1e integral derivatives required    0.01 seconds.
  Evaluation of 2el integral derivatives

                      Two-electron integral gradient
                      ------------------------------

                         H #1 y     4.2535342792
                         H #1 z    -3.6822625060
                         O #2 z     3.6822625060


 H #1 1     0.0000000000            2.1267671396           -1.8411312530
 H #1 2     0.0000000000           -2.1267671396           -1.8411312530
 O #2       0.0000000000            0.0000000000            3.6822625060


  Evaluation of 2e integral derivatives required    1.43 seconds.

                            Molecular gradient
                            ------------------

                         H #1 y    -0.0077966771
                         H #1 z     0.0122526858
                         O #2 z    -0.0122526858


 H #1 1     0.0000000000           -0.0038983385            0.0061263429
 H #1 2     0.0000000000            0.0038983385            0.0061263429
 O #2       0.0000000000            0.0000000000           -0.0122526858


  Molecular gradient norm 0.190E-01

                           Total dipole moment
                           -------------------

                               au             Debye

                    z      0.76463928      1.94351952

  Conversion factor used: 1 a.u. =   2.54174691 Debye 


  @CHECKOUT-I, Total execution time :       1.4400 seconds.
                0.50 seconds walltime passed
 --executable xvdint finished with status            0
 --invoking executable xjoda
   JODA beginning optimization cycle #  1.
 OriVec is  -1.380572744896862E-016  -1.00000000000000     
  5.481787048564681E-016                    -2
   Internal coordinate forces and energy gradients (atomic units): 
           R       dV/dR             R       dV/dR             R       dV/dR
 [R    ]  1.82500  0.0068862 [R    ]  1.82500  0.0068862 [A    ]  1.77921 -0.0042052
                     0                     0                     0 ****
   Optimization cycle  1.  Updating structure with Newton-Raphson step.
  @EFOL-I, Current internal coordinate Hessian written to FCMINT.
   There are   2 independent internal coordinates which will be optimized.
   Hessian matrix in totally symmetric symmetry coordinates: 
              R         A    
  R          1.000000  0.000000
  A          0.000000  0.250000
   The eigenvectors of the Hessian matrix: 
                   1         2
  R          0.000000  1.000000
  A          1.000000  0.000000
   The eigenvalues of the Hessian matrix: 
     0.25000    1.00000
   Gradients along Hessian eigenvectors: 
    -0.00421    0.00974
   There are  0 negative eigenvalues.
   Summary of Optimization Cycle: 
   The maximum unscaled step is:    0.01818.
   Scale factor set to:  1.00000.
   Forces are in hartree/bohr and hartree/radian.
   Parameter values are in Angstroms and degrees.
--------------------------------------------------------------------------
  Parameter     dV/dR           Step          Rold            Rnew
--------------------------------------------------------------------------
    R       0.0068861920   -0.0036440151    0.9657502631    0.9621062480
    A      -0.0042052303    0.9637677961  101.9412895868  102.9050573829
--------------------------------------------------------------------------
  Minimum force:  0.004205230 / RMS force:  0.005705419
 Updating structure...
   Rotational constants (in cm-1): 
          9.4456590429            14.7713276472            26.1985742884
   Rotational constants (in MHz): 
     283173.7738615734        442833.3243685494        785413.6082365423
 ----------------------------------------------------------------
 Z-matrix   Atomic            Coordinates (in bohr)
  Symbol    Number           X              Y              Z
 ----------------------------------------------------------------
     H         1         0.00000000    -1.42193551     1.00618569
     O         8         0.00000000    -0.00000000    -0.12679769
     H         1         0.00000000     1.42193551     1.00618569
 ----------------------------------------------------------------
   Interatomic distance matrix (Angstroms) 
 
                 H             O             H    
                [ 1]        [ 2]        [ 3]
  H    [ 1]     0.00000
  O    [ 2]     0.96211     0.00000
  H    [ 3]     1.50491     0.96211     0.00000
   Rotational constants (in cm-1): 
          9.4456590429            26.1985742884            14.7713276472
   Rotational constants (in MHz): 
     283173.7738615733        785413.6082365417        442833.3243685491
  There are   58 basis functions.
                0.00 seconds walltime passed
 --executable xjoda finished with status            0
 --invoking executable xvmol
 Serial version of molecule started
 
    -------------------------------------------------------------------
                    Input from MOL file
    -------------------------------------------------------------------
 INTGRL        1    0    1    0    0    0    0    0    0                        
          *** CFOUR Program System (Release V0.1) ***                           
 MIN4                                                                           
     2    2 X  Y       0.10E-08              0    0                             
    9999.00      3.00                                                           
           1.00000000    1    3    1    1    1                                  
 H #1   0.000000000000000  -1.421935513066268   1.006185688928021               
     5    3                                                                     
    33.8700000000000       6.068000000000000E-003  0.000000000000000E+000       
   0.000000000000000E+000                                                       
    5.09500000000000       4.530800000000000E-002  0.000000000000000E+000       
   0.000000000000000E+000                                                       
    1.15900000000000       0.202822000000000       0.000000000000000E+000       
   0.000000000000000E+000                                                       
   0.325800000000000       0.503903000000000        1.00000000000000            
   0.000000000000000E+000                                                       
   0.102700000000000       0.383421000000000       0.000000000000000E+000       
    1.00000000000000                                                            
     2    2                                                                     
    1.40700000000000        1.00000000000000       0.000000000000000E+000       
   0.388000000000000       0.000000000000000E+000   1.00000000000000            
     1    1                                                                     
    1.05700000000000        1.00000000000000                                    
           8.00000000    1    4    1    1    1    1                             
 O #2   0.000000000000000  -0.000000000000000  -0.126797691718644               
    10    4                                                                     
    15330.0000000000       5.080000000000000E-004 -1.150000000000000E-004       
   0.000000000000000E+000  0.000000000000000E+000                               
    2299.00000000000       3.929000000000000E-003 -8.950000000000000E-004       
   0.000000000000000E+000  0.000000000000000E+000                               
    522.400000000000       2.024300000000000E-002 -4.636000000000000E-003       
   0.000000000000000E+000  0.000000000000000E+000                               
    147.300000000000       7.918100000000000E-002 -1.872400000000000E-002       
   0.000000000000000E+000  0.000000000000000E+000                               
    47.5500000000000       0.230687000000000      -5.846300000000000E-002       
   0.000000000000000E+000  0.000000000000000E+000                               
    16.7600000000000       0.433118000000000      -0.136463000000000            
   0.000000000000000E+000  0.000000000000000E+000                               
    6.20700000000000       0.350260000000000      -0.175740000000000            
   0.000000000000000E+000  0.000000000000000E+000                               
    1.75200000000000       4.272800000000000E-002  0.160934000000000            
    1.00000000000000       0.000000000000000E+000                               
   0.688200000000000      -8.154000000000000E-003  0.603418000000000            
   0.000000000000000E+000  0.000000000000000E+000                               
   0.238400000000000       2.381000000000000E-003  0.378765000000000            
   0.000000000000000E+000   1.00000000000000                                    
     5    3                                                                     
    34.4600000000000       1.592800000000000E-002  0.000000000000000E+000       
   0.000000000000000E+000                                                       
    7.74900000000000       9.974000000000000E-002  0.000000000000000E+000       
   0.000000000000000E+000                                                       
    2.28000000000000       0.310492000000000       0.000000000000000E+000       
   0.000000000000000E+000                                                       
   0.715600000000000       0.491026000000000        1.00000000000000            
   0.000000000000000E+000                                                       
   0.214000000000000       0.336337000000000       0.000000000000000E+000       
    1.00000000000000                                                            
     2    2                                                                     
    2.31400000000000        1.00000000000000       0.000000000000000E+000       
   0.645000000000000       0.000000000000000E+000   1.00000000000000            
     1    1                                                                     
    1.42800000000000        1.00000000000000                                    
 FINISH                                                                         
 
    -------------------------------------------------------------------
 
 One- and two-electron integrals over symmetry-adapted AOs are calculated.

  Spherical harmonics are used.
  
  Integrals less than  0.10E-13 are neglected.

  Nuclear repulsion energy :    9.1519437654 a.u.
  required memory for a1 array                5020257  words 
  required memory for a2 array                2070308  words 
 basis number:   1    15
 basis number:   8    35
  @GETMEM-I,   Allocated      69 MB of main memory.
  @MOLECU-I, One electron integrals required         0.00000 seconds.
  @TWOEL-I,      47635 integrals of symmetry type  I I I I
  @TWOEL-I,     139318 integrals of symmetry type  I J I J
  @TWOEL-I,      78162 integrals of symmetry type  I I J J
  @TWOEL-I,      84950 integrals of symmetry type  I J K L
  @TWOEL-I, Total number of 2-e integrals     350065.
  @MOLECU-I, Two electron integrals required         0.68000 seconds.
  @CHECKOUT-I, Total execution time :       0.7800 seconds.
                0.25 seconds walltime passed
 --executable xvmol finished with status            0
 --invoking executable xvmol2ja
  @GETMEM-I,   Allocated   22888 MB of main memory.
  @CHECKOUT-I, Total execution time :       0.0000 seconds.
                0.00 seconds walltime passed
 --executable xvmol2ja finished with status            0
 --invoking executable xvscf
 NSOSCF                     0
  There are   58 functions in the AO basis.

  There are 4 irreducible representations.

       Irrep        # of functions
         1                 23
         2                 11
         3                 17
         4                  7


  Parameters for SCF calculation: 
        SCF reference function:  RHF  
  Maximum number of iterations:  150
     Full symmetry point group: C2v 
     Computational point group: C2v 
        Initial density matrix: MOREAD                 
     SCF convergence tolerance: 10**(- 9)
  DIIS convergence acceleration:  ON
          Latest start for DIIS:   8
                     DIIS order:   6

     Alpha population by irrep:   3    1    1    0
      Beta population by irrep:   3    1    1    0


  Memory information:     179852 words required.
  Fock matrices are constructed from AO integral file.
  @GETMEM-I,   Allocated       1 MB of main memory.
  Initialization and symmetry analysis required      0.000 seconds.

 total no. of electrons in initial guess :  0.000000000000000E+000
  --------------------------------------------------------------------
  Iteration         Total Energy            Largest Density Difference
  --------------------------------------------------------------------
       0           -76.061850102904756              0.0000000000D+00
   current occupation vector 
     3  1  1  0
     3  1  1  0
       1           -76.056659484545406              0.5776239844D-02
   current occupation vector 
     3  1  1  0
     3  1  1  0
       2           -76.056661697017034              0.2019927514D-02
   current occupation vector 
     3  1  1  0
     3  1  1  0
       3           -76.056662002336736              0.7786688491D-03
   current occupation vector 
     3  1  1  0
     3  1  1  0
       4           -76.056662086970505              0.5169968247D-03
   current occupation vector 
     3  1  1  0
     3  1  1  0
       5           -76.056662098562157              0.1491153266D-03
   current occupation vector 
     3  1  1  0
     3  1  1  0
       6           -76.056662099191968              0.5482649502D-04
   current occupation vector 
     3  1  1  0
     3  1  1  0
       7           -76.056662099199883              0.3816327445D-05
   current occupation vector 
     3  1  1  0
     3  1  1  0
       8           -76.056662099200182              0.4411010984D-06
   current occupation vector 
     3  1  1  0
     3  1  1  0
       9           -76.056662099200182              0.9517091737D-07
   current occupation vector 
     3  1  1  0
     3  1  1  0
      10           -76.056662099200054              0.1165094776D-07
   current occupation vector 
     3  1  1  0
     3  1  1  0
      11           -76.056662099199897              0.3728668485D-08
   current occupation vector 
     3  1  1  0
     3  1  1  0

  SCF has converged.

 save density matrix on hard disk
 total electron number:   10.0000000000000     
     E(SCF)=       -76.056662099200253              0.5287181803D-09

  Eigenvector printing suppressed.

 @PUTMOS-I, Writing converged MOs to NEWMOS. 
 @PUTMOS-I, Symmetry   1 Full   5 Partial   3
 @PUTMOS-I, Symmetry   2 Full   2 Partial   3
 @PUTMOS-I, Symmetry   3 Full   4 Partial   1
 @PUTMOS-I, Symmetry   4 Full   1 Partial   3
 @PUTMOS-I, NEWMOS already exists and will be deleted. 
  @DMPJOB-I, Rotating orbitals to semicanonical basis.
             *** Eigenvalues correspond to new basis. ***



 
  ORBITAL EIGENVALUES (ALPHA)  (1H = 27.2113838 eV)

       MO #        E(hartree)               E(eV)           FULLSYM    COMPSYM
       ----   --------------------   --------------------   -------   ---------
    1     1         -20.5563946474        -559.3679446969      A1        A1 (1)
    2     2          -1.3443778177         -36.5823807971      A1        A1 (1)
    3    35          -0.7040483338         -19.1581294373      B2        B2 (3)
    4     3          -0.5799932639         -15.7824193174      A1        A1 (1)
    5    24          -0.5046190252         -13.7313819760      B1        B1 (2)
  +++++++++++++++++++++++++++++++++++++++++++++++++++++++++++++++++++++++++++++
    6     4           0.1414520168           3.8491051223      A1        A1 (1)
    7    36           0.2039372168           5.5494138826      B2        B2 (3)
    8    37           0.5395215398          14.6811276996      B2        B2 (3)
    9     5           0.6051602191          16.4672469937      A1        A1 (1)
   10     6           0.6680285243          18.1779805778      A1        A1 (1)
   11    25           0.7870596613          21.4169825336      B1        B1 (2)
   12     7           0.7920736270          21.5534194790      A1        A1 (1)
   13    38           0.8061192186          21.9356194628      B2        B2 (3)
   14    52           0.8635435894          23.4982160573      A2        A2 (4)
   15    26           0.9479763809          25.7957491528      B1        B1 (2)
   16     8           1.1372060065          30.9449491250      A1        A1 (1)
   17    39           1.1989309175          32.6245693687      B2        B2 (3)
   18    40           1.5187571951          41.3274849638      B2        B2 (3)
   19     9           1.5623031542          42.5124307710      A1        A1 (1)
   20    27           2.0422214838          55.5716726402      B1        B1 (2)
   21    41           2.0583033128          56.0092814606      B2        B2 (3)
   22    53           2.0606212092          56.0723546300      A2        A2 (4)
   23    10           2.1725217975          59.1173244870      A1        A1 (1)
   24    11           2.2335317187          60.7774888703      A1        A1 (1)
   25    12           2.5801901344          70.2105440760      A1        A1 (1)
   26    42           2.9643304160          80.6635327179      B2        B2 (3)
   27    28           3.3405743746          90.9016514843      B1        B1 (2)
   28    13           3.4805888175          94.7116382306      A1        A1 (1)
   29    54           3.5918475953          97.7391435367      A2        A2 (4)
   30    43           3.6593067474          99.5748004178      B2        B2 (3)
   31    29           3.7943046595         103.2482804170      B1        B1 (2)
   32    44           3.8737577241         105.4103082550      B2        B2 (3)
   33    14           3.8879093638         105.7953939544      A1        A1 (1)
   34    55           3.9636387572         107.8560955439      A2        A2 (4)
   35    30           4.0148995077         109.2509715007      B1        B1 (2)
   36    45           4.0694693651         110.7358928356      B2        B2 (3)
   37    15           4.1885458741         113.9761294249      A1        A1 (1)
   38    56           4.2986292402         116.9716501539      A2        A2 (4)
   39    16           4.3633764394         118.7335110424      A1        A1 (1)
   40    46           4.5975388221         125.1053935148      B2        B2 (3)
   41    31           4.6788151772         127.3170356083      B1        B1 (2)
   42    47           4.8576027772         132.1820936134      B2        B2 (3)
   43    17           5.1512911644         140.1737610396      A1        A1 (1)
   44    18           5.2481614457         142.8097354467      A1        A1 (1)
   45    48           5.5199466326         150.2053864837      B2        B2 (3)
   46    32           6.0488499579         164.5975778723      B1        B1 (2)
   47    19           6.5726779663         178.8516628623      A1        A1 (1)
   48    33           6.9014938046         187.7991968457      B1        B1 (2)
   49    57           6.9317821851         188.6233855925      A2        A2 (4)
   50    34           7.0061146809         190.6460756653      B1        B1 (2)
   51    20           7.0109286897         190.7770715072      A1        A1 (1)
   52    49           7.0133190430         190.8421163276      B2        B2 (3)
   53    21           7.1820678734         195.4340055204      A1        A1 (1)
   54    58           7.2309316563         196.7636566716      A2        A2 (4)
   55    22           7.4433405059         202.5435954070      A1        A1 (1)
   56    50           7.7890342374         211.9504002184      B2        B2 (3)
   57    51           8.2794993379         225.2966343168      B2        B2 (3)
   58    23          12.7891358562         348.0100845046      A1        A1 (1)


  VSCF finished.

  @CHECKOUT-I, Total execution time :       0.1800 seconds.
                0.00 seconds walltime passed
 --executable xvscf finished with status            0
 --invoking executable xvtran
  @GETMEM-I,   Allocated   22888 MB of main memory.
  Full RHF integral transformation
  Transformation of IIII integrals :
  1 pass through the AO integral file was required.
       47635 AO integrals were read.
       52624 MO integrals were written to HF2.
  Transformation of IIJJ integrals :
  1 pass through the AO integral file was required.
       78162 AO integrals were read.
       84402 MO integrals were written to HF2.
  Transformation of IJIJ integrals :
  1 pass through the AO integral file was required.
      139318 AO integrals were read.
      149529 MO integrals were written to HF2.
  Transformation of IJKL integrals :
  1 pass through the AO integral file was required.
       84950 AO integrals were read.
       90321 MO integrals were written to HF2.
  Summary of active molecular orbitals: 
------------------------------------------------------------------------
 
  Index      Eigenvalue    Symmetry    Index      Eigenvalue    Symmetry
------------------------------------------------------------------------
     1       -20.5563946        1        30         3.7943047        2
     2        -1.3443778        1        31         4.0148995        2
     3        -0.5799933        1        32         4.6788152        2
     4        -0.5046190        2        33         6.0488500        2
     5        -0.7040483        3        34         6.9014938        2
     6         0.1414520        1        35         7.0061147        2
     7         0.6051602        1        36         0.2039372        3
     8         0.6680285        1        37         0.5395215        3
     9         0.7920736        1        38         0.8061192        3
    10         1.1372060        1        39         1.1989309        3
    11         1.5623032        1        40         1.5187572        3
    12         2.1725218        1        41         2.0583033        3
    13         2.2335317        1        42         2.9643304        3
    14         2.5801901        1        43         3.6593067        3
    15         3.4805888        1        44         3.8737577        3
    16         3.8879094        1        45         4.0694694        3
    17         4.1885459        1        46         4.5975388        3
    18         4.3633764        1        47         4.8576028        3
    19         5.1512912        1        48         5.5199466        3
    20         5.2481614        1        49         7.0133190        3
    21         6.5726780        1        50         7.7890342        3
    22         7.0109287        1        51         8.2794993        3
    23         7.1820679        1        52         0.8635436        4
    24         7.4433405        1        53         2.0606212        4
    25        12.7891359        1        54         3.5918476        4
    26         0.7870597        2        55         3.9636388        4
    27         0.9479764        2        56         4.2986292        4
    28         2.0422215        2        57         6.9317822        4
    29         3.3405744        2        58         7.2309317        4
------------------------------------------------------------------------
  @CHECKOUT-I, Total execution time :       0.2000 seconds.
                0.00 seconds walltime passed
 --executable xvtran finished with status            0
 --invoking executable xintprc
  @GETMEM-I,   Allocated   22888 MB of main memory.
  @GMOIAA-I, Processing MO integrals for spin case AA.
  @GMOIAA-I, Generation of integral list completed.
                      TYPE                NUMBER
                      ----               --------
                      PPPP                262458
                      PPPH                 98028
                      PPHH                  9372
                      PHPH                  5838
                      PHHH                  1131
                      HHHH                    49

                     TOTAL                376876

  @FORMT2-I, Second-order MP correlation energies:
              ----------------------------------------------
              E(SCF)                =  -76.056662099200 a.u.
              E2(AA)                =   -0.033334307021 a.u.
              E2(AB)                =   -0.208883809902 a.u.
              E2(TOT)               =   -0.275552423943 a.u.
              Total MP2 energy      =  -76.332214523143 a.u.
              ----------------------------------------------
   Largest T2 amplitudes for spin case AB:
       _       _                 _       _                 _       _
   i   j   a   b             i   j   a   b             i   j   a   b
-----------------------------------------------------------------------------
[  4   4  26  26]-0.04499 [  3   3   8   8]-0.02817 [  4   3  26   8] 0.02751
[  3   4   8  26] 0.02751 [  5   5  37  37]-0.02357 [  5   4  38  26] 0.02339
[  4   5  26  38] 0.02339 [  5   5   7   7]-0.02166 [  5   5  38  38]-0.02146
[  4   5  26  36] 0.02102 [  5   4  36  26] 0.02102 [  3   3  37  37]-0.01963
[  5   5  36  36]-0.01899 [  5   3  38   8]-0.01855 [  3   5   8  38]-0.01855
-----------------------------------------------------------------------------
   Norm of T2AB vector (    18479 symmetry allowed elements):  0.2129697852.
-----------------------------------------------------------------------------
  @CHECKOUT-I, Total execution time :       0.0900 seconds.
                0.00 seconds walltime passed
 --executable xintprc finished with status            0
 --invoking executable xvcc
  @GETMEM-I,   Allocated   22888 MB of main memory.
   CCSD(T) energy will be calculated.
   The total correlation energy is -0.275552423943 a.u.
   The total correlation energy is -0.275570826248 a.u.
  Convergence information after     1 iterations: 
  Largest element of residual vector : -0.55919154E-02.
  Largest element of DIIS residual   : -0.55919154E-02.
   The total correlation energy is -0.280448264203 a.u.
  Convergence information after     2 iterations: 
  Largest element of residual vector : -0.22648433E-02.
  Largest element of DIIS residual   : -0.22998496E-02.
   The total correlation energy is -0.280799075227 a.u.
  Convergence information after     3 iterations: 
  Largest element of residual vector :  0.78235892E-03.
  Largest element of DIIS residual   :  0.72278514E-03.
   The total correlation energy is -0.281224859404 a.u.
  Convergence information after     4 iterations: 
  Largest element of residual vector : -0.11481933E-03.
  Largest element of DIIS residual   : -0.91578857E-04.
   The total correlation energy is -0.281245749064 a.u.
  Convergence information after     5 iterations: 
  Largest element of residual vector :  0.12287531E-03.
  Largest element of DIIS residual   :  0.78672975E-04.
   The total correlation energy is -0.281246944500 a.u.
  Convergence information after     6 iterations: 
  Largest element of residual vector :  0.38085796E-04.
  Largest element of DIIS residual   :  0.22737027E-04.
   The total correlation energy is -0.281247228894 a.u.
  Convergence information after     7 iterations: 
  Largest element of residual vector :  0.20983990E-04.
  Largest element of DIIS residual   :  0.70894077E-05.
   The total correlation energy is -0.281247241338 a.u.
  Convergence information after     8 iterations: 
  Largest element of residual vector :  0.45884463E-05.
  Largest element of DIIS residual   :  0.13407573E-05.
   The total correlation energy is -0.281247309973 a.u.
  Convergence information after     9 iterations: 
  Largest element of residual vector :  0.92682546E-06.
  Largest element of DIIS residual   : -0.26373802E-06.
  Amplitude equations converged in     9iterations.
   The total correlation energy is -0.281247316506 a.u.
   The CC iterations have converged.

   Largest T1 amplitudes for spin case AA:
   i       a                 i       a                 i       a    
-----------------------------------------------------------------------------
[  4      26    ]-0.00723 [  5      40    ]-0.00600 [  3       6    ] 0.00546
[  4      27    ]-0.00495 [  3       9    ]-0.00449 [  3      11    ]-0.00445
[  2       8    ]-0.00411 [  5      45    ]-0.00395 [  3      17    ]-0.00390
[  3       8    ] 0.00352 [  4      30    ]-0.00335 [  5      38    ]-0.00320
[  4      31    ] 0.00277 [  5      46    ]-0.00275 [  4      32    ] 0.00251
-----------------------------------------------------------------------------
   Norm of T1AA vector (       86 symmetry allowed elements):  0.0185252782.
-----------------------------------------------------------------------------
   Largest T2 amplitudes for spin case AB:
[...]
 O #2       0.0000000000            0.0000000000            0.8851996930



                   Nuclear attraction integral gradient
                   ------------------------------------

                         H #1 y    -9.9863868356
                         H #1 z     7.9321113755
                         O #2 z    -7.9321113755


 H #1 1     0.0000000000           -4.9931934178            3.9660556878
 H #1 2     0.0000000000            4.9931934178            3.9660556878
 O #2       0.0000000000            0.0000000000           -7.9321113755



                      Reorthonormalization gradient
                      -----------------------------

                         H #1 y     0.4306797110
                         H #1 z    -0.3995866509
                         O #2 z     0.3995866509


 H #1 1     0.0000000000            0.2153398555           -0.1997933255
 H #1 2     0.0000000000           -0.2153398555           -0.1997933255
 O #2       0.0000000000            0.0000000000            0.3995866509



                Electronic contributions to dipole moment
                -----------------------------------------

                               au             Debye

                    z     -0.23080357     -0.58664426

  Conversion factor used: 1 a.u. =   2.54174691 Debye 


  Evaluation of 1e integral derivatives required    0.02 seconds.
  Evaluation of 2el integral derivatives

                      Two-electron integral gradient
                      ------------------------------

                         H #1 y     4.3679614838
                         H #1 z    -3.6314586787
                         O #2 z     3.6314586787


 H #1 1     0.0000000000            2.1839807419           -1.8157293393
 H #1 2     0.0000000000           -2.1839807419           -1.8157293393
 O #2       0.0000000000            0.0000000000            3.6314586787


  Evaluation of 2e integral derivatives required    1.41 seconds.

                            Molecular gradient
                            ------------------

                         H #1 y    -0.0000000829
                         H #1 z     0.0000001238
                         O #2 z    -0.0000001238


 H #1 1     0.0000000000           -0.0000000414            0.0000000619
 H #1 2     0.0000000000            0.0000000414            0.0000000619
 O #2       0.0000000000            0.0000000000           -0.0000001238


  Molecular gradient norm 0.194E-06

                           Total dipole moment
                           -------------------

                               au             Debye

                    z      0.75375816      1.91586248

  Conversion factor used: 1 a.u. =   2.54174691 Debye 


  @CHECKOUT-I, Total execution time :       1.4300 seconds.
                0.50 seconds walltime passed
 --executable xvdint finished with status            0
 --invoking executable xjoda
   JODA beginning optimization cycle #  5.
   Retrieving information from last optimization cycle.
 OriVec is   0.000000000000000E+000  -1.00000000000000     
 -3.899171496058455E-017                    -2
   Internal coordinate forces and energy gradients (atomic units): 
           R       dV/dR             R       dV/dR             R       dV/dR
 [R    ]  1.81002  0.0000001 [R    ]  1.81002  0.0000001 [A    ]  1.81040 -0.0000000
                     4                    -1                     0 ****
   Hessian from cycle  4 read.
   BFGS update using last two gradients and previous step.
   Optimization cycle  5.  Updating structure with Newton-Raphson step.
  @EFOL-I, Current internal coordinate Hessian written to FCMINT.
   There are   2 independent internal coordinates which will be optimized.
   Hessian matrix in totally symmetric symmetry coordinates: 
              R         A    
  R          0.545314  0.046328
  A          0.046328  0.165423
   The eigenvectors of the Hessian matrix: 
                   1         2
  R          0.119331  0.992855
  A         -0.992855  0.119331
   The eigenvalues of the Hessian matrix: 
     0.15986    0.55088
   Gradients along Hessian eigenvectors: 
     0.00000    0.00000
   There are  0 negative eigenvalues.
   Summary of Optimization Cycle: 
   The maximum unscaled step is:    0.00000.
   Scale factor set to:  1.00000.
   Forces are in hartree/bohr and hartree/radian.
   Parameter values are in Angstroms and degrees.
--------------------------------------------------------------------------
  Parameter     dV/dR           Step          Rold            Rnew
--------------------------------------------------------------------------
    R       0.0000000708   -0.0000000786    0.9578197794    0.9578197007
    A      -0.0000000418    0.0000178468  103.7281224007  103.7281402475
--------------------------------------------------------------------------
  Minimum force:  0.000000042 / RMS force:  0.000000058
--------------------------------------------------------------------------------
   RMS gradient is below .10000E-04.
   Convergence criterion satisfied.  Optimization completed.
--------------------------------------------------------------------------------
   Interatomic distance matrix (Angstroms) 
 
                 H             O             H    
                [ 1]        [ 2]        [ 3]
  H    [ 1]     0.00000
  O    [ 2]     0.95782     0.00000
  H    [ 3]     1.50674     0.95782     0.00000
 @EFOL-I, Writing out completion flag to disk
                0.00 seconds walltime passed
 --executable xjoda finished with status            0
 --invoking executable xvprop
  @GETMEM-I,   Allocated   22888 MB of main memory.
   Property integrals will be calculated.
 
    --------------------------------------------------------------
                                   Property evaluated at 
    Property type                X             Y             Z
    --------------------------------------------------------------
    Dipole moment               ----          ----          ----  
    Quadrupole moment           ----          ----          ----  
    Octopole moment             ----          ----          ----  
    Relativisitic corr.         ----          ----          ----  
    Second moment            0.0000000     0.0000000    -0.0000000
    Electron density         0.0000000    -1.4236653     0.9926473
    Electron density         0.0000000     1.4236653     0.9926473
    Electron density         0.0000000     0.0000000    -0.1250916
    Field gradient           0.0000000    -1.4236653     0.9926473
    Field gradient           0.0000000     1.4236653     0.9926473
    Field gradient           0.0000000     0.0000000    -0.1250916
    Potential                0.0000000    -1.4236653     0.9926473
    Potential                0.0000000     1.4236653     0.9926473
    Potential                0.0000000     0.0000000    -0.1250916
    --------------------------------------------------------------
  @CHECKOUT-I, Total execution time :       0.1300 seconds.
 --executable xvprop finished with status            0
 --invoking executable xprops
  @DRVPRP-I, Properties computed from the SCF density matrix follow.
   Components of electric dipole moment 
        X =    0.0000000000   Y =    0.0000000000   Z =    0.8017957189
   Components of second moment 
       XX =    5.4238283685  YY =    7.1698454149  ZZ =    6.4231824278
       XY =    0.0000000000  XZ =    0.0000000000  YZ =    0.0000000000
   Components of electric quadrupole moment 
       XX =    1.3100939038  YY =   -1.1211567392  ZZ =   -0.1889371646
       XY =    0.0000000000  XZ =    0.0000000000  YZ =    0.0000000000
   Components of electric octopole moment 
      XXX =    0.0000000000 YYY =   -0.0000000000 ZZZ =   -1.8347745791
      XXY =    0.0000000000 XXZ =   -1.2866124929 XYY =    0.0000000000
      YYZ =    3.1213870720 XZZ =    0.0000000000 YZZ =   -0.0000000000
      XYZ =    0.0000000000
  Relativistic correction to the energy 
      Darwin =    0.1998804957 p**4   =   -0.2514606174 Total  =   -0.0515801216
   Charge densities at atomic centers 
          Z-matrix                               Charge
           center                               Density
              1                              0.4089494391
              3                              0.4089494391
              2                            298.5942876731
   Electric field gradient at atomic centers 
                             Z-matrix center   1:
       XX =   -0.2776998341  YY =    0.2363748787  ZZ =    0.0413249555
       XY =    0.0000000000  XZ =    0.0000000000  YZ =   -0.3409010787
                             Z-matrix center   3:
       XX =   -0.2776998341  YY =    0.2363748787  ZZ =    0.0413249555
       XY =    0.0000000000  XZ =    0.0000000000  YZ =    0.3409010787
                             Z-matrix center   2:
       XX =   -1.8801329832  YY =    1.6717995630  ZZ =    0.2083334204
       XY =    0.0000000000  XZ =    0.0000000000  YZ =    0.0000000000
   Electrostatic potential at atomic centers 
          Z-matrix                             Potential
           center                               [<1/r>]
              1                             -1.0097420412
              3                             -1.0097420412
              2                            -22.3391720864
  @DRVPRP-I, Properties computed from the correlated density matrix follow.
   Components of electric dipole moment 
        X =    0.0000000000   Y =    0.0000000000   Z =    0.7537581613
   Components of second moment 
       XX =    5.4699500075  YY =    7.2767296468  ZZ =    6.5076525387
       XY =    0.0000000000  XZ =    0.0000000000  YZ =    0.0000000000
   Components of electric quadrupole moment 
       XX =    1.3596494344  YY =   -1.1627450979  ZZ =   -0.1969043365
       XY =    0.0000000000  XZ =    0.0000000000  YZ =    0.0000000000
   Components of electric octopole moment 
      XXX =    0.0000000000 YYY =   -0.0000000000 ZZZ =   -1.7346023199
      XXY =    0.0000000000 XXZ =   -1.2033539680 XYY =    0.0000000000
      YYZ =    2.9379562879 XZZ =    0.0000000000 YZZ =   -0.0000000000
      XYZ =    0.0000000000
  Relativistic correction to the energy 
      Darwin =    0.1997696815 p**4   =   -0.2514794470 Total  =   -0.0517097654
   Charge densities at atomic centers 
          Z-matrix                               Charge
           center                               Density
              1                              0.4154391737
              3                              0.4154391737
              2                            298.4270671848
   Electric field gradient at atomic centers 
                             Z-matrix center   1:
       XX =   -0.2836931457  YY =    0.2433029423  ZZ =    0.0403902034
       XY =    0.0000000000  XZ =    0.0000000000  YZ =   -0.3496417399
                             Z-matrix center   3:
       XX =   -0.2836931457  YY =    0.2433029423  ZZ =    0.0403902034
       XY =    0.0000000000  XZ =    0.0000000000  YZ =    0.3496417399
                             Z-matrix center   2:
       XX =   -1.7773958927  YY =    1.5562801674  ZZ =    0.2211157254
       XY =    0.0000000000  XZ =    0.0000000000  YZ =    0.0000000000
   Electrostatic potential at atomic centers 
          Z-matrix                             Potential
           center                               [<1/r>]
              1                             -1.0083165944
              3                             -1.0083165944
              2                            -22.3472981887
 
  Mulliken population analysis of SCF density.
   Total density is analyzed.
 
  Population analysis by orbitals.
 -------------------------------------------------------
     Z-matrix
      Center          Function          Population
 -------------------------------------------------------
         1                S              1.17299093
         3                S              1.17299093
         1                S             -0.24384185
         3                S             -0.24384185
         1                S             -0.25826867
         3                S             -0.25826867
         1                P              0.00425410
         3                P              0.00425410
         1                P              0.03017333
         3                P              0.03017333
         1                P              0.00882698
         3                P              0.00882698
         1                P              0.01012050
         3                P              0.01012050
         1                P              0.00693366
         3                P              0.00693366
         1                P              0.02118764
         3                P              0.02118764
         1                D              0.00036039
         3                D              0.00036039
         1                D              0.00197150
         3                D              0.00197150
         1                D              0.00103214
         3                D              0.00103214
         1                D              0.00099158
         3                D              0.00099158
         1                D              0.00186363
         3                D              0.00186363
         1                D              0.00086451
         3                D              0.00086451
         2                S              1.99863096
         2                S              1.81334559
         2                S             -0.00547786
         2                S             -0.02657819
         2                P              1.83822785
         2                P             -0.01652909
         2                P              0.10142350
         2                P              1.37579946
         2                P             -0.03302885
         2                P             -0.13803321
         2                P              1.57924779
         2                P             -0.02338181
         2                P             -0.00295810
         2                D              0.00039460
         2                D              0.00254270
         2                D              0.00000000
         2                D              0.00000000
         2                D              0.00022901
         2                D              0.00165980
         2                D              0.00007670
         2                D              0.00016919
         2                D              0.00221403
         2                D              0.01057611
         2                D              0.00019618
         2                D              0.00143104
         2                F              0.00004690
         2                F              0.00023965
         2                F              0.00017863
         2                F              0.00006587
         2                F              0.00000000
         2                F              0.00001402
         2                F              0.00001929
         2                F              0.00031889
         2                F              0.00001414
         2                F              0.00000445
 -------------------------------------------------------
  Population analysis by atoms (atomic charges).
 -------------------------------------------------------
     Z-matrix
      Center          Function          Population
 -------------------------------------------------------
         1                               0.75946037
         3                               0.75946037
         2                               8.48107925
 -------------------------------------------------------
 
  Mulliken population analysis of CCSD(T) density.
   Total density is analyzed.
 
  Population analysis by orbitals.
 -------------------------------------------------------
     Z-matrix
      Center          Function          Population
 -------------------------------------------------------
         1                S              1.18247662
         3                S              1.18247662
         1                S             -0.24966089
         3                S             -0.24966089
         1                S             -0.25724612
         3                S             -0.25724612
         1                P              0.00473581
         3                P              0.00473581
         1                P              0.03568853
         3                P              0.03568853
         1                P              0.00851246
         3                P              0.00851246
         1                P              0.00893186
         3                P              0.00893186
         1                P              0.00697763
         3                P              0.00697763
         1                P              0.02403275
         3                P              0.02403275
         1                D              0.00039598
         3                D              0.00039598
         1                D              0.00197768
         3                D              0.00197768
         1                D              0.00104630
         3                D              0.00104630
         1                D              0.00099434
         3                D              0.00099434
         1                D              0.00171820
         3                D              0.00171820
         1                D              0.00088884
         3                D              0.00088884
         2                S              1.99566239
         2                S              1.79175140
         2                S              0.00509736
         2                S             -0.01946631
         2                P              1.82388863
         2                P             -0.04133208
         2                P              0.11697892
         2                P              1.39324631
         2                P             -0.04892176
         2                P             -0.14715426
         2                P              1.57705839
         2                P             -0.04271319
         2                P              0.00111832
         2                D              0.00163818
         2                D              0.00525243
         2                D              0.00183330
         2                D              0.00438017
         2                D              0.00208609
         2                D              0.00607557
         2                D              0.00122414
         2                D              0.00291857
         2                D              0.00376140
         2                D              0.01335621
         2                D              0.00137505
         2                D              0.00410053
         2                F              0.00021299
         2                F              0.00057854
         2                F              0.00051738
         2                F              0.00039031
         2                F              0.00041847
         2                F              0.00035265
         2                F              0.00018534
         2                F              0.00065750
         2                F              0.00035914
         2                F              0.00017199
 -------------------------------------------------------
  Population analysis by atoms (atomic charges).
 -------------------------------------------------------
     Z-matrix
      Center          Function          Population
 -------------------------------------------------------
         1                               0.77146997
         3                               0.77146997
         2                               8.45706006
 -------------------------------------------------------
 --executable xprops finished with status            0
