
    -----------------------------------------------------------------------
          Psi4: An Open-Source Ab Initio Electronic Structure Package
                               Psi4 1.4a2.dev629 

                         Git: Rev {master} 2938fc2 dirty


    D. G. A. Smith, L. A. Burns, A. C. Simmonett, R. M. Parrish,
    M. C. Schieber, R. Galvelis, P. Kraus, H. Kruse, R. Di Remigio,
    A. Alenaizan, A. M. James, S. Lehtola, J. P. Misiewicz, M. Scheurer,
    R. A. Shaw, J. B. Schriber, Y. Xie, Z. L. Glick, D. A. Sirianni,
    J. S. O'Brien, J. M. Waldrop, A. Kumar, E. G. Hohenstein,
    B. P. Pritchard, B. R. Brooks, H. F. Schaefer III, A. Yu. Sokolov,
    K. Patkowski, A. E. DePrince III, U. Bozkaya, R. A. King,
    F. A. Evangelista, J. M. Turney, T. D. Crawford, C. D. Sherrill,
    J. Chem. Phys. 152(18) 184108 (2020). https://doi.org/10.1063/5.0006002

                            Additional Code Authors
    E. T. Seidl, C. L. Janssen, E. F. Valeev, M. L. Leininger,
    J. F. Gonthier, R. M. Richard, H. R. McAlexander, M. Saitow, X. Wang,
    P. Verma, and M. H. Lechner

             Previous Authors, Complete List of Code Contributors,
                       and Citations for Specific Modules
    https://github.com/psi4/psi4/blob/master/codemeta.json
    https://github.com/psi4/psi4/graphs/contributors
    http://psicode.org/psi4manual/master/introduction.html#citing-psifour

    -----------------------------------------------------------------------


    Psi4 started on: Tuesday, 15 September 2020 12:45PM

    Process ID: 3921
    Host:       n049
    PSIDATADIR: /opt/psi/4/master/share/psi4
    Memory:     500.0 MiB
    Threads:    1
    
  ==> Input File <==

--------------------------------------------------------------------------
# o-Benzyne preliminary computations

memory 14 gb

molecule {
  0 1
  C         -1.3714443073         -0.0251390272          0.0000039724  
  O          1.3017070986          0.1200573399          0.0000032863  
  H         -2.0783308173          1.9005914658         -0.0009118442  
  H         -2.0978494655         -0.9666446120          1.6840585345  
  H         -2.0977617266         -0.9681696135         -1.6832344211  
  H          1.9444581089         -1.5718482888         -0.0000116866  
  units bohr
}

set {
  basis=cc-pVTZ
  reference rhf
  e_convergence 10 
  d_convergence 10
  r_convergence 8
  maxiter 300
}

energy('ccsd(t)')
--------------------------------------------------------------------------

  Memory set to  13.039 GiB by Python driver.

Scratch directory: /tmp/

*** tstart() called on n049
*** at Tue Sep 15 12:45:59 2020

   => Loading Basis Set <=

    Name: CC-PVTZ
    Role: ORBITAL
    Keyword: BASIS
    atoms 1   entry C          line   186 file /opt/psi/4/master/share/psi4/basis/cc-pvtz.gbs 
    atoms 2   entry O          line   262 file /opt/psi/4/master/share/psi4/basis/cc-pvtz.gbs 
    atoms 3-6 entry H          line    23 file /opt/psi/4/master/share/psi4/basis/cc-pvtz.gbs 


         ---------------------------------------------------------
                                   SCF
               by Justin Turney, Rob Parrish, Andy Simmonett
                          and Daniel G. A. Smith
                              RHF Reference
                        1 Threads,  13351 MiB Core
         ---------------------------------------------------------

  ==> Geometry <==

    Molecular point group: c1
    Full point group: C1

    Geometry (in Bohr), charge = 0, multiplicity = 1:

       Center              X                  Y                   Z               Mass       
    ------------   -----------------  -----------------  -----------------  -----------------
         C           -1.371444306133    -0.025139026218     0.000003971228    12.000000000000
         O            1.301707099767     0.120057340882     0.000003285128    15.994914619570
         H           -2.078330816133     1.900591466782    -0.000911845372     1.007825032230
         H           -2.097849464333    -0.966644611018     1.684058533328     1.007825032230
         H           -2.097761725433    -0.968169612518    -1.683234422272     1.007825032230
         H            1.944458110067    -1.571848287818    -0.000011687772     1.007825032230

  Running in c1 symmetry.

  Rotational constants: A =      4.30961  B =      0.83125  C =      0.80307 [cm^-1]
  Rotational constants: A = 129198.71283  B =  24920.23246  C =  24075.39634 [MHz]
  Nuclear repulsion =   40.422927713812342

  Charge       = 0
  Multiplicity = 1
  Electrons    = 18
  Nalpha       = 9
  Nbeta        = 9

  ==> Algorithm <==

  SCF Algorithm Type is PK.
  DIIS enabled.
  MOM disabled.
  Fractional occupation disabled.
  Guess Type is SAD.
  Energy threshold   = 1.00e-10
  Density threshold  = 1.00e-10
  Integral threshold = 0.00e+00

  ==> Primary Basis <==

  Basis Set: CC-PVTZ
    Blend: CC-PVTZ
    Number of shells: 44
    Number of basis function: 116
    Number of Cartesian functions: 130
    Spherical Harmonics?: true
    Max angular momentum: 3

  ==> Integral Setup <==

  Using in-core PK algorithm.
   Calculation information:
      Number of atoms:                   6
      Number of AO shells:              44
      Number of primitives:             84
      Number of atomic orbitals:       130
      Number of basis functions:       116

      Integral cutoff                 1.00e-12
      Number of threads:                 1

  Performing in-core PK
  Using 46056582 doubles for integral storage.
  We computed 490497 shell quartets total.
  Whereas there are 490545 unique shell quartets.

  ==> DiskJK: Disk-Based J/K Matrices <==

    J tasked:                  Yes
    K tasked:                  Yes
    wK tasked:                  No
    Memory [MiB]:            10013
    Schwarz Cutoff:          1E-12

    OpenMP threads:              1

  Minimum eigenvalue in the overlap matrix is 1.8327039194E-03.
  Reciprocal condition number of the overlap matrix is 2.7636319799E-04.
    Using symmetric orthogonalization.

  ==> Pre-Iterations <==

  SCF Guess: Superposition of Atomic Densities via on-the-fly atomic UHF (no occupation information).

   -------------------------
    Irrep   Nso     Nmo    
   -------------------------
     A        116     116 
   -------------------------
    Total     116     116
   -------------------------

  ==> Iterations <==

                        Total Energy        Delta E     RMS |[F,P]|

   @RHF iter SAD:  -114.42762197938816   -1.14428e+02   0.00000e+00 
   @RHF iter   1:  -115.01462609378775   -5.87004e-01   3.41934e-03 DIIS
   @RHF iter   2:  -115.07170834111690   -5.70822e-02   1.95016e-03 DIIS
   @RHF iter   3:  -115.08846214148349   -1.67538e-02   3.00959e-04 DIIS
   @RHF iter   4:  -115.08934350419345   -8.81363e-04   8.76787e-05 DIIS
   @RHF iter   5:  -115.08941653591781   -7.30317e-05   2.13154e-05 DIIS
   @RHF iter   6:  -115.08942134206626   -4.80615e-06   4.71069e-06 DIIS
   @RHF iter   7:  -115.08942170562406   -3.63558e-07   1.09497e-06 DIIS
   @RHF iter   8:  -115.08942172705024   -2.14262e-08   2.26609e-07 DIIS
   @RHF iter   9:  -115.08942172795977   -9.09537e-10   4.20454e-08 DIIS
   @RHF iter  10:  -115.08942172798953   -2.97575e-11   1.07637e-08 DIIS
   @RHF iter  11:  -115.08942172799134   -1.80478e-12   2.18749e-09 DIIS
   @RHF iter  12:  -115.08942172799172   -3.83693e-13   3.91832e-10 DIIS
   @RHF iter  13:  -115.08942172799178   -5.68434e-14   7.24413e-11 DIIS
  Energy and wave function converged.


  ==> Post-Iterations <==

    Orbital Energies [Eh]
    ---------------------

    Doubly Occupied:                                                      

       1A    -20.551921     2A    -11.267919     3A     -1.355552  
       4A     -0.924283     5A     -0.688605     6A     -0.619923  
       7A     -0.591561     8A     -0.500976     9A     -0.449320  

    Virtual:                                                              

      10A      0.138711    11A      0.178856    12A      0.220240  
      13A      0.224516    14A      0.290605    15A      0.386047  
      16A      0.405156    17A      0.546680    18A      0.583840  
      19A      0.625089    20A      0.625230    21A      0.639581  
      22A      0.690385    23A      0.707465    24A      0.721380  
      25A      0.833042    26A      0.865333    27A      0.871933  
      28A      0.928055    29A      1.069708    30A      1.101609  
      31A      1.178375    32A      1.189113    33A      1.263816  
      34A      1.272433    35A      1.285747    36A      1.361395  
      37A      1.447552    38A      1.492498    39A      1.523913  
      40A      1.547394    41A      1.585605    42A      1.621657  
      43A      1.778729    44A      2.093316    45A      2.180411  
      46A      2.200758    47A      2.300864    48A      2.322895  
      49A      2.488552    50A      2.510084    51A      2.576395  
      52A      2.805999    53A      2.952485    54A      3.056728  
      55A      3.111157    56A      3.118456    57A      3.145472  
      58A      3.224950    59A      3.245032    60A      3.314158  
      61A      3.315630    62A      3.344497    63A      3.384104  
      64A      3.503308    65A      3.615556    66A      3.634762  
      67A      3.700278    68A      3.710766    69A      3.749559  
      70A      3.760590    71A      3.818574    72A      3.843603  
      73A      3.907145    74A      4.015600    75A      4.027500  
      76A      4.121521    77A      4.162280    78A      4.172775  
      79A      4.250246    80A      4.257368    81A      4.289439  
      82A      4.404124    83A      4.441480    84A      4.469860  
      85A      4.561613    86A      4.585674    87A      4.716597  
      88A      4.787317    89A      4.998799    90A      5.037973  
      91A      5.064680    92A      5.201500    93A      5.274191  
      94A      5.318352    95A      5.373081    96A      5.446581  
      97A      5.547049    98A      5.556128    99A      5.570872  
     100A      5.796286   101A      5.944850   102A      6.197553  
     103A      6.211735   104A      6.247059   105A      6.437118  
     106A      6.646012   107A      7.001106   108A      7.126924  
     109A      7.185910   110A      7.236047   111A      7.358213  
     112A      7.435989   113A      7.594965   114A      7.916263  
     115A     12.157467   116A     13.765802  

    Final Occupation by Irrep:
              A 
    DOCC [     9 ]

  @RHF Final Energy:  -115.08942172799178

   => Energetics <=

    Nuclear Repulsion Energy =             40.4229277138123422
    One-Electron Energy =                -237.1245805100819553
    Two-Electron Energy =                  81.6122310682778505
    Total Energy =                       -115.0894217279917768

Computation Completed


Properties will be evaluated at   0.000000,   0.000000,   0.000000 [a0]

Properties computed using the SCF density matrix

  Nuclear Dipole Moment: [e a0]
     X:    -2.1445      Y:    -0.7964      Z:    -0.0000

  Electronic Dipole Moment: [e a0]
     X:     1.7625      Y:     0.2101      Z:     0.0000

  Dipole Moment: [e a0]
     X:    -0.3820      Y:    -0.5864      Z:    -0.0000     Total:     0.6998

  Dipole Moment: [D]
     X:    -0.9708      Y:    -1.4904      Z:    -0.0001     Total:     1.7787


*** tstop() called on n049 at Tue Sep 15 12:46:03 2020
Module time:
	user time   =       3.29 seconds =       0.05 minutes
	system time =       0.02 seconds =       0.00 minutes
	total time  =          4 seconds =       0.07 minutes
Total time:
	user time   =       3.29 seconds =       0.05 minutes
	system time =       0.02 seconds =       0.00 minutes
	total time  =          4 seconds =       0.07 minutes
 MINTS: Wrapper to libmints.
   by Justin Turney

   Calculation information:
      Number of threads:                 1
      Number of atoms:                   6
      Number of AO shells:              44
      Number of SO shells:              44
      Number of primitives:             84
      Number of atomic orbitals:       130
      Number of basis functions:       116

      Number of irreps:                  1
      Integral cutoff                 0.00e+00
      Number of functions per irrep: [ 116 ]

 OEINTS: Overlap, kinetic, potential, dipole, and quadrupole integrals
         stored in file 35.

      Computing two-electron integrals...done
      Computed 22874616 non-zero two-electron integrals.
        Stored in file 33.


*** tstart() called on n049
*** at Tue Sep 15 12:46:05 2020


	Wfn Parameters:
	--------------------
	Wavefunction         = CCSD_T
	Number of irreps     = 1
	Number of MOs        = 116
	Number of active MOs = 116
	AO-Basis             = NONE
	Semicanonical        = false
	Reference            = RHF
	Print Level          = 1

	IRREP	# MOs	# FZDC	# DOCC	# SOCC	# VIRT	# FZVR
	-----	-----	------	------	------	------	------
	 A	   116	    0	    9	    0	    107	    0
	Transforming integrals...
	IWL integrals will be deleted.
	(OO|OO)...
	Presorting SO-basis two-electron integrals.
	Sorting File: SO Ints (nn|nn) nbuckets = 1
	Transforming the one-electron integrals and constructing Fock matrices
	Starting first half-transformation.
	Sorting half-transformed integrals.
	First half integral transformation complete.
	Starting second half-transformation.
	Two-electron integral transformation complete.
	(OO|OV)...
	Starting second half-transformation.
	Two-electron integral transformation complete.
	(OO|VV)...
	Starting second half-transformation.
	Two-electron integral transformation complete.
	(OV|OO)...
	Starting first half-transformation.
	Sorting half-transformed integrals.
	First half integral transformation complete.
	Starting second half-transformation.
	Two-electron integral transformation complete.
	(OV|OV)...
	Starting second half-transformation.
	Two-electron integral transformation complete.
	(OV|VV)...
	Starting second half-transformation.
	Two-electron integral transformation complete.
	(VV|OO)...
	Starting first half-transformation.
	Sorting half-transformed integrals.
	First half integral transformation complete.
	Starting second half-transformation.
	Two-electron integral transformation complete.
	(VV|OV)...
	Starting second half-transformation.
	Two-electron integral transformation complete.
	(VV|VV)...
	Starting second half-transformation.
	Two-electron integral transformation complete.
	Frozen core energy     =      0.00000000000000

	Size of irrep 0 of <ab|cd> integrals:    131.080 (MW) /   1048.637 (MB)
	Total:                                   131.080 (MW) /   1048.637 (MB)

	Size of irrep 0 of <ia|bc> integrals:     11.025 (MW) /     88.203 (MB)
	Total:                                    11.025 (MW) /     88.203 (MB)

	Size of irrep 0 of tijab amplitudes:       0.927 (MW) /      7.419 (MB)
	Total:                                     0.927 (MW) /      7.419 (MB)

	Nuclear Rep. energy          =     40.42292771381234
	SCF energy                   =   -115.08942172799178
	One-electron energy          =   -237.12458054204367
	Two-electron energy          =     81.61223110023973
	Reference energy             =   -115.08942172799162

*** tstop() called on n049 at Tue Sep 15 12:46:15 2020
Module time:
	user time   =       7.83 seconds =       0.13 minutes
	system time =       2.70 seconds =       0.05 minutes
	total time  =         10 seconds =       0.17 minutes
Total time:
	user time   =      12.65 seconds =       0.21 minutes
	system time =       2.91 seconds =       0.05 minutes
	total time  =         16 seconds =       0.27 minutes
            **************************
            *                        *
            *        CCENERGY        *
            *                        *
            **************************

    Nuclear Rep. energy (wfn)     =   40.422927713812342
    SCF energy          (wfn)     = -115.089421727991777
    Reference energy    (file100) = -115.089421727991621

    Input parameters:
    -----------------
    Wave function   =     CCSD_T
    Reference wfn   =     RHF
    Brueckner       =     No
    Memory (Mbytes) =     14000.0
    Maxiter         =    300
    R_Convergence   =     1.0e-08
    E_Convergence   =     1.0e-10
    Restart         =     Yes
    DIIS            =     Yes
    AO Basis        =     NONE
    ABCD            =     NEW
    Cache Level     =     2
    Cache Type      =     LOW
    Print Level     =     1
    Num. of threads =     1
    # Amps to Print =     10
    Print MP2 Amps? =     No
    Analyze T2 Amps =     No
    Print Pair Ener =     No
    Local CC        =     No
    SCS-MP2         =     False
    SCSN-MP2        =     False
    SCS-CCSD        =     False

MP2 correlation energy -0.4573999469233386
                Solving CC Amplitude Equations
                ------------------------------
  Iter             Energy              RMS        T1Diag      D1Diag    New D1Diag    D2Diag
  ----     ---------------------    ---------   ----------  ----------  ----------   --------
     0        -0.457399946923339    0.000e+00    0.000000    0.000000    0.000000    0.128063
     1        -0.464937905838041    4.760e-02    0.006477    0.014784    0.014784    0.129174
     2        -0.474889289844372    1.561e-02    0.006587    0.014745    0.014745    0.134885
     3        -0.476357529018512    5.465e-03    0.007380    0.016813    0.016813    0.136300
     4        -0.476254769958544    1.201e-03    0.007432    0.016954    0.016954    0.136527
     5        -0.476294592263816    4.336e-04    0.007464    0.017087    0.017087    0.136624
     6        -0.476303144140627    1.226e-04    0.007474    0.017138    0.017138    0.136631
     7        -0.476300965492259    4.547e-05    0.007476    0.017152    0.017152    0.136629
     8        -0.476300831071654    1.690e-05    0.007477    0.017161    0.017161    0.136629
     9        -0.476300936044416    4.889e-06    0.007477    0.017163    0.017163    0.136629
    10        -0.476300691692288    1.557e-06    0.007477    0.017163    0.017163    0.136628
    11        -0.476300758904069    4.780e-07    0.007477    0.017163    0.017163    0.136628
    12        -0.476300744663118    1.167e-07    0.007477    0.017163    0.017163    0.136628
    13        -0.476300747747088    4.166e-08    0.007477    0.017163    0.017163    0.136628
    14        -0.476300748891913    1.187e-08    0.007477    0.017163    0.017163    0.136628
    15        -0.476300748934205    4.890e-09    0.007477    0.017163    0.017163    0.136628
    16        -0.476300748963225    1.529e-09    0.007477    0.017163    0.017163    0.136628

    Iterations converged.


    Largest TIA Amplitudes:
              5   6        -0.0079485070
              5  14         0.0076405513
              5   9         0.0069736080
              8  14        -0.0064047525
              6   7         0.0059597168
              6   3        -0.0059295443
              7   8         0.0058851959
              5   2         0.0055929219
              8   6         0.0052985210
              6   5        -0.0051056255

    Largest TIjAb Amplitudes:
      5   5   9   9        -0.0230615707
      8   8  14  14        -0.0212629615
      6   6   7   7        -0.0209129475
      7   7  12  12        -0.0205070781
      4   4   7   7        -0.0191722949
      6   6   8   8        -0.0162568052
      5   5  14  14        -0.0152032809
      7   7   7   7        -0.0151081843
      5   5   2   9        -0.0149362076
      5   5   9   2        -0.0149362076

    SCF energy       (wfn)                    = -115.089421727991777
    Reference energy (file100)                = -115.089421727991621

    Opposite-spin MP2 correlation energy      =   -0.353831342780375
    Same-spin MP2 correlation energy          =   -0.103568604142963
    Singles MP2 correlation energy            =   -0.000000000000000
    MP2 correlation energy                    =   -0.457399946923339
      * MP2 total energy                      = -115.546821674914966

    Opposite-spin CCSD correlation energy     =   -0.381792482438240
    Same-spin CCSD correlation energy         =   -0.094508266524986
    Singles CCSD correlation energy           =    0.000000000000000
    CCSD correlation energy                   =   -0.476300748963225
      * CCSD total energy                     = -115.565722476954846

            **************************
            *                        *
            *        CCTRIPLES       *
            *                        *
            **************************


    Wave function   =    CCSD_T
    Reference wfn   =      RHF

    Nuclear Rep. energy (wfn)                =   40.422927713812342
    SCF energy          (wfn)                = -115.089421727991777
    Reference energy    (file100)            = -115.089421727991621
    CCSD energy         (file100)            =   -0.476300748963225
    Total CCSD energy   (file100)            = -115.565722476954846

    Number of ijk index combinations:              165
    Memory available in words        :      1750000000
    ~Words needed per explicit thread:         4900172
    Number of threads for explicit ijk threading:    1

    MKL num_threads set to 1 for explicit threading.

    (T) energy                                =   -0.015042528559575
      * CCSD(T) total energy                  = -115.580765005514422


    Psi4 stopped on: Tuesday, 15 September 2020 12:47PM
    Psi4 wall time for execution: 0:01:05.12

*** Psi4 exiting successfully. Buy a developer a beer!
