
 Working directory              : /scratch/mel64643/tmp/40073270/
 Global scratch directory       : /scratch/mel64643/tmp/40073270/
 Wavefunction directory         : /home/mel64643/wfu/
 Main file repository           : /scratch/mel64643/tmp/40073270/

 id        : ccgc

 Nodes     nprocs
 a1-8         3
 Distribution of processes:   nprocs(total)=    4   nprocs(compute)=    3   nprocs(helper)=    1
 GA implementation: MPI file
 GA implementation (serial work in mppx): MPI file

 Using customized tuning parameters: mindgm=1; mindgv=20; mindgc=4; mindgr=1; noblas=0; minvec=7
 default implementation of scratch files=sf  


 Variables initialized (1015), CPU time= 0.00 sec
 ***,Optimization of min3
 memory,1000,m
 gthresh,energy=1.0d-12,orbital=1.0d-10,oneint=1.0d-16,twoint=1.0d-16,optgrad=1.0d-6,compress=1.0d-13
 geomtyp=xyz
 
  bohr
  geometry = {
  6
  arbitrary comment
  C   -1.3639084392   -0.0202425336    0.0000000555
  O    1.3018923259    0.1248860806    0.0000004353
  H   -2.0802125384    1.9054073415   -0.0000798038
  H   -2.0973784557   -0.9811498835    1.6814604757
  H   -2.0973711092   -0.9812810416   -1.6813883315
  H    1.9132540565   -1.5777520833   -0.0000012412
 }
 
 basis=cc-pvdz
 {rhf;maxit,200}
 {ccsd(t);maxit,200}
 Commands initialized (818), CPU time= 0.01 sec, 672 directives.
 Default parameters read. Elapsed time= 0.09 sec

 Checking input...
 Passed
1


                                         ***  PROGRAM SYSTEM MOLPRO  ***
                                       Copyright, TTI GmbH Stuttgart, 2015
                                    Version 2022.1 linked Mar  4 2022 00:40:14


 **********************************************************************************************************************************
 LABEL *   Optimization of min3                                                          
  64 bit mpp version                                                                     DATE: 07-Aug-25          TIME: 21:25:03  
 **********************************************************************************************************************************

 SHA1:             31073afc4d8441e10870424e0d77336a33bc4286
 **********************************************************************************************************************************

 Memory per process:      1000 MW
 Total memory per node:   3000 MW

 GA preallocation disabled
 GA check disabled

 Variable memory set to 1000.0 MW


 THRESHOLDS:

 ZERO    =  1.00D-12  ONEINT  =  1.00D-16  TWOINT  =  1.00D-16  PREFAC  =  1.00D-14  XXXXXX  =  1.00D-09  EORDER  =  1.00D-04
 ENERGY  =  1.00D-12  ETEST   =  0.00D+00  EDENS   =  0.00D+00  THRDEDEF=  1.00D-06  GRADIENT=  1.00D-05  STEP    =  1.00D-03
 ORBITAL =  1.00D-10  CIVEC   =  1.00D-05  COEFF   =  1.00D-04  PRINTCI =  5.00D-02  PUNCHCI =  9.90D+01  OPTGRAD =  1.00D-06
 OPTENERG=  1.00D-06  OPTSTEP =  3.00D-04  THRGRAD =  1.00D-10  COMPRESS=  1.00D-13  VARMIN  =  1.00D-07  VARMAX  =  1.00D-03
 THRDOUB =  0.00D+00  THRDIV  =  1.00D-05  THRRED  =  1.00D-07  THRPSP  =  1.00D+00  THRDC   =  1.00D-10  THRCS   =  1.00D-10
 THRNRM  =  1.00D-08  THREQ   =  0.00D+00  THRDE   =  1.00D+00  THRREF  =  1.00D-05  SPARFAC =  1.00D+00  THRDLP  =  1.00D-07
 THRDIA  =  1.00D-10  THRDLS  =  1.00D-07  THRGPS  =  0.00D+00  THRKEX  =  0.00D+00  THRDIS  =  2.00D-01  THRVAR  =  1.00D-10
 THRLOC  =  1.00D-06  THRGAP  =  1.00D-06  THRLOCT = -1.00D+00  THRGAPT = -1.00D+00  THRORB  =  1.00D-06  THRMLTP =  0.00D+00
 THRCPQCI=  1.00D-10  KEXTA   =  0.00D+00  THRCOARS=  0.00D+00  SYMTOL  =  1.00D-06  GRADTOL =  1.00D-06  THROVL  =  1.00D-08
 THRORTH =  1.00D-08  THRDLOVL= -1.00D+00  GRID    =  1.00D-06  GRIDMAX =  1.00D-03  DTMAX   =  0.00D+00  THROCCDE=  1.00D-01
 THROCCDE=  1.00D-01  THRPRINT=  2.50D-01

 SETTING GEOMTYP        =    XYZ
 ZUNIT=BOHR

 SETTING BASIS          =    CC-PVDZ


 Recomputing integrals since basis changed


 Using spherical harmonics

 Library entry C      S cc-pVDZ              selected for orbital group  1
 Library entry C      P cc-pVDZ              selected for orbital group  1
 Library entry C      D cc-pVDZ              selected for orbital group  1
 Library entry O      S cc-pVDZ              selected for orbital group  2
 Library entry O      P cc-pVDZ              selected for orbital group  2
 Library entry O      D cc-pVDZ              selected for orbital group  2
 Library entry H      S cc-pVDZ              selected for orbital group  3
 Library entry H      P cc-pVDZ              selected for orbital group  3


 PROGRAM * SEWARD (Integral evaluation for generally contracted gaussian basis sets)     Author: Roland Lindh, 1990

 Geometry written to block  1 of record 700


 Point group  C1  



 ATOMIC COORDINATES

 NR  ATOM    CHARGE       X              Y              Z

   1  C       6.00   -1.363908439   -0.020242534    0.000000056
   2  O       8.00    1.301892326    0.124886081    0.000000435
   3  H       1.00   -2.080212538    1.905407341   -0.000079804
   4  H       1.00   -2.097378456   -0.981149883    1.681460476
   5  H       1.00   -2.097371109   -0.981281042   -1.681388331
   6  H       1.00    1.913254057   -1.577752083   -0.000001241

 Bond lengths in Bohr (Angstrom)

 1-2  2.669748309  1-3  2.054560539  1-4  2.070900853  1-5  2.070900628  2-6  1.809071553
     ( 1.412769964)     ( 1.087226616)     ( 1.095873538)     ( 1.095873418)     ( 0.957319439)

 Bond angles

  1-2-6  106.63539685   2-1-3  107.28805873   2-1-4  112.26425446   2-1-5  112.26426516

  3-1-4  108.14611317   3-1-5  108.14596319   4-1-5  108.56966428

 NUCLEAR CHARGE:                   18
 NUMBER OF PRIMITIVE AOS:          82
 NUMBER OF SYMMETRY AOS:           80
 NUMBER OF CONTRACTIONS:           48   (   48A   )
 NUMBER OF INNER CORE ORBITALS:     0   (    0A   )
 NUMBER OF OUTER CORE ORBITALS:     2   (    2A   )
 NUMBER OF VALENCE ORBITALS:       12   (   12A   )


 NUCLEAR REPULSION ENERGY   40.45356250

 Eigenvalues of metric

         1 0.964E-02 0.175E-01 0.368E-01 0.375E-01 0.380E-01 0.475E-01 0.478E-01 0.513E-01


 Contracted 2-electron integrals neglected if value below      1.0D-16
 AO integral compression algorithm  1   Integral accuracy      1.0D-16

     6.554 MB (compressed) written to integral file (100.0%)

     Node minimum: 2.097 MB, node maximum: 2.359 MB


 NUMBER OF SORTED TWO-ELECTRON INTEGRALS:     231084.     BUFFER LENGTH:  32768
 NUMBER OF SEGMENTS:   1  SEGMENT LENGTH:     231084      RECORD LENGTH: 524288

 Memory used in sort:       0.79 MW

 SORT1 READ      832256. AND WROTE      227683. INTEGRALS IN      1 RECORDS. CPU TIME:     0.01 SEC, REAL TIME:     0.03 SEC
 SORT2 READ      682150. AND WROTE      692076. INTEGRALS IN     24 RECORDS. CPU TIME:     0.01 SEC, REAL TIME:     0.02 SEC

 Node minimum:      230300.  Node maximum:      231084. integrals

 OPERATOR DM      FOR CENTER  0  COORDINATES:    0.000000    0.000000    0.000000


 **********************************************************************************************************************************
 DATASETS  * FILE   NREC   LENGTH (MB)   RECORD NAMES
              1      18       28.73       500      610      700      900      950      970     1000      129      960     1100   
                                          VAR    BASINP    GEOM    SYMINP    ZMAT    AOBASIS   BASIS     P2S    ABASIS      S 
                                         1400     1410     1200     1210     1080     1600     1650     1700   
                                           T        V       H0       H01     AOSYM     SMH    MOLCAS    OPER   

 PROGRAMS   *        TOTAL       INT
 CPU TIMES  *         0.36      0.23
 REAL TIME  *         1.00 SEC
 DISK USED  *        29.07 MB (local),      104.32 MB (total)
 GA USED    *         0.00 MB       (max)       0.00 MB       (current)
 **********************************************************************************************************************************


 Program * Restricted Hartree-Fock

 Orbital guess generated from atomic densities. Full valence occupancy:   14

 Initial occupancy:   9

 NELEC=   18   SYM=1   MS2= 0   THRE=1.0D-12   THRD=1.0D-10   THRG=1.0D-10  HFMA2=F  DIIS_START=2   DIIS_MAX=10   DIIS_INCORE=F

 Level shifts:    0.00 (CLOSED)    0.00 (OPEN)    0.30 (GAP_MIN)

 ITER           ETOT              DE          GRAD        DDIFF     DIIS  NEXP   TIME(IT)  TIME(TOT)  DIAG
   1     -115.01440825    -115.01440825     0.00D+00     0.16D+00     0     0       0.00      0.00    start
   2     -115.04283499      -0.02842674     0.10D-01     0.21D-01     1     0       0.00      0.00    diag
   3     -115.04879722      -0.00596223     0.48D-02     0.64D-02     2     0       0.00      0.00    diag
   4     -115.04925999      -0.00046276     0.10D-02     0.20D-02     3     0       0.01      0.01    diag
   5     -115.04928094      -0.00002095     0.18D-03     0.43D-03     4     0       0.00      0.01    diag
   6     -115.04928173      -0.00000079     0.32D-04     0.93D-04     5     0       0.01      0.02    diag
   7     -115.04928176      -0.00000003     0.67D-05     0.15D-04     6     0       0.00      0.02    diag
   8     -115.04928176      -0.00000000     0.22D-05     0.50D-05     7     0       0.00      0.02    fixocc
   9     -115.04928176      -0.00000000     0.45D-06     0.14D-05     8     0       0.01      0.03    diag
  10     -115.04928176      -0.00000000     0.73D-07     0.24D-06     9     0       0.00      0.03    diag/orth
  11     -115.04928176      -0.00000000     0.17D-07     0.47D-07     9     0       0.00      0.03    diag
  12     -115.04928176       0.00000000     0.43D-08     0.14D-07     9     0       0.00      0.03    diag
  13     -115.04928176       0.00000000     0.66D-09     0.19D-08     9     0       0.00      0.03    diag
  14     -115.04928176       0.00000000     0.14D-09     0.38D-09     9     0       0.00      0.03    diag
  15     -115.04928176       0.00000000     0.60D-10     0.11D-09     9     0       0.00      0.03    diag
  16     -115.04928176      -0.00000000     0.13D-10     0.31D-10     9     0       0.01      0.04    diag
  17     -115.04928176       0.00000000     0.22D-11     0.45D-11     0     0       0.00      0.04    diag

 Final occupancy:   9

 !RHF STATE 1.1 Energy               -115.049281762855
  RHF One-electron energy            -237.153077113048
  RHF Two-electron energy              81.650232845714
  RHF Kinetic energy                  114.964662500761
  RHF Nuclear energy                   40.453562504478
  RHF Virial quotient                  -1.000736045844

 !RHF STATE 1.1 Dipole moment          -0.38814371    -0.59385413    -0.00000302
 Dipole moment /Debye                  -0.98656291    -1.50942663    -0.00000767

 Orbital energies:

           1.1          2.1          3.1          4.1          5.1          6.1          7.1          8.1          9.1         10.1
    -20.550279   -11.274050    -1.354062    -0.920896    -0.685132    -0.614770    -0.587254    -0.497450    -0.442412     0.184341

          11.1
      0.225041


 HOMO      9.1    -0.442412 =     -12.0386eV
 LUMO     10.1     0.184341 =       5.0162eV
 LUMO-HOMO         0.626752 =      17.0548eV

 Orbitals saved in record  2100.2


 **********************************************************************************************************************************
 DATASETS  * FILE   NREC   LENGTH (MB)   RECORD NAMES
              1      18       28.73       500      610      700      900      950      970     1000      129      960     1100   
                                          VAR    BASINP    GEOM    SYMINP    ZMAT    AOBASIS   BASIS     P2S    ABASIS      S 
                                         1400     1410     1200     1210     1080     1600     1650     1700   
                                           T        V       H0       H01     AOSYM     SMH    MOLCAS    OPER   

              2       4        0.47       700     1000      520     2100   
                                         GEOM     BASIS   MCVARS     RHF  

 PROGRAMS   *        TOTAL   RHF-SCF       INT
 CPU TIMES  *         0.41      0.05      0.23
 REAL TIME  *         1.34 SEC
 DISK USED  *        29.40 MB (local),      105.31 MB (total)
 GA USED    *         0.00 MB       (max)       0.00 MB       (current)
 **********************************************************************************************************************************


 PROGRAM * CCSD (Closed-shell coupled cluster)     Authors: C. Hampel, H.-J. Werner, 1991, M. Deegan, P.J. Knowles, 1992


 Convergence thresholds:  THRVAR = 1.00D-08  THRDEN = 1.00D-12

 CCSD(T)     terms to be evaluated (factor= 1.000)


 Number of core orbitals:           2 (   2 )
 Number of closed-shell orbitals:   7 (   7 )
 Number of external orbitals:      39 (  39 )

 Molecular orbitals read from record     2100.2  Type=RHF/CANONICAL  

 Number of N-1 electron functions:               7
 Number of N-2 electron functions:              28
 Number of singly external CSFs:               273
 Number of doubly external CSFs:             37401
 Total number of CSFs:                       37675

 Length of J-op  integral file:               0.00 MB
 Length of K-op  integral file:               0.16 MB
 Length of 3-ext integral record:             0.00 MB

 Memory could be reduced to 0.73 Mwords without degradation in triples

 Integral transformation finished. Total CPU:   0.02 sec, npass=  1  Memory used:   0.66 MW

 Reference energy:                   -115.04928176

 MP2 singlet pair energy:              -0.21845900
 MP2 triplet pair energy:              -0.11984028
 MP2 correlation energy:               -0.33829927
 MP2 total energy:                   -115.38758103

 SCS-MP2 correlation energy:           -0.33671808   (PS=  1.200000  PT=  0.333333)
 SCS-MP2 total energy:               -115.38599984

 ITER.      SQ.NORM     CORR.ENERGY   TOTAL ENERGY   ENERGY CHANGE        DEN1      VAR(S)    VAR(P)  DIIS     TIME  TIME/IT
   1      1.10708995    -0.36109905  -115.41038081    -0.02279978    -0.01415846  0.90D-03  0.17D-02  1  1     0.04     0.04
   2      1.11556374    -0.36303292  -115.41231468    -0.00193387    -0.00921685  0.19D-04  0.16D-03  2  2     0.06     0.05
   3      1.11741770    -0.36315807  -115.41243983    -0.00012516    -0.00118966  0.93D-05  0.85D-05  3  3     0.07     0.04
   4      1.11792377    -0.36315666  -115.41243842     0.00000141    -0.00025171  0.31D-06  0.66D-06  4  4     0.09     0.04
   5      1.11801906    -0.36315708  -115.41243885    -0.00000043    -0.00003525  0.93D-07  0.47D-07  5  5     0.11     0.04
   6      1.11803727    -0.36315578  -115.41243755     0.00000130    -0.00000425  0.15D-07  0.39D-08  6  6     0.13     0.03
   7      1.11804175    -0.36315538  -115.41243714     0.00000040    -0.00000034  0.19D-08  0.67D-09  6  1     0.14     0.03
   8      1.11804295    -0.36315548  -115.41243724    -0.00000010     0.00000072  0.24D-09  0.66D-10  6  3     0.16     0.03
   9      1.11804397    -0.36315536  -115.41243712     0.00000012    -0.00000037  0.11D-10  0.99D-11  6  2     0.18     0.03
  10      1.11804390    -0.36315536  -115.41243713    -0.00000000     0.00000007  0.10D-11  0.81D-12  6  5     0.20     0.03
  11      1.11804393    -0.36315536  -115.41243712     0.00000000    -0.00000000  0.17D-12  0.47D-13  6  4     0.22     0.03
  12      1.11804392    -0.36315536  -115.41243713    -0.00000000     0.00000001  0.17D-13  0.90D-14  6  1     0.23     0.03
  13      1.11804392    -0.36315536  -115.41243713    -0.00000000    -0.00000000  0.22D-14  0.85D-15  6  6     0.25     0.03
  14      1.11804392    -0.36315536  -115.41243713     0.00000000    -0.00000000  0.21D-15  0.11D-15  6  3     0.27     0.03
  15      1.11804392    -0.36315536  -115.41243713    -0.00000000    -0.00000000  0.23D-16  0.15D-16  6  2     0.29     0.03
  16      1.11804392    -0.36315536  -115.41243713    -0.00000000    -0.00000000  0.50D-17  0.15D-17  6  5     0.31     0.03
  17      1.11804392    -0.36315536  -115.41243713    -0.00000000    -0.00000000  0.48D-18  0.23D-18  6  4     0.33     0.03
  18      1.11804392    -0.36315536  -115.41243713     0.00000000    -0.00000000  0.74D-19  0.38D-19  6  1     0.34     0.03
  19      1.11804392    -0.36315536  -115.41243713    -0.00000000    -0.00000000  0.80D-20  0.39D-20  6  6     0.36     0.03
  20      1.11804392    -0.36315536  -115.41243713     0.00000000     0.00000000  0.11D-20  0.49D-21  6  3     0.38     0.03

 Norm of t1 vector:      0.04135946      S-energy:    -0.00000000      T1 diagnostic:  0.00781620
                                                                       D1 diagnostic:  0.01708986
                                                                       D2 diagnostic:  0.13397093 (internal)


 Total CPU time for triples:      0.08 sec


 RESULTS
 =======

  Reference energy                   -115.049281762855
  CCSD singlet pair energy             -0.254329611959
  CCSD triplet pair energy             -0.108825751596
  CCSD correlation energy              -0.363155363555

  Triples (T) contribution             -0.007711264371
  Total correlation energy             -0.370866627926

  CCSD total energy                  -115.412437126411
  CCSD[T] energy                     -115.420435410673
  CCSD-T energy                      -115.419999974846
 !CCSD(T) total energy               -115.420148390781

 Timing summary (sec):

 STEP                 CPU(USER)    SYS     CPU(TOT)    WALL
 Transformation          0.02      0.00      0.02      0.03
 CCSD iterations         0.36      0.07      0.43      0.69
 Triples                 0.08      0.00      0.08      0.08

 Program statistics:

 Available memory in ccsd:               999999795
 Min. memory needed in ccsd:                136177
 Max. memory used in ccsd:                  162910
 Max. memory used in cckext:                178997 (20 integral passes)



 **********************************************************************************************************************************
 DATASETS  * FILE   NREC   LENGTH (MB)   RECORD NAMES
              1      19       31.13       500      610      700      900      950      970     1000      129      960     1100   
                                          VAR    BASINP    GEOM    SYMINP    ZMAT    AOBASIS   BASIS     P2S    ABASIS      S 
                                         1400     1410     1200     1210     1080     1600     1650     1700     1380   
                                           T        V       H0       H01     AOSYM     SMH    MOLCAS    OPER     JKOP   

              2       4        0.47       700     1000      520     2100   
                                         GEOM     BASIS   MCVARS     RHF  

 PROGRAMS   *        TOTAL   CCSD(T)   RHF-SCF       INT
 CPU TIMES  *         0.91      0.49      0.05      0.23
 REAL TIME  *         2.21 SEC
 DISK USED  *        35.56 MB (local),      115.96 MB (total)
 SF USED    *         5.97 MB
 GA USED    *         0.00 MB       (max)       0.00 MB       (current)
 **********************************************************************************************************************************

 CCSD(T)/cc-pVDZ energy=   -115.420148390781

         CCSD(T)         RHF-SCF
   -115.42014839   -115.04928176
 **********************************************************************************************************************************
 Molpro calculation terminated
