
    -----------------------------------------------------------------------
          Psi4: An Open-Source Ab Initio Electronic Structure Package
                               Psi4 1.4a2.dev629 

                         Git: Rev {master} 2938fc2 dirty


    D. G. A. Smith, L. A. Burns, A. C. Simmonett, R. M. Parrish,
    M. C. Schieber, R. Galvelis, P. Kraus, H. Kruse, R. Di Remigio,
    A. Alenaizan, A. M. James, S. Lehtola, J. P. Misiewicz, M. Scheurer,
    R. A. Shaw, J. B. Schriber, Y. Xie, Z. L. Glick, D. A. Sirianni,
    J. S. O'Brien, J. M. Waldrop, A. Kumar, E. G. Hohenstein,
    B. P. Pritchard, B. R. Brooks, H. F. Schaefer III, A. Yu. Sokolov,
    K. Patkowski, A. E. DePrince III, U. Bozkaya, R. A. King,
    F. A. Evangelista, J. M. Turney, T. D. Crawford, C. D. Sherrill,
    J. Chem. Phys. 152(18) 184108 (2020). https://doi.org/10.1063/5.0006002

                            Additional Code Authors
    E. T. Seidl, C. L. Janssen, E. F. Valeev, M. L. Leininger,
    J. F. Gonthier, R. M. Richard, H. R. McAlexander, M. Saitow, X. Wang,
    P. Verma, and M. H. Lechner

             Previous Authors, Complete List of Code Contributors,
                       and Citations for Specific Modules
    https://github.com/psi4/psi4/blob/master/codemeta.json
    https://github.com/psi4/psi4/graphs/contributors
    http://psicode.org/psi4manual/master/introduction.html#citing-psifour

    -----------------------------------------------------------------------


    Psi4 started on: Tuesday, 08 September 2020 04:06PM

    Process ID: 18318
    Host:       n029
    PSIDATADIR: /opt/psi/4/master/share/psi4
    Memory:     500.0 MiB
    Threads:    1
    
  ==> Input File <==

--------------------------------------------------------------------------
# o-Benzyne preliminary computations

memory 14 gb

molecule {
  0 1
  H          0.0000000000         -1.4210937217          0.9959619353  
  O          0.0000000000          0.0000000000         -0.1255093096  
  H          0.0000000000          1.4210937217          0.9959619353  
  units bohr
}

set {
  basis=cc-pVTZ
  reference rhf
  e_convergence 10 
  d_convergence 10
  r_convergence 8
  maxiter 300
}

energy('ccsd(t)')
--------------------------------------------------------------------------

  Memory set to  13.039 GiB by Python driver.

Scratch directory: /tmp/

*** tstart() called on n029
*** at Tue Sep  8 16:06:52 2020

   => Loading Basis Set <=

    Name: CC-PVTZ
    Role: ORBITAL
    Keyword: BASIS
    atoms 1, 3 entry H          line    23 file /opt/psi/4/master/share/psi4/basis/cc-pvtz.gbs 
    atoms 2    entry O          line   262 file /opt/psi/4/master/share/psi4/basis/cc-pvtz.gbs 


         ---------------------------------------------------------
                                   SCF
               by Justin Turney, Rob Parrish, Andy Simmonett
                          and Daniel G. A. Smith
                              RHF Reference
                        1 Threads,  13351 MiB Core
         ---------------------------------------------------------

  ==> Geometry <==

    Molecular point group: c2v
    Full point group: C2v

    Geometry (in Bohr), charge = 0, multiplicity = 1:

       Center              X                  Y                   Z               Mass       
    ------------   -----------------  -----------------  -----------------  -----------------
         H            0.000000000000    -1.421093721700     0.995961932631     1.007825032230
         O            0.000000000000     0.000000000000    -0.125509312269    15.994914619570
         H           -0.000000000000     1.421093721700     0.995961932631     1.007825032230

  Running in c2v symmetry.

  Rotational constants: A =     26.73919  B =     14.78882  C =      9.52228 [cm^-1]
  Rotational constants: A = 801620.68508  B = 443357.80212  C = 285470.62357 [MHz]
  Nuclear repulsion =    9.190130110102235

  Charge       = 0
  Multiplicity = 1
  Electrons    = 10
  Nalpha       = 5
  Nbeta        = 5

  ==> Algorithm <==

  SCF Algorithm Type is PK.
  DIIS enabled.
  MOM disabled.
  Fractional occupation disabled.
  Guess Type is SAD.
  Energy threshold   = 1.00e-10
  Density threshold  = 1.00e-10
  Integral threshold = 0.00e+00

  ==> Primary Basis <==

  Basis Set: CC-PVTZ
    Blend: CC-PVTZ
    Number of shells: 22
    Number of basis function: 58
    Number of Cartesian functions: 65
    Spherical Harmonics?: true
    Max angular momentum: 3

  ==> Integral Setup <==

  Using in-core PK algorithm.
   Calculation information:
      Number of atoms:                   3
      Number of AO shells:              22
      Number of primitives:             42
      Number of atomic orbitals:        65
      Number of basis functions:        58

      Integral cutoff                 1.00e-12
      Number of threads:                 1

  Performing in-core PK
  Using 2929232 doubles for integral storage.
  We computed 32131 shell quartets total.
  Whereas there are 32131 unique shell quartets.

  ==> DiskJK: Disk-Based J/K Matrices <==

    J tasked:                  Yes
    K tasked:                  Yes
    wK tasked:                  No
    Memory [MiB]:            10013
    Schwarz Cutoff:          1E-12

    OpenMP threads:              1


Traceback (most recent call last):
  File "/opt/psi/4/master/bin/psi4", line 331, in <module>
    exec(content)
  File "<string>", line 35, in <module>
  File "/opt/psi/4/master/lib/psi4/driver/driver.py", line 570, in energy
    wfn = procedures['energy'][lowername](lowername, molecule=molecule, **kwargs)
  File "/opt/psi/4/master/lib/psi4/driver/procrouting/proc.py", line 944, in select_ccsd_t_
    return func(name, **kwargs)
  File "/opt/psi/4/master/lib/psi4/driver/procrouting/proc.py", line 2557, in run_ccenergy
    ref_wfn = scf_helper(name, **kwargs)  # C1 certified
  File "/opt/psi/4/master/lib/psi4/driver/procrouting/proc.py", line 1527, in scf_helper
    e_scf = scf_wfn.compute_energy()
  File "/opt/psi/4/master/lib/psi4/driver/procrouting/scf_proc/scf_iterator.py", line 83, in scf_compute_energy
    self.initialize()
  File "/opt/psi/4/master/lib/psi4/driver/procrouting/scf_proc/scf_iterator.py", line 197, in scf_initialize
    self.form_H()

RuntimeError: 
Fatal Error: PSIO Error
Error occurred in file: /tmp/psi4/psi4/psi4/src/psi4/libpsio/error.cc on line: 134
The most recent 5 function calls were:

psi::PSIO::open(unsigned long, int)



Printing out the relevant lines from the Psithon --> Python processed input file:
    core.set_global_option("REFERENCE", "rhf")
    core.set_global_option("E_CONVERGENCE", 10)
    core.set_global_option("D_CONVERGENCE", 10)
    core.set_global_option("R_CONVERGENCE", 8)
    core.set_global_option("MAXITER", 300)
--> energy('ccsd(t)')

!----------------------------------------------------------------------------------!
!                                                                                  !
! Fatal Error: PSIO Error                                                          !
! Error occurred in file: /tmp/psi4/psi4/psi4/src/psi4/libpsio/error.cc on line:   !
!     134                                                                          !
! The most recent 5 function calls were:                                           !
! psi::PSIO::open(unsigned long, int)                                              !
!                                                                                  !
!----------------------------------------------------------------------------------!

    Psi4 stopped on: Tuesday, 08 September 2020 04:06PM
    Psi4 wall time for execution: 0:00:00.43

*** Psi4 encountered an error. Buy a developer more coffee!
*** Resources and help at github.com/psi4/psi4.
