
Host: n029

Timers On : Tue Sep  8 16:06:51 2020
Timers Off: Tue Sep  8 16:06:53 2020

Wall Time:        1.89 seconds

                                                       Time (seconds)
Module                                       User      System        Wall        Calls
Total PK formation time             :      0.300u      0.000s      0.188w      1 calls
HF: Form core H                     :      0.000u      0.000s      0.000w      0 calls

--------------------------------------------------------------------------------------
Total PK formation time             :      0.300u      0.000s      0.188w      1 calls
HF: Form core H                     :      0.000u      0.000s      0.000w      1 calls

**************************************************************************************
