
 Primary working directories    : /tmp/795519.156.gen4.q
 Secondary working directories  : /tmp/795519.156.gen4.q
 Wavefunction directory         : /home/vulcan/mel64643/wfu/
 Main file repository           : /tmp/795519.156.gen4.q/

 ARCHNAME  : Linux/x86_64
 FC        : /opt/intel/compilers_and_libraries_2016.1.150/linux/bin/intel64/ifort
 FCVERSION : 16.0.1
 BLASLIB   : -mkl
 id        : ccgc

 Nodes     nprocs
 n062         1
 ga_uses_ma=false, calling ma_init with nominal heap.
 GA-space will be limited to   8.0 MW (determined by -G option)

 Using customized tuning parameters: mindgm=10; mindgv=16; mindgc=4; mindgr=1; noblas=0; mincuda=1000; minvec=7
 default implementation of scratch files=df  

 ***,Optimization of min3
 memory,1000,m
 gthresh,energy=1.0d-12,orbital=1.0d-10,oneint=1.0d-16,twoint=1.0d-16,optgrad=1.0d-6,compress=1.0d-13
 geomtyp=xyz
 
  bohr
  geometry = {
  6
  arbitrary comment
  C   -1.3715953204   -0.0241052033    0.0000003367
  O    1.3041373459    0.1234567956    0.0000003105
  H   -2.0779679824    1.9079443425   -0.0000798848
  H   -2.1027227621   -0.9798888573    1.6819405784
  H   -2.1027154833   -0.9800200809   -1.6818684489
  H    1.9271400423   -1.5775191165   -0.0000013018
 }
 
 basis=cc-pvdz
 {rhf;maxit,200}
 {ccsd(t);maxit,200}

 Variables initialized (661), CPU time= 0.00 sec
 Commands  initialized (458), CPU time= 0.00 sec, 486 directives.
 Default parameters read. Elapsed time= 0.05 sec

 Checking input...
 Passed
1


                                         ***  PROGRAM SYSTEM MOLPRO  ***
                         Copyright, University College Cardiff Consultants Limited, 2008

                                    Version 2010.1 linked May 16 2016 07:17:05


 **********************************************************************************************************************************
 LABEL *   Optimization of min3                                                          
 Linux-4.4.3/n062(x86_64) 64 bit mpp version                                             DATE: 24-Oct-22          TIME: 15:44:21  
 **********************************************************************************************************************************

 SHA1:             9e8077add272b0f3cad6f7df79ec5211205f459d
 **********************************************************************************************************************************

 THRESHOLDS:

 ZERO    =  1.00D-12  ONEINT  =  1.00D-16  TWOINT  =  1.00D-16  PREFAC  =  1.00D-14  LOCALI  =  1.00D-09  EORDER  =  1.00D-04
 ENERGY  =  1.00D-12  ETEST   =  0.00D+00  EDENS   =  0.00D+00  THRDEDEF=  1.00D-06  GRADIENT=  1.00D-02  STEP    =  1.00D-03
 ORBITAL =  1.00D-10  CIVEC   =  1.00D-05  COEFF   =  1.00D-04  PRINTCI =  5.00D-02  PUNCHCI =  9.90D+01  OPTGRAD =  1.00D-06
 OPTENERG=  1.00D-06  OPTSTEP =  3.00D-04  THRGRAD =  1.00D-10  COMPRESS=  1.00D-13  VARMIN  =  1.00D-07  VARMAX  =  1.00D-03
 THRDOUB =  0.00D+00  THRDIV  =  1.00D-05  THRRED  =  1.00D-07  THRPSP  =  1.00D+00  THRDC   =  1.00D-10  THRCS   =  1.00D-10
 THRNRM  =  1.00D-08  THREQ   =  0.00D+00  THRDE   =  1.00D+00  THRREF  =  1.00D-05  SPARFAC =  1.00D+00  THRDLP  =  1.00D-07
 THRDIA  =  1.00D-10  THRDLS  =  1.00D-07  THRGPS  =  0.00D+00  THRKEX  =  0.00D+00  THRDIS  =  2.00D-01  THRVAR  =  1.00D-10
 THRLOC  =  1.00D-06  THRGAP  =  1.00D-06  THRLOCT = -1.00D+00  THRGAPT = -1.00D+00  THRORB  =  1.00D-06  THRMLTP =  0.00D+00
 THRCPQCI=  1.00D-10  KEXTA   =  0.00D+00  THRCOARS=  0.00D+00  SYMTOL  =  1.00D-06  GRADTOL =  1.00D-06  THROVL  =  1.00D-08
 THRORTH =  1.00D-08  GRID    =  1.00D-06  GRIDMAX =  1.00D-03  DTMAX   =  0.00D+00

 SETTING GEOMTYP        =    XYZ
 ZUNIT=BOHR
 

 Variable memory set to 1000000000 words,  buffer space   230000 words

 SETTING BASIS          =    CC-PVDZ


 Recomputing integrals since basis changed


 Using spherical harmonics

 Library entry C      S cc-pVDZ              selected for orbital group  1
 Library entry C      P cc-pVDZ              selected for orbital group  1
 Library entry C      D cc-pVDZ              selected for orbital group  1
 Library entry O      S cc-pVDZ              selected for orbital group  2
 Library entry O      P cc-pVDZ              selected for orbital group  2
 Library entry O      D cc-pVDZ              selected for orbital group  2
 Library entry H      S cc-pVDZ              selected for orbital group  3
 Library entry H      P cc-pVDZ              selected for orbital group  3

1PROGRAM * SEWARD (Integral evaluation for generally contracted gaussian basis sets)     Author: Roland Lindh, 1990

 Geometry written to block  1 of record 700


 Point group  C1  



 ATOMIC COORDINATES

 NR  ATOM    CHARGE       X              Y              Z

   1  C       6.00   -1.371595320   -0.024105203    0.000000337
   2  O       8.00    1.304137346    0.123456796    0.000000310
   3  H       1.00   -2.077967982    1.907944343   -0.000079885
   4  H       1.00   -2.102722762   -0.979888857    1.681940578
   5  H       1.00   -2.102715483   -0.980020081   -1.681868449
   6  H       1.00    1.927140042   -1.577519116   -0.000001302

 Bond lengths in Bohr (Angstrom)

 1-2  2.679798471  1-3  2.057128531  1-4  2.068089144  1-5  2.068089108  2-6  1.811477688
     ( 1.418088276)     ( 1.088585534)     ( 1.094385641)     ( 1.094385622)     ( 0.958592707)

 Bond angles

  1-2-6  106.95929353   2-1-3  106.92624867   2-1-4  112.23709703   2-1-5  112.23709519

  3-1-4  108.22174242   3-1-5  108.22158426   4-1-5  108.83233815

 NUCLEAR CHARGE:                   18
 NUMBER OF PRIMITIVE AOS:          82
 NUMBER OF SYMMETRY AOS:           80
 NUMBER OF CONTRACTIONS:           48   (  48A   )
 NUMBER OF CORE ORBITALS:           2   (   2A   )
 NUMBER OF VALENCE ORBITALS:       12   (  12A   )


 NUCLEAR REPULSION ENERGY   40.36675310


 Eigenvalues of metric

         1 0.964E-02 0.176E-01 0.368E-01 0.374E-01 0.381E-01 0.473E-01 0.477E-01 0.516E-01


 Contracted 2-electron integrals neglected if value below      1.0D-16
 AO integral compression algorithm  1   Integral accuracy      1.0D-16

     6.291 MB (compressed) written to integral file ( 98.2%)

     Node minimum: 6.291 MB, node maximum: 6.291 MB


 NUMBER OF SORTED TWO-ELECTRON INTEGRALS:     692076.     BUFFER LENGTH:  32768
 NUMBER OF SEGMENTS:   1  SEGMENT LENGTH:     692076      RECORD LENGTH: 524288

 Memory used in sort:       1.25 MW

 SORT1 READ      832256. AND WROTE      682147. INTEGRALS IN      2 RECORDS. CPU TIME:     0.00 SEC, REAL TIME:     0.01 SEC
 SORT2 READ      682147. AND WROTE      692076. INTEGRALS IN     24 RECORDS. CPU TIME:     0.02 SEC, REAL TIME:     0.02 SEC

 FILE SIZES:   FILE 1:     8.0 MBYTE,  FILE 4:     8.4 MBYTE,   TOTAL:     16.4 MBYTE

 OPERATOR DM      FOR CENTER  0  COORDINATES:    0.000000    0.000000    0.000000


 **********************************************************************************************************************************
 DATASETS  * FILE   NREC   LENGTH (MB)   RECORD NAMES
              1      19        8.03       500      610      700      900      950      970     1000      129      960     1100   
                                          VAR    BASINP    GEOM    SYMINP    ZMAT    AOBASIS   BASIS     P2S    ABASIS      S 
                                         1400     1410     1200     1210     1080     1600     1650     1300     1700   
                                           T        V       H0       H01     AOSYM     SMH    MOLCAS    ERIS     OPER   

 PROGRAMS   *        TOTAL       INT
 CPU TIMES  *         0.21      0.17
 REAL TIME  *         0.42 SEC
 DISK USED  *        23.34 MB      
 GA USED    *         0.00 MB       (max)       0.00 MB       (current)
 **********************************************************************************************************************************

1PROGRAM * RHF-SCF (CLOSED SHELL)       Authors: W. Meyer, H.-J. Werner


 NUMBER OF ELECTRONS:       9+    9-    SPACE SYMMETRY=1    SPIN SYMMETRY: Singlet 
 CONVERGENCE THRESHOLDS:    1.00E-10 (Density)    1.00E-13 (Energy)
 MAX. NUMBER OF ITERATIONS:      200
 INTERPOLATION TYPE:            DIIS
 INTERPOLATION STEPS:              2 (START)      1 (STEP)
 LEVEL SHIFTS:                  0.00 (CLOSED)  0.00 (OPEN) 



 Orbital guess generated from atomic densities. Full valence occupancy:   14

 Molecular orbital dump at record        2100.2

 ITERATION    DDIFF          GRAD             ENERGY        2-EL.EN.            DIPOLE MOMENTS         DIIS
    1      0.000D+00      0.000D+00      -115.01427845    164.493362   -0.49512   -0.90161   -0.00000    0
    2      0.000D+00      0.110D-01      -115.04267662    162.275778   -0.31616   -0.53563   -0.00000    1
    3      0.205D-01      0.529D-02      -115.04868929    163.298996   -0.39971   -0.61118   -0.00000    2
    4      0.638D-02      0.112D-02      -115.04915274    163.142780   -0.38955   -0.60006   -0.00000    3
    5      0.204D-02      0.202D-03      -115.04917377    163.149279   -0.39239   -0.59579   -0.00000    4
    6      0.433D-03      0.355D-04      -115.04917457    163.149414   -0.39271   -0.59559   -0.00000    5
    7      0.930D-04      0.737D-05      -115.04917460    163.148231   -0.39285   -0.59543   -0.00000    6
    8      0.150D-04      0.237D-05      -115.04917460    163.148614   -0.39288   -0.59540   -0.00000    7
    9      0.503D-05      0.492D-06      -115.04917460    163.148572   -0.39290   -0.59540   -0.00000    6
   10      0.141D-05      0.877D-07      -115.04917460    163.148571   -0.39290   -0.59540   -0.00000    6
   11      0.235D-06      0.327D-07      -115.04917460    163.148577   -0.39290   -0.59540   -0.00000    6
   12      0.587D-07      0.136D-07      -115.04917460    163.148575   -0.39290   -0.59540   -0.00000    7
   13      0.255D-07      0.300D-08      -115.04917460    163.148575   -0.39290   -0.59540   -0.00000    7
   14      0.749D-08      0.648D-09      -115.04917460    163.148575   -0.39290   -0.59540   -0.00000    7
   15      0.166D-08      0.149D-09      -115.04917460    163.148575   -0.39290   -0.59540   -0.00000    7
   16      0.331D-09      0.447D-10      -115.04917460    163.148575   -0.39290   -0.59540   -0.00000    7
   17      0.868D-10      0.161D-10      -115.04917460    163.148575   -0.39290   -0.59540   -0.00000    7
   18      0.412D-10      0.267D-11      -115.04917460    163.148575   -0.39290   -0.59540   -0.00000    0

 Final occupancy:   9

 !RHF STATE 1.1 Energy               -115.049174603796
 Nuclear energy                        40.36675310
 One-electron energy                 -236.99021530
 Two-electron energy                   81.57428759
 Virial quotient                       -1.00083696
 !RHF STATE 1.1 Dipole moment          -0.39289873    -0.59540072    -0.00000280
 Dipole moment /Debye                  -0.99858355    -1.51325856    -0.00000713

 Orbital energies:

         1.1          2.1          3.1          4.1          5.1          6.1          7.1          8.1          9.1         10.1
    -20.550034   -11.274310    -1.351433    -0.921175    -0.683634    -0.614432    -0.585426    -0.497366    -0.443011     0.184471

        11.1
      0.224813


 **********************************************************************************************************************************
 DATASETS  * FILE   NREC   LENGTH (MB)   RECORD NAMES
              1      19        8.03       500      610      700      900      950      970     1000      129      960     1100   
                                          VAR    BASINP    GEOM    SYMINP    ZMAT    AOBASIS   BASIS     P2S    ABASIS      S 
                                         1400     1410     1200     1210     1080     1600     1650     1300     1700   
                                           T        V       H0       H01     AOSYM     SMH    MOLCAS    ERIS     OPER   

              2       3        0.39       700     1000     2100   
                                         GEOM     BASIS     RHF  

 PROGRAMS   *        TOTAL       RHF       INT
 CPU TIMES  *         0.30      0.09      0.17
 REAL TIME  *         0.55 SEC
 DISK USED  *        23.34 MB      
 GA USED    *         0.00 MB       (max)       0.00 MB       (current)
 **********************************************************************************************************************************


1PROGRAM * CCSD (Closed-shell coupled cluster)     Authors: C. Hampel, H.-J. Werner, 1991, M. Deegan, P.J. Knowles, 1992


 Convergence thresholds:  THRVAR = 1.00D-08  THRDEN = 1.00D-12

 CCSD(T)     terms to be evaluated (factor= 1.000)


 Number of core orbitals:           2 (   2 )
 Number of closed-shell orbitals:   7 (   7 )
 Number of external orbitals:      39 (  39 )

 Molecular orbitals read from record     2100.2  Type=RHF/CANONICAL (state 1.1)

 Number of N-1 electron functions:               7
 Number of N-2 electron functions:              28
 Number of singly external CSFs:               273
 Number of doubly external CSFs:             37401
 Total number of CSFs:                       37675

 Length of J-op  integral file:               0.00 MB
 Length of K-op  integral file:               0.19 MB
 Length of 3-ext integral record:             0.00 MB

 Memory could be reduced to 0.96 Mwords without degradation in triples

 Integral transformation finished. Total CPU:   0.02 sec, npass=  1  Memory used:   0.66 MW

 Reference energy:                   -115.04917460

 MP2 singlet pair energy:              -0.21857533
 MP2 triplet pair energy:              -0.11984270
 MP2 correlation energy:               -0.33841802
 MP2 total energy:                   -115.38759263

 SCS-MP2 correlation energy:           -0.33685918   (PS=  1.200000  PT=  0.333333)
 SCS-MP2 total energy:               -115.38603378

 ITER.      SQ.NORM     CORR.ENERGY   TOTAL ENERGY   ENERGY CHANGE        DEN1      VAR(S)    VAR(P)  DIIS     TIME
   1      1.10723108    -0.36121289  -115.41038750    -0.02279487    -0.01412926  0.91D-03  0.17D-02  1  1     0.05
   2      1.11573475    -0.36315302  -115.41232762    -0.00194013    -0.00923700  0.20D-04  0.16D-03  2  2     0.09
   3      1.11760555    -0.36327944  -115.41245404    -0.00012642    -0.00119883  0.94D-05  0.85D-05  3  3     0.13
   4      1.11811708    -0.36327806  -115.41245266     0.00000138    -0.00025364  0.32D-06  0.67D-06  4  4     0.17
   5      1.11821402    -0.36327848  -115.41245308    -0.00000042    -0.00003573  0.97D-07  0.48D-07  5  5     0.20
   6      1.11823271    -0.36327714  -115.41245174     0.00000134    -0.00000431  0.15D-07  0.40D-08  6  6     0.24
   7      1.11823735    -0.36327673  -115.41245133     0.00000041    -0.00000035  0.20D-08  0.70D-09  6  1     0.28
   8      1.11823859    -0.36327683  -115.41245143    -0.00000010     0.00000074  0.25D-09  0.70D-10  6  3     0.32
   9      1.11823963    -0.36327671  -115.41245131     0.00000012    -0.00000038  0.12D-10  0.10D-10  6  2     0.36
  10      1.11823956    -0.36327671  -115.41245131    -0.00000000     0.00000007  0.11D-11  0.85D-12  6  5     0.40
  11      1.11823959    -0.36327671  -115.41245131     0.00000000    -0.00000000  0.18D-12  0.49D-13  6  4     0.44
  12      1.11823958    -0.36327671  -115.41245131    -0.00000000     0.00000001  0.18D-13  0.96D-14  6  1     0.48
  13      1.11823958    -0.36327671  -115.41245131    -0.00000000    -0.00000000  0.23D-14  0.90D-15  6  6     0.52
  14      1.11823958    -0.36327671  -115.41245131     0.00000000    -0.00000000  0.22D-15  0.12D-15  6  3     0.55
  15      1.11823958    -0.36327671  -115.41245131    -0.00000000    -0.00000000  0.24D-16  0.16D-16  6  2     0.59
  16      1.11823958    -0.36327671  -115.41245131    -0.00000000    -0.00000000  0.53D-17  0.15D-17  6  5     0.63
  17      1.11823958    -0.36327671  -115.41245131    -0.00000000    -0.00000000  0.51D-18  0.24D-18  6  4     0.67
  18      1.11823958    -0.36327671  -115.41245131     0.00000000    -0.00000000  0.78D-19  0.40D-19  6  1     0.70
  19      1.11823958    -0.36327671  -115.41245131    -0.00000000    -0.00000000  0.87D-20  0.41D-20  6  6     0.74
  20      1.11823958    -0.36327671  -115.41245131     0.00000000     0.00000000  0.12D-20  0.52D-21  6  3     0.78

 Norm of t1 vector:      0.04154584      S-energy:    -0.00000000      T1 diagnostic:  0.00785143
                                                                       D1 diagnostic:  0.01737969


 Total CPU time for triples:      0.21 sec


 RESULTS
 =======

  Reference energy                   -115.049174603796
  CCSD singlet pair energy             -0.254493620100
  CCSD triplet pair energy             -0.108783090015
  CCSD correlation energy              -0.363276710115

  Triples (T) contribution             -0.007728263666
  Total correlation energy             -0.371004973781

  CCSD total energy                  -115.412451313911
  CCSD[T] energy                     -115.420468400767
  CCSD-T energy                      -115.420030201206
 !CCSD(T) total energy               -115.420179577577

 Timing summary (sec):

 STEP                 CPU(USER)    SYS     CPU(TOT)    WALL
 Transformation          0.02      0.00      0.02      0.03
 CCSD iterations         0.76      0.05      0.81      0.85
 Triples                 0.21      0.01      0.22      0.21

 Program statistics:

 Available memory in ccsd:               999999704
 Min. memory needed in ccsd:                136801
 Max. memory used in ccsd:                  163198
 Max. memory used in cckext:                182024 (20 integral passes)



 **********************************************************************************************************************************
 DATASETS  * FILE   NREC   LENGTH (MB)   RECORD NAMES
              1      20       10.56       500      610      700      900      950      970     1000      129      960     1100   
                                          VAR    BASINP    GEOM    SYMINP    ZMAT    AOBASIS   BASIS     P2S    ABASIS      S 
                                         1400     1410     1200     1210     1080     1600     1650     1300     1700     1380   
                                           T        V       H0       H01     AOSYM     SMH    MOLCAS    ERIS     OPER     JKOP   

              2       3        0.39       700     1000     2100   
                                         GEOM     BASIS     RHF  

 PROGRAMS   *        TOTAL   CCSD(T)       RHF       INT
 CPU TIMES  *         1.30      1.00      0.09      0.17
 REAL TIME  *         1.67 SEC
 DISK USED  *        24.76 MB      
 GA USED    *         0.00 MB       (max)       0.00 MB       (current)
 **********************************************************************************************************************************

        CCSD(T)         RHF-SCF 
   -115.42017958   -115.04917460
 **********************************************************************************************************************************
 Variable memory released
