[Molden Format]
[ATOMS] AU
C        1    6       -1.3750731100       -0.0242768600        0.0000003500
O        2    8        1.3060163600        0.1207012800        0.0000003000
H        3    1       -2.0778739500        1.9096129200       -0.0000799100
H        4    1       -2.1089875800       -0.9792726900        1.6819738900
H        5    1       -2.1089805500       -0.9794039300       -1.6819017300
H        6    1        1.9411746700       -1.5774928400       -0.0000013100
[Molden Format]
 [FREQ]
      304.0601411199
     1065.3597338347
     1095.6239225564
     1179.6545936291
     1393.7673208082
     1487.7583077676
     1507.7818372967
     1523.1973558724
     3009.4268894002
     3064.5142221347
     3128.1229616136
     3865.1623709925
 [FR-COORD]
C           -1.3750731100       -0.0242768600        0.0000003500
O            1.3060163600        0.1207012800        0.0000003000
H           -2.0778739500        1.9096129200       -0.0000799100
H           -2.1089875800       -0.9792726900        1.6819738900
H           -2.1089805500       -0.9794039300       -1.6819017300
H            1.9411746700       -1.5774928400       -0.0000013100
 [FR-NORM-COORD]
  vibration                      1
       -0.0000118502       -0.0000633789        0.0253533075
       -0.0000408888       -0.0002702869        0.1072748815
        0.0001933504       -0.0000254260       -0.0387286000
       -0.0526327880        0.0336272630        0.0222016191
        0.0524415484       -0.0336226452        0.0222821352
        0.0000506281        0.0003544741       -0.1383833433
  vibration                      2
       -0.0041576381        0.0953438597       -0.0000378912
        0.1506579039        0.0235177968       -0.0000207729
       -0.1960609936        0.0233359116        0.0000978617
        0.1198693049       -0.0164826874       -0.0135503329
        0.1199813875       -0.0166223258        0.0135279972
       -0.1902899647       -0.1090925549       -0.0000168618
  vibration                      3
        0.1170603817        0.1023995050       -0.0000358829
       -0.0744610146        0.0098164850       -0.0000177827
       -0.1466780914        0.0055845325        0.0000886079
        0.2121854496       -0.0204369443       -0.0231725685
        0.2122872450       -0.0205616218        0.0231523406
       -0.3203939703       -0.0768019564       -0.0000147145
  vibration                      4
       -0.0000264225        0.0000050254        0.0885661985
       -0.0001827886       -0.0000148374       -0.0697293084
        0.0000448671       -0.0000852089       -0.0249292148
       -0.1212318741       -0.0087299000        0.0319096028
        0.1215291147        0.0088208612        0.0320588273
       -0.0001328965        0.0000040596       -0.0578761054
  vibration                      5
       -0.0344579534        0.0860971136       -0.0000267227
       -0.0292222340       -0.1205395423       -0.0000129902
       -0.0944538907        0.0655849203        0.0000634386
       -0.0205318014       -0.0018699909       -0.0441988917
       -0.0204653501       -0.0019589062        0.0441861015
        0.1991312296       -0.0273135944       -0.0000109356
  vibration                      6
       -0.0625474815        0.0082276044        0.0000458789
       -0.0452302139        0.0106647859        0.0000300159
        0.0622517177        0.0504678202       -0.0001322939
        0.0430637985       -0.0410099906        0.0147784631
        0.0429246209       -0.0408249473       -0.0147468229
       -0.0404624416        0.0124747274        0.0000247589
  vibration                      7
        0.0002698112        0.0001173903        0.0494106892
        0.0002015613        0.0000669835        0.0345990461
       -0.0000225071       -0.0003306573       -0.1448831255
        0.0779875985       -0.1039958452        0.0160446361
       -0.0785085980        0.1041233234        0.0168532141
        0.0000721340        0.0000188053        0.0279755400
  vibration                      8
        0.0299275139        0.0448871169       -0.0001718504
        0.0224751431        0.0434976134       -0.0001176414
        0.0858386148        0.0599475135        0.0004900011
       -0.0647548736       -0.0890598453       -0.1106787920
       -0.0642241100       -0.0897594732        0.1105751550
       -0.0092622882        0.0304870747       -0.0000968723
  vibration                      9
        0.0379262618        0.0220444044        0.0000009927
        0.0260162135        0.0059279160        0.0000024097
       -0.0001880416        0.1104457575       -0.0000113207
       -0.0423137410       -0.0706825551        0.1602897623
       -0.0423226560       -0.0706856409       -0.1602829478
        0.0208819633        0.0029501180        0.0000011039
  vibration                     10
        0.0000054558       -0.0000204988       -0.0776806690
       -0.0000069497       -0.0000026274       -0.0321604042
       -0.0000056010       -0.0000255899       -0.0685135931
       -0.0769063788       -0.0874473291        0.1002794405
        0.0769134458        0.0874971630        0.1002337214
        0.0000000279       -0.0000011178       -0.0221584955
  vibration                     11
        0.0090013662       -0.0734045068        0.0000066417
        0.0039433349       -0.0292599730        0.0000032575
       -0.0937570219        0.1899850355       -0.0000174168
        0.0325360143       -0.0289219662       -0.0525779000
        0.0325258486       -0.0289031398        0.0525826782
        0.0157504579       -0.0294954496        0.0000027394
  vibration                     12
        0.0208697877       -0.0290358611       -0.0000374419
        0.0311911004       -0.1012789301       -0.0000260565
        0.0616616719       -0.0094120585        0.0001093688
        0.0000393622       -0.0125226935       -0.0002848653
        0.0001541169       -0.0126799090        0.0002599095
       -0.1139160391        0.1649294523       -0.0000209145
