
    -----------------------------------------------------------------------
          Psi4: An Open-Source Ab Initio Electronic Structure Package
                               Psi4 1.4a2.dev629 

                         Git: Rev {master} 2938fc2 dirty


    D. G. A. Smith, L. A. Burns, A. C. Simmonett, R. M. Parrish,
    M. C. Schieber, R. Galvelis, P. Kraus, H. Kruse, R. Di Remigio,
    A. Alenaizan, A. M. James, S. Lehtola, J. P. Misiewicz, M. Scheurer,
    R. A. Shaw, J. B. Schriber, Y. Xie, Z. L. Glick, D. A. Sirianni,
    J. S. O'Brien, J. M. Waldrop, A. Kumar, E. G. Hohenstein,
    B. P. Pritchard, B. R. Brooks, H. F. Schaefer III, A. Yu. Sokolov,
    K. Patkowski, A. E. DePrince III, U. Bozkaya, R. A. King,
    F. A. Evangelista, J. M. Turney, T. D. Crawford, C. D. Sherrill,
    J. Chem. Phys. 152(18) 184108 (2020). https://doi.org/10.1063/5.0006002

                            Additional Code Authors
    E. T. Seidl, C. L. Janssen, E. F. Valeev, M. L. Leininger,
    J. F. Gonthier, R. M. Richard, H. R. McAlexander, M. Saitow, X. Wang,
    P. Verma, and M. H. Lechner

             Previous Authors, Complete List of Code Contributors,
                       and Citations for Specific Modules
    https://github.com/psi4/psi4/blob/master/codemeta.json
    https://github.com/psi4/psi4/graphs/contributors
    http://psicode.org/psi4manual/master/introduction.html#citing-psifour

    -----------------------------------------------------------------------


    Psi4 started on: Tuesday, 15 September 2020 12:55PM

    Process ID: 30044
    Host:       n039
    PSIDATADIR: /opt/psi/4/master/share/psi4
    Memory:     500.0 MiB
    Threads:    1
    
  ==> Input File <==

--------------------------------------------------------------------------
# o-Benzyne preliminary computations

memory 14 gb

molecule {
  0 1
  C         -1.3709370634         -0.0245342349         -0.0010561804  
  O          1.3018488778          0.1205537348          0.0004791420  
  H         -2.0719973675          1.9029364652          0.0012883207  
  H         -2.0986615486         -0.9741029917          1.6783270800  
  H         -2.1082174549         -0.9772151701         -1.6745372686  
  H          1.9411026666         -1.5727686567         -0.0001066666  
  units bohr
}

set {
  basis=cc-pVTZ
  reference rhf
  e_convergence 10 
  d_convergence 10
  r_convergence 8
  maxiter 300
}

energy('ccsd(t)')
--------------------------------------------------------------------------

  Memory set to  13.039 GiB by Python driver.

Scratch directory: /tmp/

*** tstart() called on n039
*** at Tue Sep 15 12:56:00 2020

   => Loading Basis Set <=

    Name: CC-PVTZ
    Role: ORBITAL
    Keyword: BASIS
    atoms 1   entry C          line   186 file /opt/psi/4/master/share/psi4/basis/cc-pvtz.gbs 
    atoms 2   entry O          line   262 file /opt/psi/4/master/share/psi4/basis/cc-pvtz.gbs 
    atoms 3-6 entry H          line    23 file /opt/psi/4/master/share/psi4/basis/cc-pvtz.gbs 


         ---------------------------------------------------------
                                   SCF
               by Justin Turney, Rob Parrish, Andy Simmonett
                          and Daniel G. A. Smith
                              RHF Reference
                        1 Threads,  13351 MiB Core
         ---------------------------------------------------------

  ==> Geometry <==

    Molecular point group: c1
    Full point group: C1

    Geometry (in Bohr), charge = 0, multiplicity = 1:

       Center              X                  Y                   Z               Mass       
    ------------   -----------------  -----------------  -----------------  -----------------
         C           -1.370937062268    -0.024534233942    -0.001056181585    12.000000000000
         O            1.301848878932     0.120553735758     0.000479140815    15.994914619570
         H           -2.071997366368     1.902936466158     0.001288319515     1.007825032230
         H           -2.098661547468    -0.974102990742     1.678327078815     1.007825032230
         H           -2.108217453768    -0.977215169142    -1.674537269785     1.007825032230
         H            1.941102667732    -1.572768655742    -0.000106667785     1.007825032230

  Running in c1 symmetry.

  Rotational constants: A =      4.31054  B =      0.83184  C =      0.80261 [cm^-1]
  Rotational constants: A = 129226.63664  B =  24937.98969  C =  24061.54830 [MHz]
  Nuclear repulsion =   40.424669544665690

  Charge       = 0
  Multiplicity = 1
  Electrons    = 18
  Nalpha       = 9
  Nbeta        = 9

  ==> Algorithm <==

  SCF Algorithm Type is PK.
  DIIS enabled.
  MOM disabled.
  Fractional occupation disabled.
  Guess Type is SAD.
  Energy threshold   = 1.00e-10
  Density threshold  = 1.00e-10
  Integral threshold = 0.00e+00

  ==> Primary Basis <==

  Basis Set: CC-PVTZ
    Blend: CC-PVTZ
    Number of shells: 44
    Number of basis function: 116
    Number of Cartesian functions: 130
    Spherical Harmonics?: true
    Max angular momentum: 3

  ==> Integral Setup <==

  Using in-core PK algorithm.
   Calculation information:
      Number of atoms:                   6
      Number of AO shells:              44
      Number of primitives:             84
      Number of atomic orbitals:       130
      Number of basis functions:       116

      Integral cutoff                 1.00e-12
      Number of threads:                 1

  Performing in-core PK
  Using 46056582 doubles for integral storage.
  We computed 490498 shell quartets total.
  Whereas there are 490545 unique shell quartets.

  ==> DiskJK: Disk-Based J/K Matrices <==

    J tasked:                  Yes
    K tasked:                  Yes
    wK tasked:                  No
    Memory [MiB]:            10013
    Schwarz Cutoff:          1E-12

    OpenMP threads:              1

  Minimum eigenvalue in the overlap matrix is 1.8301891406E-03.
  Reciprocal condition number of the overlap matrix is 2.7593026998E-04.
    Using symmetric orthogonalization.

  ==> Pre-Iterations <==

  SCF Guess: Superposition of Atomic Densities via on-the-fly atomic UHF (no occupation information).

   -------------------------
    Irrep   Nso     Nmo    
   -------------------------
     A        116     116 
   -------------------------
    Total     116     116
   -------------------------

  ==> Iterations <==

                        Total Energy        Delta E     RMS |[F,P]|

   @RHF iter SAD:  -114.42810445947710   -1.14428e+02   0.00000e+00 
   @RHF iter   1:  -115.01461433686319   -5.86510e-01   3.41859e-03 DIIS
   @RHF iter   2:  -115.07169612169460   -5.70818e-02   1.94991e-03 DIIS
   @RHF iter   3:  -115.08845015150257   -1.67540e-02   3.01105e-04 DIIS
   @RHF iter   4:  -115.08933233873813   -8.82187e-04   8.77558e-05 DIIS
   @RHF iter   5:  -115.08940553160528   -7.31929e-05   2.13408e-05 DIIS
   @RHF iter   6:  -115.08941035017503   -4.81857e-06   4.71535e-06 DIIS
   @RHF iter   7:  -115.08941071454210   -3.64367e-07   1.09361e-06 DIIS
   @RHF iter   8:  -115.08941073591164   -2.13695e-08   2.26181e-07 DIIS
   @RHF iter   9:  -115.08941073681630   -9.04663e-10   4.19958e-08 DIIS
   @RHF iter  10:  -115.08941073684643   -3.01270e-11   1.07570e-08 DIIS
   @RHF iter  11:  -115.08941073684802   -1.59162e-12   2.18938e-09 DIIS
   @RHF iter  12:  -115.08941073684798    4.26326e-14   3.91414e-10 DIIS
   @RHF iter  13:  -115.08941073684866   -6.82121e-13   7.22486e-11 DIIS
  Energy and wave function converged.


  ==> Post-Iterations <==

    Orbital Energies [Eh]
    ---------------------

    Doubly Occupied:                                                      

       1A    -20.552184     2A    -11.267947     3A     -1.355807  
       4A     -0.924263     5A     -0.689361     6A     -0.618997  
       7A     -0.591444     8A     -0.502002     9A     -0.449007  

    Virtual:                                                              

      10A      0.138591    11A      0.178903    12A      0.220547  
      13A      0.224204    14A      0.291043    15A      0.386449  
      16A      0.404433    17A      0.546359    18A      0.584665  
      19A      0.624344    20A      0.625614    21A      0.639797  
      22A      0.690805    23A      0.704895    24A      0.722056  
      25A      0.833185    26A      0.865439    27A      0.872363  
      28A      0.927835    29A      1.069895    30A      1.101787  
      31A      1.178090    32A      1.190220    33A      1.263322  
      34A      1.271858    35A      1.284128    36A      1.365714  
      37A      1.447602    38A      1.492599    39A      1.523972  
      40A      1.546423    41A      1.584104    42A      1.622016  
      43A      1.778235    44A      2.093233    45A      2.180674  
      46A      2.200072    47A      2.301673    48A      2.323687  
      49A      2.488932    50A      2.510133    51A      2.576085  
      52A      2.805537    53A      2.952049    54A      3.056978  
      55A      3.110932    56A      3.118502    57A      3.144112  
      58A      3.225077    59A      3.244688    60A      3.314871  
      61A      3.316331    62A      3.344182    63A      3.385612  
      64A      3.502084    65A      3.615604    66A      3.635318  
      67A      3.702564    68A      3.710421    69A      3.747322  
      70A      3.762485    71A      3.817030    72A      3.844043  
      73A      3.906864    74A      4.011863    75A      4.028960  
      76A      4.119543    77A      4.162441    78A      4.173674  
      79A      4.249967    80A      4.257957    81A      4.291068  
      82A      4.403949    83A      4.441274    84A      4.469912  
      85A      4.563073    86A      4.584470    87A      4.715733  
      88A      4.788980    89A      4.999716    90A      5.038547  
      91A      5.059742    92A      5.204827    93A      5.275986  
      94A      5.318130    95A      5.375648    96A      5.442869  
      97A      5.550887    98A      5.553137    99A      5.569789  
     100A      5.793389   101A      5.946431   102A      6.193913  
     103A      6.213457   104A      6.251447   105A      6.436464  
     106A      6.644588   107A      7.000556   108A      7.127292  
     109A      7.185751   110A      7.236586   111A      7.356710  
     112A      7.436726   113A      7.594980   114A      7.916003  
     115A     12.158162   116A     13.765083  

    Final Occupation by Irrep:
              A 
    DOCC [     9 ]

  @RHF Final Energy:  -115.08941073684866

   => Energetics <=

    Nuclear Repulsion Energy =             40.4246695446656901
    One-Electron Energy =                -237.1261336471289098
    Two-Electron Energy =                  81.6120533656145426
    Total Energy =                       -115.0894107368486630

Computation Completed


Properties will be evaluated at   0.000000,   0.000000,   0.000000 [a0]

Properties computed using the SCF density matrix

  Nuclear Dipole Moment: [e a0]
     X:    -2.1486      Y:    -0.8039      Z:     0.0025

  Electronic Dipole Moment: [e a0]
     X:     1.7666      Y:     0.2163      Z:    -0.0030

  Dipole Moment: [e a0]
     X:    -0.3820      Y:    -0.5876      Z:    -0.0005     Total:     0.7009

  Dipole Moment: [D]
     X:    -0.9709      Y:    -1.4936      Z:    -0.0013     Total:     1.7814


*** tstop() called on n039 at Tue Sep 15 12:56:03 2020
Module time:
	user time   =       3.52 seconds =       0.06 minutes
	system time =       0.02 seconds =       0.00 minutes
	total time  =          3 seconds =       0.05 minutes
Total time:
	user time   =       3.52 seconds =       0.06 minutes
	system time =       0.02 seconds =       0.00 minutes
	total time  =          3 seconds =       0.05 minutes
 MINTS: Wrapper to libmints.
   by Justin Turney

   Calculation information:
      Number of threads:                 1
      Number of atoms:                   6
      Number of AO shells:              44
      Number of SO shells:              44
      Number of primitives:             84
      Number of atomic orbitals:       130
      Number of basis functions:       116

      Number of irreps:                  1
      Integral cutoff                 0.00e+00
      Number of functions per irrep: [ 116 ]

 OEINTS: Overlap, kinetic, potential, dipole, and quadrupole integrals
         stored in file 35.

      Computing two-electron integrals...done
      Computed 22874742 non-zero two-electron integrals.
        Stored in file 33.


*** tstart() called on n039
*** at Tue Sep 15 12:56:05 2020


	Wfn Parameters:
	--------------------
	Wavefunction         = CCSD_T
	Number of irreps     = 1
	Number of MOs        = 116
	Number of active MOs = 116
	AO-Basis             = NONE
	Semicanonical        = false
	Reference            = RHF
	Print Level          = 1

	IRREP	# MOs	# FZDC	# DOCC	# SOCC	# VIRT	# FZVR
	-----	-----	------	------	------	------	------
	 A	   116	    0	    9	    0	    107	    0
	Transforming integrals...
	IWL integrals will be deleted.
	(OO|OO)...
	Presorting SO-basis two-electron integrals.
	Sorting File: SO Ints (nn|nn) nbuckets = 1
	Transforming the one-electron integrals and constructing Fock matrices
	Starting first half-transformation.
	Sorting half-transformed integrals.
	First half integral transformation complete.
	Starting second half-transformation.
	Two-electron integral transformation complete.
	(OO|OV)...
	Starting second half-transformation.
	Two-electron integral transformation complete.
	(OO|VV)...
	Starting second half-transformation.
	Two-electron integral transformation complete.
	(OV|OO)...
	Starting first half-transformation.
	Sorting half-transformed integrals.
	First half integral transformation complete.
	Starting second half-transformation.
	Two-electron integral transformation complete.
	(OV|OV)...
	Starting second half-transformation.
	Two-electron integral transformation complete.
	(OV|VV)...
	Starting second half-transformation.
	Two-electron integral transformation complete.
	(VV|OO)...
	Starting first half-transformation.
	Sorting half-transformed integrals.
	First half integral transformation complete.
	Starting second half-transformation.
	Two-electron integral transformation complete.
	(VV|OV)...
	Starting second half-transformation.
	Two-electron integral transformation complete.
	(VV|VV)...
	Starting second half-transformation.
	Two-electron integral transformation complete.
	Frozen core energy     =      0.00000000000000

	Size of irrep 0 of <ab|cd> integrals:    131.080 (MW) /   1048.637 (MB)
	Total:                                   131.080 (MW) /   1048.637 (MB)

	Size of irrep 0 of <ia|bc> integrals:     11.025 (MW) /     88.203 (MB)
	Total:                                    11.025 (MW) /     88.203 (MB)

	Size of irrep 0 of tijab amplitudes:       0.927 (MW) /      7.419 (MB)
	Total:                                     0.927 (MW) /      7.419 (MB)

	Nuclear Rep. energy          =     40.42466954466569
	SCF energy                   =   -115.08941073684866
	One-electron energy          =   -237.12613367903597
	Two-electron energy          =     81.61205339752189
	Reference energy             =   -115.08941073684839

*** tstop() called on n039 at Tue Sep 15 12:56:18 2020
Module time:
	user time   =      10.23 seconds =       0.17 minutes
	system time =       2.73 seconds =       0.05 minutes
	total time  =         13 seconds =       0.22 minutes
Total time:
	user time   =      15.48 seconds =       0.26 minutes
	system time =       2.95 seconds =       0.05 minutes
	total time  =         18 seconds =       0.30 minutes
            **************************
            *                        *
            *        CCENERGY        *
            *                        *
            **************************

    Nuclear Rep. energy (wfn)     =   40.424669544665690
    SCF energy          (wfn)     = -115.089410736848663
    Reference energy    (file100) = -115.089410736848393

    Input parameters:
    -----------------
    Wave function   =     CCSD_T
    Reference wfn   =     RHF
    Brueckner       =     No
    Memory (Mbytes) =     14000.0
    Maxiter         =    300
    R_Convergence   =     1.0e-08
    E_Convergence   =     1.0e-10
    Restart         =     Yes
    DIIS            =     Yes
    AO Basis        =     NONE
    ABCD            =     NEW
    Cache Level     =     2
    Cache Type      =     LOW
    Print Level     =     1
    Num. of threads =     1
    # Amps to Print =     10
    Print MP2 Amps? =     No
    Analyze T2 Amps =     No
    Print Pair Ener =     No
    Local CC        =     No
    SCS-MP2         =     False
    SCSN-MP2        =     False
    SCS-CCSD        =     False

MP2 correlation energy -0.4574283498871419
                Solving CC Amplitude Equations
                ------------------------------
  Iter             Energy              RMS        T1Diag      D1Diag    New D1Diag    D2Diag
  ----     ---------------------    ---------   ----------  ----------  ----------   --------
     0        -0.457428349887142    0.000e+00    0.000000    0.000000    0.000000    0.128069
     1        -0.464956199788597    4.762e-02    0.006483    0.014788    0.014788    0.129187
     2        -0.474908405873463    1.562e-02    0.006591    0.014747    0.014747    0.134893
     3        -0.476379688063332    5.473e-03    0.007386    0.016817    0.016817    0.136318
     4        -0.476276540959051    1.202e-03    0.007438    0.016956    0.016956    0.136542
     5        -0.476316317811239    4.339e-04    0.007470    0.017088    0.017088    0.136639
     6        -0.476324886027183    1.223e-04    0.007480    0.017138    0.017138    0.136646
     7        -0.476322716248296    4.530e-05    0.007481    0.017152    0.017152    0.136643
     8        -0.476322581399565    1.683e-05    0.007483    0.017161    0.017161    0.136643
     9        -0.476322688074642    4.882e-06    0.007483    0.017163    0.017163    0.136643
    10        -0.476322443164857    1.558e-06    0.007483    0.017163    0.017163    0.136643
    11        -0.476322510284555    4.783e-07    0.007483    0.017163    0.017163    0.136643
    12        -0.476322495960361    1.169e-07    0.007483    0.017163    0.017163    0.136643
    13        -0.476322499015447    4.178e-08    0.007483    0.017163    0.017163    0.136643
    14        -0.476322500165507    1.193e-08    0.007483    0.017163    0.017163    0.136643
    15        -0.476322500209479    4.944e-09    0.007483    0.017163    0.017163    0.136643
    16        -0.476322500238454    1.563e-09    0.007483    0.017163    0.017163    0.136643

    Iterations converged.


    Largest TIA Amplitudes:
              5   6        -0.0079952901
              5  14         0.0076303126
              5   9        -0.0070329108
              8  14        -0.0063617490
              6   7         0.0059734923
              6   3        -0.0059175713
              7   8         0.0058102203
              5   2         0.0056986261
              8   6         0.0053146476
              6   5        -0.0050931734

    Largest TIjAb Amplitudes:
      5   5   9   9        -0.0229656842
      8   8  14  14        -0.0211782894
      6   6   7   7        -0.0210293290
      7   7  12  12        -0.0205131335
      4   4   7   7        -0.0191026003
      6   6   8   8        -0.0162740117
      5   5  14  14        -0.0151712782
      7   7   7   7        -0.0151101402
      5   5   2   9         0.0149304537
      5   5   9   2         0.0149304537

    SCF energy       (wfn)                    = -115.089410736848663
    Reference energy (file100)                = -115.089410736848393

    Opposite-spin MP2 correlation energy      =   -0.353849956290361
    Same-spin MP2 correlation energy          =   -0.103578393596780
    Singles MP2 correlation energy            =   -0.000000000000000
    MP2 correlation energy                    =   -0.457428349887142
      * MP2 total energy                      = -115.546839086735531

    Opposite-spin CCSD correlation energy     =   -0.381807847312414
    Same-spin CCSD correlation energy         =   -0.094514652926040
    Singles CCSD correlation energy           =    0.000000000000000
    CCSD correlation energy                   =   -0.476322500238454
      * CCSD total energy                     = -115.565733237086846

            **************************
            *                        *
            *        CCTRIPLES       *
            *                        *
            **************************


    Wave function   =    CCSD_T
    Reference wfn   =      RHF

    Nuclear Rep. energy (wfn)                =   40.424669544665690
    SCF energy          (wfn)                = -115.089410736848663
    Reference energy    (file100)            = -115.089410736848393
    CCSD energy         (file100)            =   -0.476322500238454
    Total CCSD energy   (file100)            = -115.565733237086846

    Number of ijk index combinations:              165
    Memory available in words        :      1750000000
    ~Words needed per explicit thread:         4900172
    Number of threads for explicit ijk threading:    1

    MKL num_threads set to 1 for explicit threading.

    (T) energy                                =   -0.015046533092833
      * CCSD(T) total energy                  = -115.580779770179674


    Psi4 stopped on: Tuesday, 15 September 2020 12:57PM
    Psi4 wall time for execution: 0:01:20.42

*** Psi4 exiting successfully. Buy a developer a beer!
