
    -----------------------------------------------------------------------
          Psi4: An Open-Source Ab Initio Electronic Structure Package
                               Psi4 1.4a2.dev629 

                         Git: Rev {master} 2938fc2 dirty


    D. G. A. Smith, L. A. Burns, A. C. Simmonett, R. M. Parrish,
    M. C. Schieber, R. Galvelis, P. Kraus, H. Kruse, R. Di Remigio,
    A. Alenaizan, A. M. James, S. Lehtola, J. P. Misiewicz, M. Scheurer,
    R. A. Shaw, J. B. Schriber, Y. Xie, Z. L. Glick, D. A. Sirianni,
    J. S. O'Brien, J. M. Waldrop, A. Kumar, E. G. Hohenstein,
    B. P. Pritchard, B. R. Brooks, H. F. Schaefer III, A. Yu. Sokolov,
    K. Patkowski, A. E. DePrince III, U. Bozkaya, R. A. King,
    F. A. Evangelista, J. M. Turney, T. D. Crawford, C. D. Sherrill,
    J. Chem. Phys. 152(18) 184108 (2020). https://doi.org/10.1063/5.0006002

                            Additional Code Authors
    E. T. Seidl, C. L. Janssen, E. F. Valeev, M. L. Leininger,
    J. F. Gonthier, R. M. Richard, H. R. McAlexander, M. Saitow, X. Wang,
    P. Verma, and M. H. Lechner

             Previous Authors, Complete List of Code Contributors,
                       and Citations for Specific Modules
    https://github.com/psi4/psi4/blob/master/codemeta.json
    https://github.com/psi4/psi4/graphs/contributors
    http://psicode.org/psi4manual/master/introduction.html#citing-psifour

    -----------------------------------------------------------------------


    Psi4 started on: Friday, 19 June 2020 01:33PM

    Process ID: 8030
    Host:       n045
    PSIDATADIR: /opt/psi/4/master/share/psi4
    Memory:     500.0 MiB
    Threads:    4
    
  ==> Input File <==

--------------------------------------------------------------------------
# o-Benzyne preliminary computations

memory 30 gb

molecule P1P2_CN_Singlet
{
  0 1
    H           -1.418057442022     1.021231091120     0.000000000000
    O            0.000000000000    -0.128693685687     0.000000000000
    H            1.418057442022     1.021231091120     0.000000000000
  no_reorient
  units bohr
}

set {
  reference rhf
  basis cc-pvdz
  e_convergence 9 
  d_convergence 10
  maxiter 300
  normal_modes_write true
  INTCOS_GENERATE_EXIT true
}

opt('ccsd(t)')
#freq('ccsd(t)')
--------------------------------------------------------------------------

  Memory set to  27.940 GiB by Python driver.

Scratch directory: /tmp/330830.1.debug.q/
gradient() will perform analytic gradient computation.

*** tstart() called on n045
*** at Fri Jun 19 13:33:36 2020

   => Loading Basis Set <=

    Name: CC-PVDZ
    Role: ORBITAL
    Keyword: BASIS
    atoms 1, 3 entry H          line    22 file /opt/psi/4/master/share/psi4/basis/cc-pvdz.gbs 
    atoms 2    entry O          line   198 file /opt/psi/4/master/share/psi4/basis/cc-pvdz.gbs 


         ---------------------------------------------------------
                                   SCF
               by Justin Turney, Rob Parrish, Andy Simmonett
                          and Daniel G. A. Smith
                              RHF Reference
                        4 Threads,  28610 MiB Core
         ---------------------------------------------------------

  ==> Geometry <==

    Molecular point group: c2v
    Full point group: C2v

    Geometry (in Bohr), charge = 0, multiplicity = 1:

       Center              X                  Y                   Z               Mass       
    ------------   -----------------  -----------------  -----------------  -----------------
         H           -1.418057442022     1.021231091120     0.000000000000     1.007825032230
         O            0.000000000000    -0.128693685687     0.000000000000    15.994914619570
         H            1.418057442022     1.021231091120     0.000000000000     1.007825032230

  Running in c2v symmetry.

  Rotational constants: A =     25.43230  B =     14.85222  C =      9.37646 [cm^-1]
  Rotational constants: A = 762441.16649  B = 445258.42957  C = 281099.17196 [MHz]
  Nuclear repulsion =    9.116312947482296

  Charge       = 0
  Multiplicity = 1
  Electrons    = 10
  Nalpha       = 5
  Nbeta        = 5

  ==> Algorithm <==

  SCF Algorithm Type is PK.
  DIIS enabled.
  MOM disabled.
  Fractional occupation disabled.
  Guess Type is SAD.
  Energy threshold   = 1.00e-09
  Density threshold  = 1.00e-10
  Integral threshold = 0.00e+00

  ==> Primary Basis <==

  Basis Set: CC-PVDZ
    Blend: CC-PVDZ
    Number of shells: 12
    Number of basis function: 24
    Number of Cartesian functions: 25
    Spherical Harmonics?: true
    Max angular momentum: 2

  ==> Integral Setup <==

  Using in-core PK algorithm.
   Calculation information:
      Number of atoms:                   3
      Number of AO shells:              12
      Number of primitives:             32
      Number of atomic orbitals:        25
      Number of basis functions:        24

      Integral cutoff                 1.00e-12
      Number of threads:                 4

  Performing in-core PK
  Using 90300 doubles for integral storage.
  We computed 4576 shell quartets total.
  Whereas there are 3081 unique shell quartets.
    48.52 percent of shell quartets recomputed by reordering.

  ==> DiskJK: Disk-Based J/K Matrices <==

    J tasked:                  Yes
    K tasked:                  Yes
    wK tasked:                  No
    Memory [MiB]:            21457
    Schwarz Cutoff:          1E-12

    OpenMP threads:              4

  Minimum eigenvalue in the overlap matrix is 3.2765221774E-02.
  Reciprocal condition number of the overlap matrix is 1.0417258118E-02.
    Using symmetric orthogonalization.

  ==> Pre-Iterations <==

  SCF Guess: Superposition of Atomic Densities via on-the-fly atomic UHF (no occupation information).

   -------------------------
    Irrep   Nso     Nmo    
   -------------------------
     A1        11      11 
     A2         2       2 
     B1         7       7 
     B2         4       4 
   -------------------------
    Total      24      24
   -------------------------

  ==> Iterations <==

                        Total Energy        Delta E     RMS |[F,P]|

   @RHF iter SAD:   -75.50226972432698   -7.55023e+01   0.00000e+00 
   @RHF iter   1:   -75.95244320711328   -4.50173e-01   3.03377e-02 DIIS
   @RHF iter   2:   -76.00607110835789   -5.36279e-02   1.75637e-02 DIIS
   @RHF iter   3:   -76.02571037484374   -1.96393e-02   1.59880e-03 DIIS
   @RHF iter   4:   -76.02610493266447   -3.94558e-04   3.76051e-04 DIIS
   @RHF iter   5:   -76.02612558156612   -2.06489e-05   6.80597e-05 DIIS
   @RHF iter   6:   -76.02612651557754   -9.34011e-07   1.02926e-05 DIIS
   @RHF iter   7:   -76.02612653817950   -2.26020e-08   1.27154e-06 DIIS
   @RHF iter   8:   -76.02612653852202   -3.42524e-10   2.95772e-07 DIIS
   @RHF iter   9:   -76.02612653854560   -2.35758e-11   6.10251e-08 DIIS
   @RHF iter  10:   -76.02612653854663   -1.03739e-12   5.10004e-09 DIIS
   @RHF iter  11:   -76.02612653854666   -2.84217e-14   8.81232e-10 DIIS
   @RHF iter  12:   -76.02612653854659    7.10543e-14   4.83470e-11 DIIS
  Energy and wave function converged.


  ==> Post-Iterations <==

    Orbital Energies [Eh]
    ---------------------

    Doubly Occupied:                                                      

       1A1   -20.553406     2A1    -1.334289     1B1    -0.689639  
       3A1    -0.570244     1B2    -0.493468  

    Virtual:                                                              

       4A1     0.183528     2B1     0.255206     3B1     0.774480  
       5A1     0.857457     6A1     1.166448     2B2     1.199547  
       4B1     1.256608     7A1     1.421626     1A2     1.482659  
       3B2     1.658496     8A1     1.863736     5B1     1.940384  
       6B1     2.425904     9A1     2.473211     4B2     3.290967  
       2A2     3.320498    10A1     3.506848    11A1     3.838844  
       7B1     4.151444  

    Final Occupation by Irrep:
             A1    A2    B1    B2 
    DOCC [     3,    0,    1,    1 ]

  @RHF Final Energy:   -76.02612653854659

   => Energetics <=

    Nuclear Repulsion Energy =              9.1163129474822959
    One-Electron Energy =                -123.0027874875154055
    Two-Electron Energy =                  37.8603480014865141
    Total Energy =                        -76.0261265385465919

Computation Completed


Properties will be evaluated at   0.000000,   0.000000,   0.000000 [a0]

Properties computed using the SCF density matrix

  Nuclear Dipole Moment: [e a0]
     X:     0.0000      Y:     1.0129      Z:     0.0000

  Electronic Dipole Moment: [e a0]
     X:     0.0000      Y:    -0.1852      Z:     0.0000

  Dipole Moment: [e a0]
     X:     0.0000      Y:     0.8277      Z:     0.0000     Total:     0.8277

  Dipole Moment: [D]
     X:     0.0000      Y:     2.1038      Z:     0.0000     Total:     2.1038


*** tstop() called on n045 at Fri Jun 19 13:33:37 2020
Module time:
	user time   =       1.49 seconds =       0.02 minutes
	system time =       0.04 seconds =       0.00 minutes
	total time  =          1 seconds =       0.02 minutes
Total time:
	user time   =       1.49 seconds =       0.02 minutes
	system time =       0.04 seconds =       0.00 minutes
	total time  =          1 seconds =       0.02 minutes
 MINTS: Wrapper to libmints.
   by Justin Turney

   Calculation information:
      Number of threads:                 4
      Number of atoms:                   3
      Number of AO shells:              12
      Number of SO shells:               9
      Number of primitives:             32
      Number of atomic orbitals:        25
      Number of basis functions:        24

      Number of irreps:                  4
      Integral cutoff                 0.00e+00
      Number of functions per irrep: [  11    2    7    4 ]

 OEINTS: Overlap, kinetic, potential, dipole, and quadrupole integrals
         stored in file 35.

      Computing two-electron integrals...done
      Computed 11536 non-zero two-electron integrals.
        Stored in file 33.


*** tstart() called on n045
*** at Fri Jun 19 13:33:37 2020


	Wfn Parameters:
	--------------------
	Wavefunction         = CCSD_T
	Number of irreps     = 4
	Number of MOs        = 24
	Number of active MOs = 24
	AO-Basis             = NONE
	Semicanonical        = false
	Reference            = RHF
	Print Level          = 1

	IRREP	# MOs	# FZDC	# DOCC	# SOCC	# VIRT	# FZVR
	-----	-----	------	------	------	------	------
	 A1	   11	    0	    3	    0	    8	    0
	 A2	   2	    0	    0	    0	    2	    0
	 B1	   7	    0	    1	    0	    6	    0
	 B2	   4	    0	    1	    0	    3	    0
	Transforming integrals...
	IWL integrals will be deleted.
	(OO|OO)...
	Presorting SO-basis two-electron integrals.
	Sorting File: SO Ints (nn|nn) nbuckets = 1
	Transforming the one-electron integrals and constructing Fock matrices
	Starting first half-transformation.
	Sorting half-transformed integrals.
	First half integral transformation complete.
	Starting second half-transformation.
	Two-electron integral transformation complete.
	(OO|OV)...
	Starting second half-transformation.
	Two-electron integral transformation complete.
	(OO|VV)...
	Starting second half-transformation.
	Two-electron integral transformation complete.
	(OV|OO)...
	Starting first half-transformation.
	Sorting half-transformed integrals.
	First half integral transformation complete.
	Starting second half-transformation.
	Two-electron integral transformation complete.
	(OV|OV)...
	Starting second half-transformation.
	Two-electron integral transformation complete.
	(OV|VV)...
	Starting second half-transformation.
	Two-electron integral transformation complete.
	(VV|OO)...
	Starting first half-transformation.
	Sorting half-transformed integrals.
	First half integral transformation complete.
	Starting second half-transformation.
	Two-electron integral transformation complete.
	(VV|OV)...
	Starting second half-transformation.
	Two-electron integral transformation complete.
	(VV|VV)...
	Starting second half-transformation.
	Two-electron integral transformation complete.
	Frozen core energy     =      0.00000000000000

	Size of irrep 0 of <ab|cd> integrals:      0.013 (MW) /      0.102 (MB)
	Size of irrep 1 of <ab|cd> integrals:      0.005 (MW) /      0.037 (MB)
	Size of irrep 2 of <ab|cd> integrals:      0.012 (MW) /      0.093 (MB)
	Size of irrep 3 of <ab|cd> integrals:      0.005 (MW) /      0.041 (MB)
	Total:                                     0.034 (MW) /      0.274 (MB)

	Size of irrep 0 of <ia|bc> integrals:      0.004 (MW) /      0.030 (MB)
	Size of irrep 1 of <ia|bc> integrals:      0.001 (MW) /      0.008 (MB)
	Size of irrep 2 of <ia|bc> integrals:      0.003 (MW) /      0.024 (MB)
	Size of irrep 3 of <ia|bc> integrals:      0.001 (MW) /      0.011 (MB)
	Total:                                     0.009 (MW) /      0.073 (MB)

	Size of irrep 0 of tijab amplitudes:       0.001 (MW) /      0.010 (MB)
	Size of irrep 1 of tijab amplitudes:       0.000 (MW) /      0.001 (MB)
	Size of irrep 2 of tijab amplitudes:       0.001 (MW) /      0.005 (MB)
	Size of irrep 3 of tijab amplitudes:       0.000 (MW) /      0.003 (MB)
	Total:                                     0.002 (MW) /      0.020 (MB)

	Nuclear Rep. energy          =      9.11631294748230
	SCF energy                   =    -76.02612653854659
	One-electron energy          =   -123.00278748727531
	Two-electron energy          =     37.86034800124644
	Reference energy             =    -76.02612653854658

*** tstop() called on n045 at Fri Jun 19 13:33:37 2020
Module time:
	user time   =       0.18 seconds =       0.00 minutes
	system time =       0.03 seconds =       0.00 minutes
	total time  =          0 seconds =       0.00 minutes
Total time:
	user time   =       2.00 seconds =       0.03 minutes
	system time =       0.07 seconds =       0.00 minutes
	total time  =          1 seconds =       0.02 minutes
            **************************
            *                        *
            *        CCENERGY        *
            *                        *
            **************************

    Nuclear Rep. energy (wfn)     =    9.116312947482296
    SCF energy          (wfn)     =  -76.026126538546592
    Reference energy    (file100) =  -76.026126538546578

    Input parameters:
    -----------------
    Wave function   =     CCSD_T
    Reference wfn   =     RHF
    Brueckner       =     No
    Memory (Mbytes) =     30000.0
    Maxiter         =    300
    R_Convergence   =     1.0e-07
    E_Convergence   =     1.0e-09
    Restart         =     Yes
    DIIS            =     Yes
    AO Basis        =     NONE
    ABCD            =     NEW
    Cache Level     =     2
    Cache Type      =     LOW
    Print Level     =     1
    Num. of threads =     4
    # Amps to Print =     10
    Print MP2 Amps? =     No
    Analyze T2 Amps =     No
    Print Pair Ener =     No
    Local CC        =     No
    SCS-MP2         =     False
    SCSN-MP2        =     False
    SCS-CCSD        =     False

MP2 correlation energy -0.2048567613646840
                Solving CC Amplitude Equations
                ------------------------------
  Iter             Energy              RMS        T1Diag      D1Diag    New D1Diag    D2Diag
  ----     ---------------------    ---------   ----------  ----------  ----------   --------
     0        -0.204856761364684    0.000e+00    0.000000    0.000000    0.000000    0.110596
     1        -0.209667399939269    2.697e-02    0.004130    0.008816    0.008816    0.117546
     2        -0.213697279968590    9.597e-03    0.004874    0.010156    0.010156    0.123051
     3        -0.214132123486606    2.538e-03    0.005326    0.010968    0.010968    0.124348
     4        -0.214143133466897    5.780e-04    0.005367    0.011181    0.011181    0.124558
     5        -0.214155219592273    1.720e-04    0.005391    0.011294    0.011294    0.124596
     6        -0.214153299345548    5.669e-05    0.005399    0.011340    0.011340    0.124589
     7        -0.214153066108232    1.529e-05    0.005403    0.011355    0.011355    0.124587
     8        -0.214152940014894    2.685e-06    0.005403    0.011356    0.011356    0.124586
     9        -0.214152889689013    6.640e-07    0.005403    0.011357    0.011357    0.124586
    10        -0.214152905251739    1.352e-07    0.005403    0.011357    0.011357    0.124586
    11        -0.214152903800849    2.882e-08    0.005403    0.011357    0.011357    0.124586
    12        -0.214152904288544    4.805e-09    0.005403    0.011357    0.011357    0.124586
    13        -0.214152904179585    1.054e-09    0.005403    0.011357    0.011357    0.124586

    Iterations converged.


    Largest TIA Amplitudes:
              2   0         0.0077038936
              3  14        -0.0074754755
              3  10         0.0060399006
              2   5        -0.0051830504
              3  12         0.0048979706
              1   2         0.0043080966
              1   0         0.0035943828
              4  17         0.0033906593
              4  16         0.0032258688
              2   1         0.0031244267

    Largest TIjAb Amplitudes:
      4   4  16  16        -0.0514089236
      3   3  11  11        -0.0363981353
      2   2   2   2        -0.0343820464
      3   3  10  10        -0.0306985445
      2   4   2  16         0.0281019816
      4   2  16   2         0.0281019816
      3   3   1   1        -0.0275063519
      2   2  11  11        -0.0259110250
      3   4  12  16         0.0229682542
      4   3  16  12         0.0229682542

    SCF energy       (wfn)                    =  -76.026126538546592
    Reference energy (file100)                =  -76.026126538546578

    Opposite-spin MP2 correlation energy      =   -0.153158885553730
    Same-spin MP2 correlation energy          =   -0.051697875810954
    Singles MP2 correlation energy            =   -0.000000000000000
    MP2 correlation energy                    =   -0.204856761364684
      * MP2 total energy                      =  -76.230983299911259

    Opposite-spin CCSD correlation energy     =   -0.168069100236523
    Same-spin CCSD correlation energy         =   -0.046083803943062
    Singles CCSD correlation energy           =    0.000000000000000
    CCSD correlation energy                   =   -0.214152904179585
      * CCSD total energy                     =  -76.240279442726163

            **************************
            *                        *
            *        CCTRIPLES       *
            *                        *
            **************************


    Wave function   =    CCSD_T
    Reference wfn   =      RHF

    Nuclear Rep. energy (wfn)                =    9.116312947482296
    SCF energy          (wfn)                =  -76.026126538546592
    Reference energy    (file100)            =  -76.026126538546578
    CCSD energy         (file100)            =   -0.214152904179585
    Total CCSD energy   (file100)            =  -76.240279442726163

    Number of ijk index combinations:              125

    Number of abc index combinations:             6859
    Memory available in words        :      3750000000
    ~Words needed per explicit thread:            2048
    Number of threads for explicit ijk threading:    4

    MKL num_threads set to 1 for explicit threading.

    (T) energy                                =   -0.003125248787918
      * CCSD(T) total energy                  =  -76.243404691514087


			**************************
			*                        *
			*         CCHBAR         *
			*                        *
			**************************


			**************************
			*        CCLAMBDA        *
			**************************


	Nuclear Rep. energy (wfn)     =    9.116312947482296
	Reference           (wfn)     =                    0
	SCF energy          (wfn)     =  -76.243404691514087
	Reference energy    (CC_INFO) =  -76.026126538546578

	Input parameters:
	-----------------
	Maxiter           =    300
	Convergence       = 1.0e-07
	Restart           =     No
	Cache Level       =     2
	Model III         =     No
	DIIS              =     Yes
	AO Basis          =     No
	ABCD              =     NEW
	Local CC          =     No
	Parameters for left-handed eigenvectors:
	    Irr   Root  Ground-State?    EOM energy        R0
	  1   0     0        Yes       0.0000000000   1.0000000000
	Labels for eigenvector 1:
	LIA 0 -1, Lia 0 -1, LIJAB 0 -1, Lijab 0 -1, LIjAb 0 -1, 2LIjAb - LIjbA 0 -1
	Symmetry of left-hand state: A1
	Symmetry of left-hand eigenvector: A1

	          Solving Lambda Equations
	          ------------------------
	Iter     PseudoEnergy or Norm         RMS  
	----     ---------------------     --------
	   0        -0.214169846785500    0.000e+00
	   1        -0.217336577781423    1.036e-02
	   2        -0.217093368922887    1.828e-03
	   3        -0.217099124794777    5.873e-04
	   4        -0.217108651639476    1.744e-04
	   5        -0.217110711892687    5.360e-05
	   6        -0.217110660979455    2.005e-05
	   7        -0.217110616979883    4.065e-06
	   8        -0.217110589878938    7.078e-07
	   9        -0.217110591466098    1.238e-07
	  10        -0.217110590781923    2.807e-08

	Largest LIA Amplitudes:
	          2   0         0.0063217404
	          3  14        -0.0059716867
	          3  10         0.0043605386
	          2   5        -0.0040590388
	          2   1         0.0040547602
	          3  12         0.0040018541
	          1   2         0.0033321023
	          3  11         0.0031714568
	          2   3         0.0026061083
	          4  17         0.0025578608

	Largest LIjAb Amplitudes:
	  4   4  16  16        -0.0516949586
	  3   3  11  11        -0.0374304040
	  2   2   2   2        -0.0347574387
	  3   3  10  10        -0.0332094101
	  2   4   2  16         0.0285815720
	  4   2  16   2         0.0285815720
	  3   3   1   1        -0.0281889475
	  2   2  11  11        -0.0270881864
	  3   4  12  16         0.0232831897
	  4   3  16  12         0.0232831897

	Iterations converged.

	Overlap <L|e^T> =        0.94118206279

			**************************
			*                        *
			*        CCDENSITY       *
			*                        *
			**************************


	Input parameters:
	-----------------
	Wave function    = CCSD_T
	Reference wfn    =   RHF
	Dertype          = 1
	Tolerance        = 1.0e-14
	Cache Level      = 2
	AO Basis         = No
	OPDM Only        = No
	Relax OPDM       = Yes
	Compute Xi       = No
	Use Zeta         = No
	Xi connected     = Yes
	Compute NO       = No

	Nuclear Rep. energy (wfn)     =    9.116312947482296
	SCF energy          (wfn)     =  -76.243404691514087
	Reference energy    (file100) =  -76.026126538546578
	CCSD energy         (CC_INFO) =   -0.214152904179585
	(T) energy          (CC_INFO) =   -0.003125248787918
	Total CCSD(T) energy(CC_INFO) =  -76.243404691514087
	Number of States = 1

	Ground?  State     EOM Energy       R0
	  Yes     0 A1    0.0000000000   1.00000000

	Virial Theorem Data:
	--------------------
	Kinetic energy (ref)   =   75.958881928510920
	Kinetic energy (corr)  =    0.192973487984158
	Kinetic energy (total) =   76.151855416495081
	-V/T (ref)             =    2.000885276459163
	-V/T (corr)            =    2.109752984291636
	-V/T (total)           =    2.001161153930492
  Cartesian Displacement SALCs
  By SALC:
  Number of SALCs: 3, nirreps: A1
  Project out translations: False
  Project out rotations: False
	irrep = 0, ncomponent = 2
		0: atom 0, direction x, coef 0.707107
		1: atom 2, direction x, coef -0.707107
	irrep = 0, ncomponent = 2
		0: atom 0, direction y, coef 0.707107
		1: atom 2, direction y, coef 0.707107
	irrep = 0, ncomponent = 1
		0: atom 1, direction y, coef 1.000000

  By Atomic Center:
  Number of atomic centers: 3
   Atomic Center 0:
	x component, size = 1
		0: salc 0, irrep 0, coef 0.707107
	y component, size = 1
		0: salc 1, irrep 0, coef 0.707107
	z component, size = 0
   Atomic Center 1:
	x component, size = 0
	y component, size = 1
		0: salc 2, irrep 0, coef 1.000000
	z component, size = 0
   Atomic Center 2:
	x component, size = 1
		0: salc 0, irrep 0, coef -0.707107
	y component, size = 1
		0: salc 1, irrep 0, coef 0.707107
	z component, size = 0

    Molecular point group: c2v
    Full point group: C2v

    Geometry (in Bohr), charge = 0, multiplicity = 1:

       Center              X                  Y                   Z       
    ------------   -----------------  -----------------  -----------------
         H           -1.418057442022     1.021231091120     0.000000000000
         O            0.000000000000    -0.128693685687     0.000000000000
         H            1.418057442022     1.021231091120     0.000000000000

	Presorting MO-basis TPDM.
	Sorting File: MO TPDM (AA|AA) nbuckets = 1
	Starting first half-transformation.
	Sorting half-transformed TPDM.
	First half integral transformation complete.


  -Nuclear Repulsion Energy 1st Derivatives:
     Atom            X                  Y                   Z
    ------   -----------------  -----------------  -----------------
       1        1.988508357976    -1.511696619858     0.000000000000
       2        0.000000000000     3.023393239715     0.000000000000
       3       -1.988508357976    -1.511696619858     0.000000000000


  -Core Hamiltonian Gradient:
     Atom            X                  Y                   Z
    ------   -----------------  -----------------  -----------------
       1       -4.812006044083     3.820356877466     0.000000000000
       2        0.000000000000    -7.640713754931     0.000000000000
       3        4.812006044083     3.820356877466     0.000000000000


  -Lagrangian contribution to gradient:
     Atom            X                  Y                   Z
    ------   -----------------  -----------------  -----------------
       1        0.276495476350    -0.239378969047     0.000000000000
       2        0.000000000000     0.478757938094     0.000000000000
       3       -0.276495476350    -0.239378969047     0.000000000000


  -Two-electron contribution to gradient:
     Atom            X                  Y                   Z
    ------   -----------------  -----------------  -----------------
       1        2.546723500109    -2.069046980987     0.000000000000
       2        0.000000000000     4.138093961975     0.000000000000
       3       -2.546723500109    -2.069046980987     0.000000000000


  -Total gradient:
     Atom            X                  Y                   Z
    ------   -----------------  -----------------  -----------------
       1       -0.000278709647     0.000234307574     0.000000000000
       2        0.000000000000    -0.000468615147     0.000000000000
       3        0.000278709647     0.000234307574     0.000000000000


			-----------------------------------------
			 OPTKING 2.0: for geometry optimizations 
			  - R.A. King,  Bethel University        
			-----------------------------------------

	Internal coordinates to be generated automatically.
	Detected frag 1 with atoms:  1 2 3
	---Fragment 1 Bond Connectivity---
	 1 : 2
	 2 : 1 3
	 3 : 2

	Upon request, generating intcos and halting.

    Final optimized geometry and variables:
    Molecular point group: c2v
    Full point group: C2v

    Geometry (in Bohr), charge = 0, multiplicity = 1:

    H           -1.418057442022     1.021231091120     0.000000000000
    O            0.000000000000    -0.128693685687     0.000000000000
    H            1.418057442022     1.021231091120     0.000000000000


    Psi4 stopped on: Friday, 19 June 2020 01:33PM
    Psi4 wall time for execution: 0:00:04.32

*** Psi4 exiting successfully. Buy a developer a beer!
