
    -----------------------------------------------------------------------
          Psi4: An Open-Source Ab Initio Electronic Structure Package
                               Psi4 1.4a2.dev629 

                         Git: Rev {master} 2938fc2 dirty


    D. G. A. Smith, L. A. Burns, A. C. Simmonett, R. M. Parrish,
    M. C. Schieber, R. Galvelis, P. Kraus, H. Kruse, R. Di Remigio,
    A. Alenaizan, A. M. James, S. Lehtola, J. P. Misiewicz, M. Scheurer,
    R. A. Shaw, J. B. Schriber, Y. Xie, Z. L. Glick, D. A. Sirianni,
    J. S. O'Brien, J. M. Waldrop, A. Kumar, E. G. Hohenstein,
    B. P. Pritchard, B. R. Brooks, H. F. Schaefer III, A. Yu. Sokolov,
    K. Patkowski, A. E. DePrince III, U. Bozkaya, R. A. King,
    F. A. Evangelista, J. M. Turney, T. D. Crawford, C. D. Sherrill,
    J. Chem. Phys. 152(18) 184108 (2020). https://doi.org/10.1063/5.0006002

                            Additional Code Authors
    E. T. Seidl, C. L. Janssen, E. F. Valeev, M. L. Leininger,
    J. F. Gonthier, R. M. Richard, H. R. McAlexander, M. Saitow, X. Wang,
    P. Verma, and M. H. Lechner

             Previous Authors, Complete List of Code Contributors,
                       and Citations for Specific Modules
    https://github.com/psi4/psi4/blob/master/codemeta.json
    https://github.com/psi4/psi4/graphs/contributors
    http://psicode.org/psi4manual/master/introduction.html#citing-psifour

    -----------------------------------------------------------------------


    Psi4 started on: Wednesday, 21 September 2022 04:05PM

    Process ID: 111165
    Host:       n073
    PSIDATADIR: /opt/psi/4/master/share/psi4
    Memory:     500.0 MiB
    Threads:    1
    
  ==> Input File <==

--------------------------------------------------------------------------
# o-Benzyne preliminary computations

memory 14 gb

molecule {
  0 1
  units bohr
 C   -1.3742835395   -0.0267737448    0.0000004175
 O    1.3059556771    0.1214742263    0.0000003033
 H   -2.0779716516    1.9098569684   -0.0000799118
 H   -2.1092818836   -0.9784853000    1.6821812620
 H   -2.1092749098   -0.9786165698   -1.6821091765
 H    1.9411321474   -1.5775877001   -0.0000013046
  no_reorient
  no_com
}

set {
  basis 6-31g*
  reference rhf
  e_convergence 10 
  d_convergence 10
  r_convergence 8
  maxiter 300
  dft_spherical_points 1202
  dft_radial_points 99
  freeze_core True
}


#gradient('ccsd(t)')
gradient('b3lyp')
--------------------------------------------------------------------------

  Memory set to  13.039 GiB by Python driver.

Scratch directory: /tmp/
gradient() will perform analytic gradient computation.

*** tstart() called on n073
*** at Wed Sep 21 16:05:37 2022

   => Loading Basis Set <=

    Name: 6-31G*
    Role: ORBITAL
    Keyword: BASIS
    atoms 1   entry C          line   111 file /opt/psi/4/master/share/psi4/basis/6-31gs.gbs 
    atoms 2   entry O          line   145 file /opt/psi/4/master/share/psi4/basis/6-31gs.gbs 
    atoms 3-6 entry H          line    44 file /opt/psi/4/master/share/psi4/basis/6-31gs.gbs 


         ---------------------------------------------------------
                                   SCF
               by Justin Turney, Rob Parrish, Andy Simmonett
                          and Daniel G. A. Smith
                              RKS Reference
                        1 Threads,  13351 MiB Core
         ---------------------------------------------------------

  ==> Geometry <==

    Molecular point group: c1
    Full point group: C1

    Geometry (in Bohr), charge = 0, multiplicity = 1:

       Center              X                  Y                   Z               Mass       
    ------------   -----------------  -----------------  -----------------  -----------------
         C           -1.374283539500    -0.026773744800     0.000000417500    12.000000000000
         O            1.305955677100     0.121474226300     0.000000303300    15.994914619570
         H           -2.077971651600     1.909856968400    -0.000079911800     1.007825032230
         H           -2.109281883600    -0.978485300000     1.682181262000     1.007825032230
         H           -2.109274909800    -0.978616569800    -1.682109176500     1.007825032230
         H            1.941132147400    -1.577587700100    -0.000001304600     1.007825032230

  Running in c1 symmetry.

  Rotational constants: A =      4.28085  B =      0.82733  C =      0.79820 [cm^-1]
  Rotational constants: A = 128336.72967  B =  24802.65172  C =  23929.34845 [MHz]
  Nuclear repulsion =   40.309434181147196

  Charge       = 0
  Multiplicity = 1
  Electrons    = 18
  Nalpha       = 9
  Nbeta        = 9

  ==> Algorithm <==

  SCF Algorithm Type is DF.
  DIIS enabled.
  MOM disabled.
  Fractional occupation disabled.
  Guess Type is SAD.
  Energy threshold   = 1.00e-10
  Density threshold  = 1.00e-10
  Integral threshold = 0.00e+00

  ==> Primary Basis <==

  Basis Set: 6-31G*
    Blend: 6-31G*
    Number of shells: 20
    Number of basis function: 38
    Number of Cartesian functions: 38
    Spherical Harmonics?: false
    Max angular momentum: 2

  ==> DFT Potential <==

   => Composite Functional: B3LYP <= 

    B3LYP Hyb-GGA Exchange-Correlation Functional

    P. J. Stephens, F. J. Devlin, C. F. Chabalowski, and M. J. Frisch, J. Phys. Chem. 98, 11623 (1994)

    Deriv               =              1
    GGA                 =           TRUE
    Meta                =          FALSE

    Exchange Hybrid     =           TRUE
    MP2 Hybrid          =          FALSE

   => Exchange Functionals <=

    0.0800   Slater exchange
    0.7200         Becke 88

   => Exact (HF) Exchange <=

    0.2000               HF 

   => Correlation Functionals <=

    0.1900   Vosko, Wilk & Nusair (VWN5_RPA)
    0.8100   Lee, Yang & Parr

   => Molecular Quadrature <=

    Radial Scheme          =       TREUTLER
    Pruning Scheme         =           NONE
    Nuclear Scheme         =       TREUTLER

    BS radius alpha        =              1
    Pruning alpha          =              1
    Radial Points          =             99
    Spherical Points       =           1202
    Total Points           =         678842
    Total Blocks           =           4723
    Max Points             =            256
    Max Functions          =             38
    Weights Tolerance      =       1.00E-15

   => Loading Basis Set <=

    Name: (6-31G* AUX)
    Role: JKFIT
    Keyword: DF_BASIS_SCF
    atoms 1   entry C          line   121 file /opt/psi/4/master/share/psi4/basis/cc-pvdz-jkfit.gbs 
    atoms 2   entry O          line   221 file /opt/psi/4/master/share/psi4/basis/cc-pvdz-jkfit.gbs 
    atoms 3-6 entry H          line    51 file /opt/psi/4/master/share/psi4/basis/cc-pvdz-jkfit.gbs 

  ==> Integral Setup <==

  DFHelper Memory: AOs need 0.004 GiB; user supplied 9.070 GiB. Using in-core AOs.

  ==> MemDFJK: Density-Fitted J/K Matrices <==

    J tasked:                   Yes
    K tasked:                   Yes
    wK tasked:                   No
    OpenMP threads:               1
    Memory [MiB]:              9287
    Algorithm:                 Core
    Schwarz Cutoff:           1E-12
    Mask sparsity (%):       0.0000
    Fitting Condition:        1E-10

   => Auxiliary Basis Set <=

  Basis Set: (6-31G* AUX)
    Blend: CC-PVDZ-JKFIT
    Number of shells: 84
    Number of basis function: 262
    Number of Cartesian functions: 262
    Spherical Harmonics?: false
    Max angular momentum: 3

  Cached 100.0% of DFT collocation blocks in 0.709 [GiB].

  Minimum eigenvalue in the overlap matrix is 9.7431136528E-03.
  Reciprocal condition number of the overlap matrix is 1.6239778912E-03.
    Using symmetric orthogonalization.

  ==> Pre-Iterations <==

  SCF Guess: Superposition of Atomic Densities via on-the-fly atomic UHF (no occupation information).

   -------------------------
    Irrep   Nso     Nmo    
   -------------------------
     A         38      38 
   -------------------------
    Total      38      38
   -------------------------

  ==> Iterations <==

                           Total Energy        Delta E     RMS |[F,P]|

   @DF-RKS iter SAD:  -115.27647630286519   -1.15276e+02   0.00000e+00 
   @DF-RKS iter   1:  -115.54950346547827   -2.73027e-01   1.60873e-02 DIIS
   @DF-RKS iter   2:  -115.45052215974962    9.89813e-02   2.10662e-02 DIIS
   @DF-RKS iter   3:  -115.71156214240278   -2.61040e-01   2.14197e-03 DIIS
   @DF-RKS iter   4:  -115.71401978892411   -2.45765e-03   6.73313e-04 DIIS
   @DF-RKS iter   5:  -115.71428659504741   -2.66806e-04   8.12016e-05 DIIS
   @DF-RKS iter   6:  -115.71429047501600   -3.87997e-06   8.53770e-06 DIIS
   @DF-RKS iter   7:  -115.71429052123329   -4.62173e-08   7.65805e-07 DIIS
   @DF-RKS iter   8:  -115.71429052163906   -4.05763e-10   1.06967e-07 DIIS
   @DF-RKS iter   9:  -115.71429052164710   -8.04334e-12   2.04690e-08 DIIS
   @DF-RKS iter  10:  -115.71429052164748   -3.83693e-13   1.33288e-09 DIIS
   @DF-RKS iter  11:  -115.71429052164751   -2.84217e-14   1.18026e-10 DIIS
   @DF-RKS iter  12:  -115.71429052164737    1.42109e-13   2.22706e-11 DIIS
  Energy and wave function converged.


  ==> Post-Iterations <==

    Orbital Energies [Eh]
    ---------------------

    Doubly Occupied:                                                      

       1A    -19.138583     2A    -10.223059     3A     -1.011404  
       4A     -0.680055     5A     -0.502644     6A     -0.435865  
       7A     -0.419395     8A     -0.330666     9A     -0.264547  

    Virtual:                                                              

      10A      0.077196    11A      0.132509    12A      0.168014  
      13A      0.176867    14A      0.205508    15A      0.533632  
      16A      0.566386    17A      0.575670    18A      0.791606  
      19A      0.854067    20A      0.872052    21A      0.906848  
      22A      0.955382    23A      0.977131    24A      1.025549  
      25A      1.115405    26A      1.462109    27A      1.502302  
      28A      1.585287    29A      1.744410    30A      2.042430  
      31A      2.115875    32A      2.136330    33A      2.350656  
      34A      2.402628    35A      2.456638    36A      2.794026  
      37A      3.699348    38A      4.216801  

    Final Occupation by Irrep:
              A 
    DOCC [     9 ]

  @DF-RKS Final Energy:  -115.71429052164737

   => Energetics <=

    Nuclear Repulsion Energy =             40.3094341811471963
    One-Electron Energy =                -237.0172808625455900
    Two-Electron Energy =                  93.5457716500344674
    DFT Exchange-Correlation Energy =     -12.5522154902834426
    Empirical Dispersion Energy =           0.0000000000000000
    VV10 Nonlocal Energy =                  0.0000000000000000
    Total Energy =                       -115.7142905216473707

Computation Completed


Properties will be evaluated at   0.000000,   0.000000,   0.000000 [a0]

Properties computed using the SCF density matrix

  Nuclear Dipole Moment: [e a0]
     X:    -2.1535      Y:    -0.8137      Z:    -0.0000

  Electronic Dipole Moment: [e a0]
     X:     1.8215      Y:     0.2287      Z:     0.0000

  Dipole Moment: [e a0]
     X:    -0.3319      Y:    -0.5849      Z:    -0.0000     Total:     0.6726

  Dipole Moment: [D]
     X:    -0.8437      Y:    -1.4868      Z:    -0.0000     Total:     1.7095


*** tstop() called on n073 at Wed Sep 21 16:05:55 2022
Module time:
	user time   =      16.83 seconds =       0.28 minutes
	system time =       0.30 seconds =       0.01 minutes
	total time  =         18 seconds =       0.30 minutes
Total time:
	user time   =      16.83 seconds =       0.28 minutes
	system time =       0.30 seconds =       0.01 minutes
	total time  =         18 seconds =       0.30 minutes

*** tstart() called on n073
*** at Wed Sep 21 16:05:55 2022


         ------------------------------------------------------------
                                   SCF GRAD                          
                          Rob Parrish, Justin Turney,                
                       Andy Simmonett, and Alex Sokolov              
         ------------------------------------------------------------

  ==> Geometry <==

    Molecular point group: c1
    Full point group: C1

    Geometry (in Bohr), charge = 0, multiplicity = 1:

       Center              X                  Y                   Z               Mass       
    ------------   -----------------  -----------------  -----------------  -----------------
         C           -1.374283539500    -0.026773744800     0.000000417500    12.000000000000
         O            1.305955677100     0.121474226300     0.000000303300    15.994914619570
         H           -2.077971651600     1.909856968400    -0.000079911800     1.007825032230
         H           -2.109281883600    -0.978485300000     1.682181262000     1.007825032230
         H           -2.109274909800    -0.978616569800    -1.682109176500     1.007825032230
         H            1.941132147400    -1.577587700100    -0.000001304600     1.007825032230

  Nuclear repulsion =   40.309434181147196

  ==> Basis Set <==

  Basis Set: 6-31G*
    Blend: 6-31G*
    Number of shells: 20
    Number of basis function: 38
    Number of Cartesian functions: 38
    Spherical Harmonics?: false
    Max angular momentum: 2

  ==> DFJKGrad: Density-Fitted SCF Gradients <==

    Gradient:                    1
    J tasked:                  Yes
    K tasked:                  Yes
    wK tasked:                  No
    OpenMP threads:              1
    Integrals threads:           1
    Memory [MiB]:            10013
    Schwarz Cutoff:          0E+00
    Fitting Condition:       1E-10

   => Auxiliary Basis Set <=

  Basis Set: (6-31G* AUX)
    Blend: CC-PVDZ-JKFIT
    Number of shells: 84
    Number of basis function: 262
    Number of Cartesian functions: 262
    Spherical Harmonics?: false
    Max angular momentum: 3

  ==> DFT Potential <==

   => Composite Functional: B3LYP <= 

    B3LYP Hyb-GGA Exchange-Correlation Functional

    P. J. Stephens, F. J. Devlin, C. F. Chabalowski, and M. J. Frisch, J. Phys. Chem. 98, 11623 (1994)

    Deriv               =              1
    GGA                 =           TRUE
    Meta                =          FALSE

    Exchange Hybrid     =           TRUE
    MP2 Hybrid          =          FALSE

   => Exchange Functionals <=

    0.0800   Slater exchange
    0.7200         Becke 88

   => Exact (HF) Exchange <=

    0.2000               HF 

   => Correlation Functionals <=

    0.1900   Vosko, Wilk & Nusair (VWN5_RPA)
    0.8100   Lee, Yang & Parr

   => Molecular Quadrature <=

    Radial Scheme          =       TREUTLER
    Pruning Scheme         =           NONE
    Nuclear Scheme         =       TREUTLER

    BS radius alpha        =              1
    Pruning alpha          =              1
    Radial Points          =             99
    Spherical Points       =           1202
    Total Points           =         678842
    Total Blocks           =           4723
    Max Points             =            256
    Max Functions          =             38
    Weights Tolerance      =       1.00E-15


  -Total Gradient:
     Atom            X                  Y                   Z
    ------   -----------------  -----------------  -----------------
       1       -0.004672578967    -0.002296753715     0.000000291313
       2        0.003526750162    -0.008009599290     0.000000254023
       3        0.000544781620    -0.001948848874    -0.000000124519
       4        0.002112072933     0.002142701831    -0.003155013471
       5        0.002112021707     0.002142927895     0.003154815103
       6       -0.003623134133     0.007969636522    -0.000000222453


*** tstop() called on n073 at Wed Sep 21 16:05:58 2022
Module time:
	user time   =       2.82 seconds =       0.05 minutes
	system time =       0.01 seconds =       0.00 minutes
	total time  =          3 seconds =       0.05 minutes
Total time:
	user time   =      19.65 seconds =       0.33 minutes
	system time =       0.31 seconds =       0.01 minutes
	total time  =         21 seconds =       0.35 minutes

    Psi4 stopped on: Wednesday, 21 September 2022 04:05PM
    Psi4 wall time for execution: 0:00:20.25

*** Psi4 exiting successfully. Buy a developer a beer!
