
    -----------------------------------------------------------------------
          Psi4: An Open-Source Ab Initio Electronic Structure Package
                               Psi4 1.4a2.dev629 

                         Git: Rev {master} 2938fc2 dirty


    D. G. A. Smith, L. A. Burns, A. C. Simmonett, R. M. Parrish,
    M. C. Schieber, R. Galvelis, P. Kraus, H. Kruse, R. Di Remigio,
    A. Alenaizan, A. M. James, S. Lehtola, J. P. Misiewicz, M. Scheurer,
    R. A. Shaw, J. B. Schriber, Y. Xie, Z. L. Glick, D. A. Sirianni,
    J. S. O'Brien, J. M. Waldrop, A. Kumar, E. G. Hohenstein,
    B. P. Pritchard, B. R. Brooks, H. F. Schaefer III, A. Yu. Sokolov,
    K. Patkowski, A. E. DePrince III, U. Bozkaya, R. A. King,
    F. A. Evangelista, J. M. Turney, T. D. Crawford, C. D. Sherrill,
    J. Chem. Phys. 152(18) 184108 (2020). https://doi.org/10.1063/5.0006002

                            Additional Code Authors
    E. T. Seidl, C. L. Janssen, E. F. Valeev, M. L. Leininger,
    J. F. Gonthier, R. M. Richard, H. R. McAlexander, M. Saitow, X. Wang,
    P. Verma, and M. H. Lechner

             Previous Authors, Complete List of Code Contributors,
                       and Citations for Specific Modules
    https://github.com/psi4/psi4/blob/master/codemeta.json
    https://github.com/psi4/psi4/graphs/contributors
    http://psicode.org/psi4manual/master/introduction.html#citing-psifour

    -----------------------------------------------------------------------


    Psi4 started on: Monday, 06 September 2021 06:17PM

    Process ID: 8492
    Host:       n013
    PSIDATADIR: /opt/psi/4/master/share/psi4
    Memory:     500.0 MiB
    Threads:    1
    
  ==> Input File <==

--------------------------------------------------------------------------
# o-Benzyne preliminary computations

memory 14 gb

molecule {
  0 1
  units bohr
 H    0.0000000000   -1.4271071346    0.9978749231
 O    0.0000000000    0.0049723037   -0.1254921562
 H    0.0000000000    1.4221348309    0.9939608530
}

set {
  basis cc-pvtz
  reference rhf
  e_convergence 10 
  d_convergence 10
  r_convergence 8
  maxiter 300
  freeze_core True
}

e, wfn = energy('ccsd(t)', return_wfn = True)
psi4.print_out('Giraffe The Energy is %.12f \n'%(e))
--------------------------------------------------------------------------

  Memory set to  13.039 GiB by Python driver.

Scratch directory: /tmp/

*** tstart() called on n013
*** at Mon Sep  6 18:17:22 2021

   => Loading Basis Set <=

    Name: CC-PVTZ
    Role: ORBITAL
    Keyword: BASIS
    atoms 1, 3 entry H          line    23 file /opt/psi/4/master/share/psi4/basis/cc-pvtz.gbs 
    atoms 2    entry O          line   262 file /opt/psi/4/master/share/psi4/basis/cc-pvtz.gbs 


         ---------------------------------------------------------
                                   SCF
               by Justin Turney, Rob Parrish, Andy Simmonett
                          and Daniel G. A. Smith
                              RHF Reference
                        1 Threads,  13351 MiB Core
         ---------------------------------------------------------

  ==> Geometry <==

    Molecular point group: cs
    Full point group: Cs

    Geometry (in Bohr), charge = 0, multiplicity = 1:

       Center              X                  Y                   Z               Mass       
    ------------   -----------------  -----------------  -----------------  -----------------
         H            1.431244726192    -0.997864616294     0.000000000000     1.007825032230
         O           -0.000834712108     0.125502463006     0.000000000000    15.994914619570
         H           -1.417997239308    -0.993950546194     0.000000000000     1.007825032230

  Running in cs symmetry.

  Rotational constants: A =     26.74475  B =     14.71450  C =      9.49211 [cm^-1]
  Rotational constants: A = 801787.51085  B = 441129.48771  C = 284566.15713 [MHz]
  Nuclear repulsion =    9.176060287905432

  Charge       = 0
  Multiplicity = 1
  Electrons    = 10
  Nalpha       = 5
  Nbeta        = 5

  ==> Algorithm <==

  SCF Algorithm Type is PK.
  DIIS enabled.
  MOM disabled.
  Fractional occupation disabled.
  Guess Type is SAD.
  Energy threshold   = 1.00e-10
  Density threshold  = 1.00e-10
  Integral threshold = 0.00e+00

  ==> Primary Basis <==

  Basis Set: CC-PVTZ
    Blend: CC-PVTZ
    Number of shells: 22
    Number of basis function: 58
    Number of Cartesian functions: 65
    Spherical Harmonics?: true
    Max angular momentum: 3

  ==> Integral Setup <==

  Using in-core PK algorithm.
   Calculation information:
      Number of atoms:                   3
      Number of AO shells:              22
      Number of primitives:             42
      Number of atomic orbitals:        65
      Number of basis functions:        58

      Integral cutoff                 1.00e-12
      Number of threads:                 1

  Performing in-core PK
  Using 2929232 doubles for integral storage.
  We computed 32131 shell quartets total.
  Whereas there are 32131 unique shell quartets.

  ==> DiskJK: Disk-Based J/K Matrices <==

    J tasked:                  Yes
    K tasked:                  Yes
    wK tasked:                  No
    Memory [MiB]:            10013
    Schwarz Cutoff:          1E-12

    OpenMP threads:              1

  Minimum eigenvalue in the overlap matrix is 2.5222223721E-03.
  Reciprocal condition number of the overlap matrix is 4.9298952335E-04.
    Using symmetric orthogonalization.

  ==> Pre-Iterations <==

  SCF Guess: Superposition of Atomic Densities via on-the-fly atomic UHF (no occupation information).

   -------------------------
    Irrep   Nso     Nmo    
   -------------------------
     A'        40      40 
     A"        18      18 
   -------------------------
    Total      58      58
   -------------------------

  ==> Iterations <==

                        Total Energy        Delta E     RMS |[F,P]|

   @RHF iter SAD:   -75.49983789864156   -7.54998e+01   0.00000e+00 
   @RHF iter   1:   -75.97835035086439   -4.78512e-01   1.02943e-02 DIIS
   @RHF iter   2:   -76.03093678346481   -5.25864e-02   6.65783e-03 DIIS
   @RHF iter   3:   -76.05650272012181   -2.55659e-02   4.97216e-04 DIIS
   @RHF iter   4:   -76.05689260647877   -3.89886e-04   1.21733e-04 DIIS
   @RHF iter   5:   -76.05691735867610   -2.47522e-05   2.52297e-05 DIIS
   @RHF iter   6:   -76.05691892045678   -1.56178e-06   4.87423e-06 DIIS
   @RHF iter   7:   -76.05691897984664   -5.93899e-08   7.73240e-07 DIIS
   @RHF iter   8:   -76.05691898106691   -1.22027e-09   1.18032e-07 DIIS
   @RHF iter   9:   -76.05691898109606   -2.91465e-11   3.30047e-08 DIIS
   @RHF iter  10:   -76.05691898109851   -2.44427e-12   4.32447e-09 DIIS
   @RHF iter  11:   -76.05691898109846    4.26326e-14   6.29464e-10 DIIS
   @RHF iter  12:   -76.05691898109873   -2.70006e-13   1.24966e-10 DIIS
   @RHF iter  13:   -76.05691898109869    4.26326e-14   2.20292e-11 DIIS
  Energy and wave function converged.


  ==> Post-Iterations <==

    Orbital Energies [Eh]
    ---------------------

    Doubly Occupied:                                                      

       1Ap   -20.555581     2Ap    -1.345258     3Ap    -0.706813  
       4Ap    -0.579152     1App   -0.504610  

    Virtual:                                                              

       5Ap     0.141858     6Ap     0.204047     7Ap     0.541687  
       8Ap     0.604412     9Ap     0.667982     2App    0.787191  
      10Ap     0.795797    11Ap     0.805775     3App    0.862664  
       4App    0.951104    12Ap     1.134396    13Ap     1.198554  
      14Ap     1.522154    15Ap     1.565645     5App    2.040155  
      16Ap     2.054896     6App    2.063291    17Ap     2.172473  
      18Ap     2.233639    19Ap     2.584357    20Ap     2.964790  
       7App    3.346990    21Ap     3.485409     8App    3.588107  
      22Ap     3.659072     9App    3.797573    23Ap     3.876028  
      24Ap     3.887134    10App    3.963397    11App    4.016809  
      25Ap     4.072525    26Ap     4.191269    12App    4.305857  
      27Ap     4.374893    28Ap     4.594191    13App    4.682113  
      29Ap     4.861377    30Ap     5.157648    31Ap     5.250132  
      32Ap     5.523861    14App    6.051678    33Ap     6.574686  
      15App    6.910034    16App    6.940897    17App    7.004762  
      34Ap     7.012546    35Ap     7.042049    36Ap     7.176127  
      18App    7.235512    37Ap     7.448987    38Ap     7.793307  
      39Ap     8.286746    40Ap    12.837150  

    Final Occupation by Irrep:
             Ap   App 
    DOCC [     4,    1 ]

  @RHF Final Energy:   -76.05691898109869

   => Energetics <=

    Nuclear Repulsion Energy =              9.1760602879054325
    One-Electron Energy =                -123.0831321933633262
    Two-Electron Energy =                  37.8501529243592216
    Total Energy =                        -76.0569189810986757

Computation Completed


Properties will be evaluated at   0.000000,   0.000000,   0.000000 [a0]

Properties computed using the SCF density matrix

  Nuclear Dipole Moment: [e a0]
     X:     0.0066      Y:    -0.9878      Z:     0.0000

  Electronic Dipole Moment: [e a0]
     X:    -0.0029      Y:     0.1846      Z:     0.0000

  Dipole Moment: [e a0]
     X:     0.0036      Y:    -0.8032      Z:     0.0000     Total:     0.8032

  Dipole Moment: [D]
     X:     0.0092      Y:    -2.0416      Z:     0.0000     Total:     2.0416


*** tstop() called on n013 at Mon Sep  6 18:17:24 2021
Module time:
	user time   =       1.80 seconds =       0.03 minutes
	system time =       0.03 seconds =       0.00 minutes
	total time  =          2 seconds =       0.03 minutes
Total time:
	user time   =       1.80 seconds =       0.03 minutes
	system time =       0.03 seconds =       0.00 minutes
	total time  =          2 seconds =       0.03 minutes
 MINTS: Wrapper to libmints.
   by Justin Turney

   Calculation information:
      Number of threads:                 1
      Number of atoms:                   3
      Number of AO shells:              22
      Number of SO shells:              22
      Number of primitives:             42
      Number of atomic orbitals:        65
      Number of basis functions:        58

      Number of irreps:                  2
      Integral cutoff                 0.00e+00
      Number of functions per irrep: [  40   18 ]

 OEINTS: Overlap, kinetic, potential, dipole, and quadrupole integrals
         stored in file 35.

      Computing two-electron integrals...done
      Computed 711838 non-zero two-electron integrals.
        Stored in file 33.


*** tstart() called on n013
*** at Mon Sep  6 18:17:25 2021


	Wfn Parameters:
	--------------------
	Wavefunction         = CCSD_T
	Number of irreps     = 2
	Number of MOs        = 58
	Number of active MOs = 57
	AO-Basis             = NONE
	Semicanonical        = false
	Reference            = RHF
	Print Level          = 1

	IRREP	# MOs	# FZDC	# DOCC	# SOCC	# VIRT	# FZVR
	-----	-----	------	------	------	------	------
	 Ap	   40	    1	    3	    0	    36	    0
	 App	   18	    0	    1	    0	    17	    0
	Transforming integrals...
	IWL integrals will be deleted.
	(OO|OO)...
	Presorting SO-basis two-electron integrals.
	Sorting File: SO Ints (nn|nn) nbuckets = 1
	Transforming the one-electron integrals and constructing Fock matrices
	Starting first half-transformation.
	Sorting half-transformed integrals.
	First half integral transformation complete.
	Starting second half-transformation.
	Two-electron integral transformation complete.
	(OO|OV)...
	Starting second half-transformation.
	Two-electron integral transformation complete.
	(OO|VV)...
	Starting second half-transformation.
	Two-electron integral transformation complete.
	(OV|OO)...
	Starting first half-transformation.
	Sorting half-transformed integrals.
	First half integral transformation complete.
	Starting second half-transformation.
	Two-electron integral transformation complete.
	(OV|OV)...
	Starting second half-transformation.
	Two-electron integral transformation complete.
	(OV|VV)...
	Starting second half-transformation.
	Two-electron integral transformation complete.
	(VV|OO)...
	Starting first half-transformation.
	Sorting half-transformed integrals.
	First half integral transformation complete.
	Starting second half-transformation.
	Two-electron integral transformation complete.
	(VV|OV)...
	Starting second half-transformation.
	Two-electron integral transformation complete.
	(VV|VV)...
	Starting second half-transformation.
	Two-electron integral transformation complete.
	Frozen core energy     =    -61.31171328816242

	Size of irrep 0 of <ab|cd> integrals:      2.512 (MW) /     20.098 (MB)
	Size of irrep 1 of <ab|cd> integrals:      1.498 (MW) /     11.985 (MB)
	Total:                                     4.010 (MW) /     32.083 (MB)

	Size of irrep 0 of <ia|bc> integrals:      0.198 (MW) /      1.585 (MB)
	Size of irrep 1 of <ia|bc> integrals:      0.106 (MW) /      0.852 (MB)
	Total:                                     0.305 (MW) /      2.437 (MB)

	Size of irrep 0 of tijab amplitudes:       0.016 (MW) /      0.127 (MB)
	Size of irrep 1 of tijab amplitudes:       0.007 (MW) /      0.059 (MB)
	Total:                                     0.023 (MW) /      0.186 (MB)

	Nuclear Rep. energy          =      9.17606028790543
	SCF energy                   =    -76.05691898109869
	One-electron energy          =    -41.57086782686393
	Two-electron energy          =     17.64960184602222
	Reference energy             =    -76.05691898109870

*** tstop() called on n013 at Mon Sep  6 18:17:26 2021
Module time:
	user time   =       0.72 seconds =       0.01 minutes
	system time =       0.24 seconds =       0.00 minutes
	total time  =          1 seconds =       0.02 minutes
Total time:
	user time   =       2.75 seconds =       0.05 minutes
	system time =       0.29 seconds =       0.00 minutes
	total time  =          4 seconds =       0.07 minutes
            **************************
            *                        *
            *        CCENERGY        *
            *                        *
            **************************

    Nuclear Rep. energy (wfn)     =    9.176060287905432
    SCF energy          (wfn)     =  -76.056918981098690
    Reference energy    (file100) =  -76.056918981098704

    Input parameters:
    -----------------
    Wave function   =     CCSD_T
    Reference wfn   =     RHF
    Brueckner       =     No
    Memory (Mbytes) =     14000.0
    Maxiter         =    300
    R_Convergence   =     1.0e-08
    E_Convergence   =     1.0e-10
    Restart         =     Yes
    DIIS            =     Yes
    AO Basis        =     NONE
    ABCD            =     NEW
    Cache Level     =     2
    Cache Type      =     LOW
    Print Level     =     1
    Num. of threads =     1
    # Amps to Print =     10
    Print MP2 Amps? =     No
    Analyze T2 Amps =     No
    Print Pair Ener =     No
    Local CC        =     No
    SCS-MP2         =     False
    SCSN-MP2        =     False
    SCS-CCSD        =     False

MP2 correlation energy -0.2617104701812090
                Solving CC Amplitude Equations
                ------------------------------
  Iter             Energy              RMS        T1Diag      D1Diag    New D1Diag    D2Diag
  ----     ---------------------    ---------   ----------  ----------  ----------   --------
     0        -0.261710470181209    0.000e+00    0.000000    0.000000    0.000000    0.116250
     1        -0.262027579055157    2.912e-02    0.005707    0.009298    0.009298    0.119914
     2        -0.266874192426915    1.004e-02    0.005905    0.009457    0.009457    0.124606
     3        -0.267584361530481    3.226e-03    0.006493    0.010595    0.010595    0.126263
     4        -0.267576635991769    6.558e-04    0.006531    0.010687    0.010687    0.126473
     5        -0.267598553511420    2.070e-04    0.006552    0.010777    0.010777    0.126522
     6        -0.267599096543119    6.176e-05    0.006557    0.010813    0.010813    0.126519
     7        -0.267599181618431    1.982e-05    0.006560    0.010829    0.010829    0.126518
     8        -0.267598870782662    5.099e-06    0.006561    0.010834    0.010834    0.126517
     9        -0.267598781747014    1.048e-06    0.006561    0.010834    0.010834    0.126517
    10        -0.267598794677928    2.348e-07    0.006561    0.010834    0.010834    0.126517
    11        -0.267598793373372    4.564e-08    0.006561    0.010834    0.010834    0.126517
    12        -0.267598794999837    1.012e-08    0.006561    0.010834    0.010834    0.126517
    13        -0.267598795038848    2.445e-09    0.006561    0.010834    0.010834    0.126517
    14        -0.267598795047653    6.142e-10    0.006561    0.010834    0.010834    0.126517

    Iterations converged.


    Largest TIA Amplitudes:
              3  36        -0.0075232582
              2   0         0.0058488715
              1   9        -0.0057827177
              3  38        -0.0049346199
              2   5        -0.0045597405
              2  10        -0.0041448827
              0   4        -0.0040236991
              2   4         0.0038568147
              1  20        -0.0038464462
              2  21        -0.0037828602

    Largest TIjAb Amplitudes:
      3   3  36  36        -0.0476500661
      2   2   4   4        -0.0295838239
      1   1   2   2        -0.0270760771
      2   3   4  36         0.0259189713
      3   2  36   4         0.0259189713
      1   1   3   3        -0.0253227863
      1   1   6   6        -0.0226685420
      1   3   6  36         0.0222583043
      3   1  36   6         0.0222583043
      2   2   2   2        -0.0221708963

    SCF energy       (wfn)                    =  -76.056918981098690
    Reference energy (file100)                =  -76.056918981098704

    Opposite-spin MP2 correlation energy      =   -0.198148052162720
    Same-spin MP2 correlation energy          =   -0.063562418018489
    Singles MP2 correlation energy            =   -0.000000000000000
    MP2 correlation energy                    =   -0.261710470181209
      * MP2 total energy                      =  -76.318629451279918

    Opposite-spin CCSD correlation energy     =   -0.210925158758475
    Same-spin CCSD correlation energy         =   -0.056673636289177
    Singles CCSD correlation energy           =    0.000000000000000
    CCSD correlation energy                   =   -0.267598795047653
      * CCSD total energy                     =  -76.324517776146351

            **************************
            *                        *
            *        CCTRIPLES       *
            *                        *
            **************************


    Wave function   =    CCSD_T
    Reference wfn   =      RHF

    Nuclear Rep. energy (wfn)                =    9.176060287905432
    SCF energy          (wfn)                =  -76.056918981098690
    Reference energy    (file100)            =  -76.056918981098704
    CCSD energy         (file100)            =   -0.267598795047653
    Total CCSD energy   (file100)            =  -76.324517776146351

    Number of ijk index combinations:               20
    Memory available in words        :      1750000000
    ~Words needed per explicit thread:          186624
    Number of threads for explicit ijk threading:    1

    MKL num_threads set to 1 for explicit threading.

    (T) energy                                =   -0.007671196737232
      * CCSD(T) total energy                  =  -76.332188972883586

Giraffe The Energy is -76.332188972884 

    Psi4 stopped on: Monday, 06 September 2021 06:17PM
    Psi4 wall time for execution: 0:00:09.64

*** Psi4 exiting successfully. Buy a developer a beer!
