
 Primary working directories    : /tmp/795519.133.gen6.q
 Secondary working directories  : /tmp/795519.133.gen6.q
 Wavefunction directory         : /home/vulcan/mel64643/wfu/
 Main file repository           : /tmp/795519.133.gen6.q/

 ARCHNAME  : Linux/x86_64
 FC        : /opt/intel/compilers_and_libraries_2016.1.150/linux/bin/intel64/ifort
 FCVERSION : 16.0.1
 BLASLIB   : -mkl
 id        : ccgc

 Nodes     nprocs
 n079         1
 ga_uses_ma=false, calling ma_init with nominal heap.
 GA-space will be limited to   8.0 MW (determined by -G option)

 Using customized tuning parameters: mindgm=10; mindgv=16; mindgc=4; mindgr=1; noblas=0; mincuda=1000; minvec=7
 default implementation of scratch files=df  

 ***,Optimization of min3
 memory,1000,m
 gthresh,energy=1.0d-12,orbital=1.0d-10,oneint=1.0d-16,twoint=1.0d-16,optgrad=1.0d-6,compress=1.0d-13
 geomtyp=xyz
 
  bohr
  geometry = {
  6
  arbitrary comment
  C   -1.3748495919   -0.0257940761   -0.0008214399
  O    1.3049807862    0.1203294721    0.0015435218
  H   -2.0783209242    1.9156435490   -0.0010011343
  H   -2.1017592404   -0.9826316710    1.6759908222
  H   -2.1150544884   -0.9801660380   -1.6800977923
  H    1.9412792986   -1.5775133562    0.0043776124
 }
 
 basis=cc-pvdz
 {rhf;maxit,200}
 {ccsd(t);maxit,200}

 Variables initialized (661), CPU time= 0.00 sec
 Commands  initialized (458), CPU time= 0.01 sec, 486 directives.
 Default parameters read. Elapsed time= 0.04 sec

 Checking input...
 Passed
1


                                         ***  PROGRAM SYSTEM MOLPRO  ***
                         Copyright, University College Cardiff Consultants Limited, 2008

                                    Version 2010.1 linked May 16 2016 07:17:05


 **********************************************************************************************************************************
 LABEL *   Optimization of min3                                                          
 Linux-4.4.3/n079(x86_64) 64 bit mpp version                                             DATE: 24-Oct-22          TIME: 15:43:51  
 **********************************************************************************************************************************

 SHA1:             9e8077add272b0f3cad6f7df79ec5211205f459d
 **********************************************************************************************************************************

 THRESHOLDS:

 ZERO    =  1.00D-12  ONEINT  =  1.00D-16  TWOINT  =  1.00D-16  PREFAC  =  1.00D-14  LOCALI  =  1.00D-09  EORDER  =  1.00D-04
 ENERGY  =  1.00D-12  ETEST   =  0.00D+00  EDENS   =  0.00D+00  THRDEDEF=  1.00D-06  GRADIENT=  1.00D-02  STEP    =  1.00D-03
 ORBITAL =  1.00D-10  CIVEC   =  1.00D-05  COEFF   =  1.00D-04  PRINTCI =  5.00D-02  PUNCHCI =  9.90D+01  OPTGRAD =  1.00D-06
 OPTENERG=  1.00D-06  OPTSTEP =  3.00D-04  THRGRAD =  1.00D-10  COMPRESS=  1.00D-13  VARMIN  =  1.00D-07  VARMAX  =  1.00D-03
 THRDOUB =  0.00D+00  THRDIV  =  1.00D-05  THRRED  =  1.00D-07  THRPSP  =  1.00D+00  THRDC   =  1.00D-10  THRCS   =  1.00D-10
 THRNRM  =  1.00D-08  THREQ   =  0.00D+00  THRDE   =  1.00D+00  THRREF  =  1.00D-05  SPARFAC =  1.00D+00  THRDLP  =  1.00D-07
 THRDIA  =  1.00D-10  THRDLS  =  1.00D-07  THRGPS  =  0.00D+00  THRKEX  =  0.00D+00  THRDIS  =  2.00D-01  THRVAR  =  1.00D-10
 THRLOC  =  1.00D-06  THRGAP  =  1.00D-06  THRLOCT = -1.00D+00  THRGAPT = -1.00D+00  THRORB  =  1.00D-06  THRMLTP =  0.00D+00
 THRCPQCI=  1.00D-10  KEXTA   =  0.00D+00  THRCOARS=  0.00D+00  SYMTOL  =  1.00D-06  GRADTOL =  1.00D-06  THROVL  =  1.00D-08
 THRORTH =  1.00D-08  GRID    =  1.00D-06  GRIDMAX =  1.00D-03  DTMAX   =  0.00D+00

 SETTING GEOMTYP        =    XYZ
 ZUNIT=BOHR
 

 Variable memory set to 1000000000 words,  buffer space   230000 words

 SETTING BASIS          =    CC-PVDZ


 Recomputing integrals since basis changed


 Using spherical harmonics

 Library entry C      S cc-pVDZ              selected for orbital group  1
 Library entry C      P cc-pVDZ              selected for orbital group  1
 Library entry C      D cc-pVDZ              selected for orbital group  1
 Library entry O      S cc-pVDZ              selected for orbital group  2
 Library entry O      P cc-pVDZ              selected for orbital group  2
 Library entry O      D cc-pVDZ              selected for orbital group  2
 Library entry H      S cc-pVDZ              selected for orbital group  3
 Library entry H      P cc-pVDZ              selected for orbital group  3

1PROGRAM * SEWARD (Integral evaluation for generally contracted gaussian basis sets)     Author: Roland Lindh, 1990

 Geometry written to block  1 of record 700


 Point group  C1  



 ATOMIC COORDINATES

 NR  ATOM    CHARGE       X              Y              Z

   1  C       6.00   -1.374849592   -0.025794076   -0.000821440
   2  O       8.00    1.304980786    0.120329472    0.001543522
   3  H       1.00   -2.078320924    1.915643549   -0.001001134
   4  H       1.00   -2.101759240   -0.982631671    1.675990822
   5  H       1.00   -2.115054488   -0.980166038   -1.680097792
   6  H       1.00    1.941279299   -1.577513356    0.004377612

 Bond lengths in Bohr (Angstrom)

 1-2  2.683812315  1-3  2.064958111  1-4  2.062919093  1-5  2.068501438  2-6  1.813161355
     ( 1.420212310)     ( 1.092728770)     ( 1.091649768)     ( 1.094603818)     ( 0.959483665)

 Bond angles

  1-2-6  107.42339873   2-1-3  106.79667225   2-1-4  112.10987938   2-1-5  112.52900072

  3-1-4  108.42788217   3-1-5  108.16810963   4-1-5  108.65019530

 NUCLEAR CHARGE:                   18
 NUMBER OF PRIMITIVE AOS:          82
 NUMBER OF SYMMETRY AOS:           80
 NUMBER OF CONTRACTIONS:           48   (  48A   )
 NUMBER OF CORE ORBITALS:           2   (   2A   )
 NUMBER OF VALENCE ORBITALS:       12   (  12A   )


 NUCLEAR REPULSION ENERGY   40.31516743


 Eigenvalues of metric

         1 0.966E-02 0.176E-01 0.370E-01 0.372E-01 0.383E-01 0.473E-01 0.477E-01 0.520E-01


 Contracted 2-electron integrals neglected if value below      1.0D-16
 AO integral compression algorithm  1   Integral accuracy      1.0D-16

     6.816 MB (compressed) written to integral file (100.0%)

     Node minimum: 6.816 MB, node maximum: 6.816 MB


 NUMBER OF SORTED TWO-ELECTRON INTEGRALS:     692076.     BUFFER LENGTH:  32768
 NUMBER OF SEGMENTS:   1  SEGMENT LENGTH:     692076      RECORD LENGTH: 524288

 Memory used in sort:       1.25 MW

 SORT1 READ      832256. AND WROTE      682150. INTEGRALS IN      2 RECORDS. CPU TIME:     0.00 SEC, REAL TIME:     0.01 SEC
 SORT2 READ      682150. AND WROTE      692076. INTEGRALS IN     26 RECORDS. CPU TIME:     0.02 SEC, REAL TIME:     0.02 SEC

 FILE SIZES:   FILE 1:     8.4 MBYTE,  FILE 4:     8.4 MBYTE,   TOTAL:     16.8 MBYTE

 OPERATOR DM      FOR CENTER  0  COORDINATES:    0.000000    0.000000    0.000000


 **********************************************************************************************************************************
 DATASETS  * FILE   NREC   LENGTH (MB)   RECORD NAMES
              1      19        8.41       500      610      700      900      950      970     1000      129      960     1100   
                                          VAR    BASINP    GEOM    SYMINP    ZMAT    AOBASIS   BASIS     P2S    ABASIS      S 
                                         1400     1410     1200     1210     1080     1600     1650     1300     1700   
                                           T        V       H0       H01     AOSYM     SMH    MOLCAS    ERIS     OPER   

 PROGRAMS   *        TOTAL       INT
 CPU TIMES  *         0.18      0.14
 REAL TIME  *         0.38 SEC
 DISK USED  *        24.25 MB      
 GA USED    *         0.00 MB       (max)       0.00 MB       (current)
 **********************************************************************************************************************************

1PROGRAM * RHF-SCF (CLOSED SHELL)       Authors: W. Meyer, H.-J. Werner


 NUMBER OF ELECTRONS:       9+    9-    SPACE SYMMETRY=1    SPIN SYMMETRY: Singlet 
 CONVERGENCE THRESHOLDS:    1.00E-10 (Density)    1.00E-13 (Energy)
 MAX. NUMBER OF ITERATIONS:      200
 INTERPOLATION TYPE:            DIIS
 INTERPOLATION STEPS:              2 (START)      1 (STEP)
 LEVEL SHIFTS:                  0.00 (CLOSED)  0.00 (OPEN) 



 Orbital guess generated from atomic densities. Full valence occupancy:   14

 Molecular orbital dump at record        2100.2

 ITERATION    DDIFF          GRAD             ENERGY        2-EL.EN.            DIPOLE MOMENTS         DIIS
    1      0.000D+00      0.000D+00      -115.01424566    164.402328   -0.49313   -0.90026   -0.00039    0
    2      0.000D+00      0.110D-01      -115.04259556    162.184105   -0.31509   -0.53688    0.00109    1
    3      0.205D-01      0.530D-02      -115.04862206    163.208457   -0.39867   -0.61242    0.00102    2
    4      0.639D-02      0.112D-02      -115.04908566    163.052308   -0.38860   -0.60157    0.00118    3
    5      0.204D-02      0.202D-03      -115.04910666    163.058723   -0.39143   -0.59738    0.00122    4
    6      0.433D-03      0.355D-04      -115.04910746    163.058865   -0.39175   -0.59720    0.00123    5
    7      0.930D-04      0.737D-05      -115.04910749    163.057679   -0.39188   -0.59704    0.00123    6
    8      0.151D-04      0.238D-05      -115.04910749    163.058062   -0.39192   -0.59701    0.00124    7
    9      0.506D-05      0.492D-06      -115.04910749    163.058020   -0.39193   -0.59701    0.00124    6
   10      0.142D-05      0.880D-07      -115.04910749    163.058019   -0.39194   -0.59701    0.00124    6
   11      0.236D-06      0.330D-07      -115.04910749    163.058025   -0.39194   -0.59701    0.00124    6
   12      0.597D-07      0.137D-07      -115.04910749    163.058023   -0.39194   -0.59701    0.00124    7
   13      0.256D-07      0.307D-08      -115.04910749    163.058023   -0.39194   -0.59701    0.00124    7
   14      0.762D-08      0.654D-09      -115.04910749    163.058023   -0.39194   -0.59701    0.00124    7
   15      0.166D-08      0.152D-09      -115.04910749    163.058023   -0.39194   -0.59701    0.00124    7
   16      0.339D-09      0.457D-10      -115.04910749    163.058023   -0.39194   -0.59701    0.00124    7
   17      0.883D-10      0.166D-10      -115.04910749    163.058023   -0.39194   -0.59701    0.00124    7
   18      0.426D-10      0.312D-11      -115.04910749    163.058023   -0.39194   -0.59701    0.00124    7
   19      0.727D-11      0.759D-12      -115.04910749    163.058023   -0.39194   -0.59701    0.00124    7
   20      0.186D-11      0.332D-12      -115.04910749    163.058023   -0.39194   -0.59701    0.00124    7
   21      0.588D-12      0.106D-12      -115.04910749    163.058023   -0.39194   -0.59701    0.00124    7
   22      0.225D-12      0.298D-13      -115.04910749    163.058023   -0.39194   -0.59701    0.00124    7
   23      0.708D-13      0.112D-13      -115.04910749    163.058023   -0.39194   -0.59701    0.00124    7
   24      0.209D-13      0.134D-13      -115.04910749    163.058023   -0.39194   -0.59701    0.00124    0

 Final occupancy:   9

 !RHF STATE 1.1 Energy               -115.049107493630
 Nuclear energy                        40.31516743
 One-electron energy                 -236.89328652
 Two-electron energy                   81.52901160
 Virial quotient                       -1.00092220
 !RHF STATE 1.1 Dipole moment          -0.39193669    -0.59701335     0.00123527
 Dipole moment /Debye                  -0.99613845    -1.51735719     0.00313954

 Orbital energies:

         1.1          2.1          3.1          4.1          5.1          6.1          7.1          8.1          9.1         10.1
    -20.549944   -11.274706    -1.350111    -0.921146    -0.683190    -0.614009    -0.584420    -0.496952    -0.443155     0.184550

        11.1
      0.224386


 **********************************************************************************************************************************
 DATASETS  * FILE   NREC   LENGTH (MB)   RECORD NAMES
              1      19        8.41       500      610      700      900      950      970     1000      129      960     1100   
                                          VAR    BASINP    GEOM    SYMINP    ZMAT    AOBASIS   BASIS     P2S    ABASIS      S 
                                         1400     1410     1200     1210     1080     1600     1650     1300     1700   
                                           T        V       H0       H01     AOSYM     SMH    MOLCAS    ERIS     OPER   

              2       3        0.39       700     1000     2100   
                                         GEOM     BASIS     RHF  

 PROGRAMS   *        TOTAL       RHF       INT
 CPU TIMES  *         0.27      0.09      0.14
 REAL TIME  *         0.51 SEC
 DISK USED  *        24.25 MB      
 GA USED    *         0.00 MB       (max)       0.00 MB       (current)
 **********************************************************************************************************************************


1PROGRAM * CCSD (Closed-shell coupled cluster)     Authors: C. Hampel, H.-J. Werner, 1991, M. Deegan, P.J. Knowles, 1992


 Convergence thresholds:  THRVAR = 1.00D-08  THRDEN = 1.00D-12

 CCSD(T)     terms to be evaluated (factor= 1.000)


 Number of core orbitals:           2 (   2 )
 Number of closed-shell orbitals:   7 (   7 )
 Number of external orbitals:      39 (  39 )

 Molecular orbitals read from record     2100.2  Type=RHF/CANONICAL (state 1.1)

 Number of N-1 electron functions:               7
 Number of N-2 electron functions:              28
 Number of singly external CSFs:               273
 Number of doubly external CSFs:             37401
 Total number of CSFs:                       37675

 Length of J-op  integral file:               0.00 MB
 Length of K-op  integral file:               0.19 MB
 Length of 3-ext integral record:             0.00 MB

 Memory could be reduced to 0.96 Mwords without degradation in triples

 Integral transformation finished. Total CPU:   0.01 sec, npass=  1  Memory used:   0.66 MW

 Reference energy:                   -115.04910749

 MP2 singlet pair energy:              -0.21864387
 MP2 triplet pair energy:              -0.11983609
 MP2 correlation energy:               -0.33847996
 MP2 total energy:                   -115.38758745

 SCS-MP2 correlation energy:           -0.33693732   (PS=  1.200000  PT=  0.333333)
 SCS-MP2 total energy:               -115.38604481

 ITER.      SQ.NORM     CORR.ENERGY   TOTAL ENERGY   ENERGY CHANGE        DEN1      VAR(S)    VAR(P)  DIIS     TIME
   1      1.10733209    -0.36128176  -115.41038925    -0.02280180    -0.01412206  0.91D-03  0.17D-02  1  1     0.05
   2      1.11585881    -0.36322737  -115.41233486    -0.00194561    -0.00925056  0.20D-04  0.16D-03  2  2     0.08
   3      1.11774064    -0.36335477  -115.41246227    -0.00012741    -0.00120432  0.95D-05  0.86D-05  3  3     0.11
   4      1.11825583    -0.36335347  -115.41246096     0.00000131    -0.00025489  0.33D-06  0.67D-06  4  4     0.14
   5      1.11835394    -0.36335388  -115.41246138    -0.00000042    -0.00003603  0.99D-07  0.49D-07  5  5     0.17
   6      1.11837297    -0.36335253  -115.41246002     0.00000136    -0.00000436  0.16D-07  0.41D-08  6  6     0.20
   7      1.11837772    -0.36335211  -115.41245960     0.00000042    -0.00000035  0.20D-08  0.72D-09  6  1     0.23
   8      1.11837899    -0.36335221  -115.41245971    -0.00000010     0.00000075  0.26D-09  0.72D-10  6  3     0.27
   9      1.11838005    -0.36335209  -115.41245958     0.00000012    -0.00000038  0.13D-10  0.10D-10  6  2     0.30
  10      1.11837998    -0.36335209  -115.41245958    -0.00000000     0.00000007  0.11D-11  0.88D-12  6  5     0.33
  11      1.11838001    -0.36335209  -115.41245958     0.00000000    -0.00000000  0.19D-12  0.50D-13  6  4     0.36
  12      1.11837999    -0.36335209  -115.41245958    -0.00000000     0.00000001  0.19D-13  0.10D-13  6  1     0.39
  13      1.11837999    -0.36335209  -115.41245958    -0.00000000    -0.00000000  0.24D-14  0.94D-15  6  6     0.42
  14      1.11837999    -0.36335209  -115.41245958     0.00000000    -0.00000000  0.22D-15  0.12D-15  6  3     0.45
  15      1.11838000    -0.36335209  -115.41245958    -0.00000000    -0.00000000  0.25D-16  0.16D-16  6  2     0.49
  16      1.11838000    -0.36335209  -115.41245958    -0.00000000    -0.00000000  0.56D-17  0.16D-17  6  5     0.52
  17      1.11838000    -0.36335209  -115.41245958    -0.00000000    -0.00000000  0.55D-18  0.25D-18  6  4     0.55
  18      1.11838000    -0.36335209  -115.41245958     0.00000000    -0.00000000  0.87D-19  0.43D-19  6  1     0.58
  19      1.11838000    -0.36335209  -115.41245958    -0.00000000    -0.00000000  0.11D-19  0.44D-20  6  6     0.61
  20      1.11838000    -0.36335209  -115.41245958     0.00000000     0.00000000  0.16D-20  0.60D-21  6  3     0.64

 Norm of t1 vector:      0.04164378      S-energy:    -0.00000000      T1 diagnostic:  0.00786994
                                                                       D1 diagnostic:  0.01750146


 Total CPU time for triples:      0.17 sec


 RESULTS
 =======

  Reference energy                   -115.049107493630
  CCSD singlet pair energy             -0.254599600865
  CCSD triplet pair energy             -0.108752490081
  CCSD correlation energy              -0.363352090946

  Triples (T) contribution             -0.007736734656
  Total correlation energy             -0.371088825602

  CCSD total energy                  -115.412459584575
  CCSD[T] energy                     -115.420486135304
  CCSD-T energy                      -115.420046437494
 !CCSD(T) total energy               -115.420196319231

 Timing summary (sec):

 STEP                 CPU(USER)    SYS     CPU(TOT)    WALL
 Transformation          0.02      0.00      0.02      0.02
 CCSD iterations         0.62      0.05      0.67      0.70
 Triples                 0.17      0.00      0.17      0.18

 Program statistics:

 Available memory in ccsd:               999999704
 Min. memory needed in ccsd:                136801
 Max. memory used in ccsd:                  163198
 Max. memory used in cckext:                182024 (20 integral passes)



 **********************************************************************************************************************************
 DATASETS  * FILE   NREC   LENGTH (MB)   RECORD NAMES
              1      20       10.95       500      610      700      900      950      970     1000      129      960     1100   
                                          VAR    BASINP    GEOM    SYMINP    ZMAT    AOBASIS   BASIS     P2S    ABASIS      S 
                                         1400     1410     1200     1210     1080     1600     1650     1300     1700     1380   
                                           T        V       H0       H01     AOSYM     SMH    MOLCAS    ERIS     OPER     JKOP   

              2       3        0.39       700     1000     2100   
                                         GEOM     BASIS     RHF  

 PROGRAMS   *        TOTAL   CCSD(T)       RHF       INT
 CPU TIMES  *         1.09      0.82      0.09      0.14
 REAL TIME  *         1.43 SEC
 DISK USED  *        25.68 MB      
 GA USED    *         0.00 MB       (max)       0.00 MB       (current)
 **********************************************************************************************************************************

        CCSD(T)         RHF-SCF 
   -115.42019632   -115.04910749
 **********************************************************************************************************************************
 Variable memory released
