
 Working directory              : /scratch/mel64643/tmp/40073292/
 Global scratch directory       : /scratch/mel64643/tmp/40073292/
 Wavefunction directory         : /home/mel64643/wfu/
 Main file repository           : /scratch/mel64643/tmp/40073292/

 id        : ccgc

 Nodes     nprocs
 a1-8         3
 Distribution of processes:   nprocs(total)=    4   nprocs(compute)=    3   nprocs(helper)=    1
 GA implementation: MPI file
 GA implementation (serial work in mppx): MPI file

 Using customized tuning parameters: mindgm=1; mindgv=20; mindgc=4; mindgr=1; noblas=0; minvec=7
 default implementation of scratch files=sf  


 Variables initialized (1015), CPU time= 0.00 sec
 ***,Optimization of min3
 memory,1000,m
 gthresh,energy=1.0d-12,orbital=1.0d-10,oneint=1.0d-16,twoint=1.0d-16,optgrad=1.0d-6,compress=1.0d-13
 geomtyp=xyz
 
  bohr
  geometry = {
  6
  arbitrary comment
  C   -1.3733013889   -0.0242405174    0.0024843542
  O    1.3090950340    0.1217498941    0.0085664549
  H   -2.0778673321    1.9197839428   -0.0039998095
  H   -2.1094066870   -0.9838425601    1.6913307565
  H   -2.1115396492   -0.9866573603   -1.6916347468
  H    1.9392958632   -1.5769255191   -0.0067554194
 }
 
 basis=cc-pvdz
 {rhf;maxit,200}
 {ccsd(t);maxit,200}
 Commands initialized (818), CPU time= 0.01 sec, 672 directives.
 Default parameters read. Elapsed time= 0.11 sec

 Checking input...
 Passed
1


                                         ***  PROGRAM SYSTEM MOLPRO  ***
                                       Copyright, TTI GmbH Stuttgart, 2015
                                    Version 2022.1 linked Mar  4 2022 00:40:14


 **********************************************************************************************************************************
 LABEL *   Optimization of min3                                                          
  64 bit mpp version                                                                     DATE: 07-Aug-25          TIME: 21:25:35  
 **********************************************************************************************************************************

 SHA1:             31073afc4d8441e10870424e0d77336a33bc4286
 **********************************************************************************************************************************

 Memory per process:      1000 MW
 Total memory per node:   3000 MW

 GA preallocation disabled
 GA check disabled

 Variable memory set to 1000.0 MW


 THRESHOLDS:

 ZERO    =  1.00D-12  ONEINT  =  1.00D-16  TWOINT  =  1.00D-16  PREFAC  =  1.00D-14  XXXXXX  =  1.00D-09  EORDER  =  1.00D-04
 ENERGY  =  1.00D-12  ETEST   =  0.00D+00  EDENS   =  0.00D+00  THRDEDEF=  1.00D-06  GRADIENT=  1.00D-05  STEP    =  1.00D-03
 ORBITAL =  1.00D-10  CIVEC   =  1.00D-05  COEFF   =  1.00D-04  PRINTCI =  5.00D-02  PUNCHCI =  9.90D+01  OPTGRAD =  1.00D-06
 OPTENERG=  1.00D-06  OPTSTEP =  3.00D-04  THRGRAD =  1.00D-10  COMPRESS=  1.00D-13  VARMIN  =  1.00D-07  VARMAX  =  1.00D-03
 THRDOUB =  0.00D+00  THRDIV  =  1.00D-05  THRRED  =  1.00D-07  THRPSP  =  1.00D+00  THRDC   =  1.00D-10  THRCS   =  1.00D-10
 THRNRM  =  1.00D-08  THREQ   =  0.00D+00  THRDE   =  1.00D+00  THRREF  =  1.00D-05  SPARFAC =  1.00D+00  THRDLP  =  1.00D-07
 THRDIA  =  1.00D-10  THRDLS  =  1.00D-07  THRGPS  =  0.00D+00  THRKEX  =  0.00D+00  THRDIS  =  2.00D-01  THRVAR  =  1.00D-10
 THRLOC  =  1.00D-06  THRGAP  =  1.00D-06  THRLOCT = -1.00D+00  THRGAPT = -1.00D+00  THRORB  =  1.00D-06  THRMLTP =  0.00D+00
 THRCPQCI=  1.00D-10  KEXTA   =  0.00D+00  THRCOARS=  0.00D+00  SYMTOL  =  1.00D-06  GRADTOL =  1.00D-06  THROVL  =  1.00D-08
 THRORTH =  1.00D-08  THRDLOVL= -1.00D+00  GRID    =  1.00D-06  GRIDMAX =  1.00D-03  DTMAX   =  0.00D+00  THROCCDE=  1.00D-01
 THROCCDE=  1.00D-01  THRPRINT=  2.50D-01

 SETTING GEOMTYP        =    XYZ
 ZUNIT=BOHR

 SETTING BASIS          =    CC-PVDZ


 Recomputing integrals since basis changed


 Using spherical harmonics

 Library entry C      S cc-pVDZ              selected for orbital group  1
 Library entry C      P cc-pVDZ              selected for orbital group  1
 Library entry C      D cc-pVDZ              selected for orbital group  1
 Library entry O      S cc-pVDZ              selected for orbital group  2
 Library entry O      P cc-pVDZ              selected for orbital group  2
 Library entry O      D cc-pVDZ              selected for orbital group  2
 Library entry H      S cc-pVDZ              selected for orbital group  3
 Library entry H      P cc-pVDZ              selected for orbital group  3


 PROGRAM * SEWARD (Integral evaluation for generally contracted gaussian basis sets)     Author: Roland Lindh, 1990

 Geometry written to block  1 of record 700


 Point group  C1  



 ATOMIC COORDINATES

 NR  ATOM    CHARGE       X              Y              Z

   1  C       6.00   -1.373301389   -0.024240517    0.002484354
   2  O       8.00    1.309095034    0.121749894    0.008566455
   3  H       1.00   -2.077867332    1.919783943   -0.003999809
   4  H       1.00   -2.109406687   -0.983842560    1.691330756
   5  H       1.00   -2.111539649   -0.986657360   -1.691634747
   6  H       1.00    1.939295863   -1.576925519   -0.006755419

 Bond lengths in Bohr (Angstrom)

 1-2  2.686373161  1-3  2.067773274  1-4  2.077231152  1-5  2.083574198  2-6  1.811873617
     ( 1.421567457)     ( 1.094218494)     ( 1.099223388)     ( 1.102579983)     ( 0.958802227)

 Bond angles

  1-2-6  107.23752386   2-1-3  106.80688259   2-1-4  112.15468595   2-1-5  112.37903117

  3-1-4  108.42835098   3-1-5  108.11866227   4-1-5  108.79107457

 NUCLEAR CHARGE:                   18
 NUMBER OF PRIMITIVE AOS:          82
 NUMBER OF SYMMETRY AOS:           80
 NUMBER OF CONTRACTIONS:           48   (   48A   )
 NUMBER OF INNER CORE ORBITALS:     0   (    0A   )
 NUMBER OF OUTER CORE ORBITALS:     2   (    2A   )
 NUMBER OF VALENCE ORBITALS:       12   (   12A   )


 NUCLEAR REPULSION ENERGY   40.23704432

 Eigenvalues of metric

         1 0.970E-02 0.177E-01 0.374E-01 0.381E-01 0.383E-01 0.479E-01 0.489E-01 0.521E-01


 Contracted 2-electron integrals neglected if value below      1.0D-16
 AO integral compression algorithm  1   Integral accuracy      1.0D-16

     7.340 MB (compressed) written to integral file (100.0%)

     Node minimum: 2.359 MB, node maximum: 2.621 MB


 NUMBER OF SORTED TWO-ELECTRON INTEGRALS:     231084.     BUFFER LENGTH:  32768
 NUMBER OF SEGMENTS:   1  SEGMENT LENGTH:     231084      RECORD LENGTH: 524288

 Memory used in sort:       0.79 MW

 SORT1 READ      832256. AND WROTE      227683. INTEGRALS IN      1 RECORDS. CPU TIME:     0.01 SEC, REAL TIME:     0.02 SEC
 SORT2 READ      682150. AND WROTE      692076. INTEGRALS IN     27 RECORDS. CPU TIME:     0.02 SEC, REAL TIME:     0.02 SEC

 Node minimum:      230300.  Node maximum:      231084. integrals

 OPERATOR DM      FOR CENTER  0  COORDINATES:    0.000000    0.000000    0.000000


 **********************************************************************************************************************************
 DATASETS  * FILE   NREC   LENGTH (MB)   RECORD NAMES
              1      18       28.73       500      610      700      900      950      970     1000      129      960     1100   
                                          VAR    BASINP    GEOM    SYMINP    ZMAT    AOBASIS   BASIS     P2S    ABASIS      S 
                                         1400     1410     1200     1210     1080     1600     1650     1700   
                                           T        V       H0       H01     AOSYM     SMH    MOLCAS    OPER   

 PROGRAMS   *        TOTAL       INT
 CPU TIMES  *         0.51      0.36
 REAL TIME  *         1.77 SEC
 DISK USED  *        29.07 MB (local),      104.72 MB (total)
 GA USED    *         0.00 MB       (max)       0.00 MB       (current)
 **********************************************************************************************************************************


 Program * Restricted Hartree-Fock

 Orbital guess generated from atomic densities. Full valence occupancy:   14

 Initial occupancy:   9

 NELEC=   18   SYM=1   MS2= 0   THRE=1.0D-12   THRD=1.0D-10   THRG=1.0D-10  HFMA2=F  DIIS_START=2   DIIS_MAX=10   DIIS_INCORE=F

 Level shifts:    0.00 (CLOSED)    0.00 (OPEN)    0.30 (GAP_MIN)

 ITER           ETOT              DE          GRAD        DDIFF     DIIS  NEXP   TIME(IT)  TIME(TOT)  DIAG
   1     -115.01405479    -115.01405479     0.00D+00     0.16D+00     0     0       0.00      0.00    start
   2     -115.04243157      -0.02837679     0.10D-01     0.21D-01     1     0       0.01      0.01    diag
   3     -115.04852634      -0.00609477     0.49D-02     0.64D-02     2     0       0.00      0.01    diag
   4     -115.04898950      -0.00046316     0.10D-02     0.20D-02     3     0       0.00      0.01    diag
   5     -115.04901050      -0.00002100     0.18D-03     0.43D-03     4     0       0.00      0.01    diag
   6     -115.04901129      -0.00000079     0.32D-04     0.92D-04     5     0       0.02      0.03    diag
   7     -115.04901132      -0.00000003     0.65D-05     0.15D-04     6     0       0.00      0.03    diag
   8     -115.04901132      -0.00000000     0.20D-05     0.47D-05     7     0       0.00      0.03    fixocc
   9     -115.04901132      -0.00000000     0.44D-06     0.14D-05     8     0       0.00      0.03    diag
  10     -115.04901132      -0.00000000     0.69D-07     0.23D-06     9     0       0.00      0.03    diag/orth
  11     -115.04901132      -0.00000000     0.16D-07     0.44D-07     9     0       0.01      0.04    diag
  12     -115.04901132       0.00000000     0.41D-08     0.13D-07     9     0       0.00      0.04    diag
  13     -115.04901132       0.00000000     0.67D-09     0.19D-08     9     0       0.00      0.04    diag
  14     -115.04901132      -0.00000000     0.15D-09     0.39D-09     9     0       0.00      0.04    diag
  15     -115.04901132      -0.00000000     0.61D-10     0.11D-09     9     0       0.00      0.04    diag
  16     -115.04901132      -0.00000000     0.15D-10     0.35D-10     9     0       0.00      0.04    diag
  17     -115.04901132       0.00000000     0.32D-11     0.57D-11     0     0       0.01      0.05    diag

 Final occupancy:   9

 !RHF STATE 1.1 Energy               -115.049011321931
  RHF One-electron energy            -236.740415517744
  RHF Two-electron energy              81.454359873268
  RHF Kinetic energy                  114.917663403008
  RHF Nuclear energy                   40.237044322545
  RHF Virial quotient                  -1.001142974152

 !RHF STATE 1.1 Dipole moment          -0.39192565    -0.59442807    -0.00611159
 Dipole moment /Debye                  -0.99617564    -1.51088546    -0.01553411

 Orbital energies:

           1.1          2.1          3.1          4.1          5.1          6.1          7.1          8.1          9.1         10.1
    -20.550387   -11.276849    -1.350218    -0.919436    -0.682515    -0.612556    -0.584218    -0.496782    -0.442886     0.184181

          11.1
      0.224139


 HOMO      9.1    -0.442886 =     -12.0515eV
 LUMO     10.1     0.184181 =       5.0118eV
 LUMO-HOMO         0.627067 =      17.0634eV

 Orbitals saved in record  2100.2


 **********************************************************************************************************************************
 DATASETS  * FILE   NREC   LENGTH (MB)   RECORD NAMES
              1      18       28.73       500      610      700      900      950      970     1000      129      960     1100   
                                          VAR    BASINP    GEOM    SYMINP    ZMAT    AOBASIS   BASIS     P2S    ABASIS      S 
                                         1400     1410     1200     1210     1080     1600     1650     1700   
                                           T        V       H0       H01     AOSYM     SMH    MOLCAS    OPER   

              2       4        0.47       700     1000      520     2100   
                                         GEOM     BASIS   MCVARS     RHF  

 PROGRAMS   *        TOTAL   RHF-SCF       INT
 CPU TIMES  *         0.56      0.05      0.36
 REAL TIME  *         1.98 SEC
 DISK USED  *        29.40 MB (local),      105.70 MB (total)
 GA USED    *         0.00 MB       (max)       0.00 MB       (current)
 **********************************************************************************************************************************


 PROGRAM * CCSD (Closed-shell coupled cluster)     Authors: C. Hampel, H.-J. Werner, 1991, M. Deegan, P.J. Knowles, 1992


 Convergence thresholds:  THRVAR = 1.00D-08  THRDEN = 1.00D-12

 CCSD(T)     terms to be evaluated (factor= 1.000)


 Number of core orbitals:           2 (   2 )
 Number of closed-shell orbitals:   7 (   7 )
 Number of external orbitals:      39 (  39 )

 Molecular orbitals read from record     2100.2  Type=RHF/CANONICAL  

 Number of N-1 electron functions:               7
 Number of N-2 electron functions:              28
 Number of singly external CSFs:               273
 Number of doubly external CSFs:             37401
 Total number of CSFs:                       37675

 Length of J-op  integral file:               0.00 MB
 Length of K-op  integral file:               0.16 MB
 Length of 3-ext integral record:             0.00 MB

 Memory could be reduced to 0.73 Mwords without degradation in triples

 Integral transformation finished. Total CPU:   0.03 sec, npass=  1  Memory used:   0.66 MW

 Reference energy:                   -115.04901132

 MP2 singlet pair energy:              -0.21890099
 MP2 triplet pair energy:              -0.11987658
 MP2 correlation energy:               -0.33877757
 MP2 total energy:                   -115.38778889

 SCS-MP2 correlation energy:           -0.33727106   (PS=  1.200000  PT=  0.333333)
 SCS-MP2 total energy:               -115.38628238

 ITER.      SQ.NORM     CORR.ENERGY   TOTAL ENERGY   ENERGY CHANGE        DEN1      VAR(S)    VAR(P)  DIIS     TIME  TIME/IT
   1      1.10770612    -0.36161249  -115.41062381    -0.02283492    -0.01411010  0.92D-03  0.18D-02  1  1     0.05     0.04
   2      1.11630907    -0.36357206  -115.41258338    -0.00195957    -0.00929291  0.20D-04  0.16D-03  2  2     0.07     0.04
   3      1.11822212    -0.36370215  -115.41271347    -0.00013009    -0.00121912  0.96D-05  0.88D-05  3  3     0.09     0.04
   4      1.11874665    -0.36370086  -115.41271218     0.00000129    -0.00025874  0.34D-06  0.69D-06  4  4     0.11     0.04
   5      1.11884683    -0.36370131  -115.41271263    -0.00000045    -0.00003666  0.10D-06  0.51D-07  5  5     0.13     0.03
   6      1.11886632    -0.36369994  -115.41271127     0.00000136    -0.00000448  0.16D-07  0.42D-08  6  6     0.15     0.03
   7      1.11887109    -0.36369952  -115.41271084     0.00000043    -0.00000035  0.20D-08  0.73D-09  6  1     0.17     0.03
   8      1.11887236    -0.36369962  -115.41271094    -0.00000010     0.00000075  0.26D-09  0.73D-10  6  3     0.19     0.03
   9      1.11887344    -0.36369949  -115.41271082     0.00000013    -0.00000039  0.13D-10  0.11D-10  6  2     0.21     0.03
  10      1.11887337    -0.36369950  -115.41271082    -0.00000000     0.00000007  0.11D-11  0.90D-12  6  5     0.23     0.03
  11      1.11887340    -0.36369949  -115.41271081     0.00000000    -0.00000000  0.19D-12  0.51D-13  6  4     0.25     0.03
  12      1.11887339    -0.36369950  -115.41271082    -0.00000000     0.00000001  0.19D-13  0.10D-13  6  1     0.27     0.03
  13      1.11887339    -0.36369950  -115.41271082    -0.00000000    -0.00000000  0.25D-14  0.94D-15  6  6     0.29     0.03
  14      1.11887339    -0.36369950  -115.41271082     0.00000000    -0.00000000  0.24D-15  0.13D-15  6  3     0.32     0.03
  15      1.11887339    -0.36369950  -115.41271082    -0.00000000    -0.00000000  0.28D-16  0.17D-16  6  2     0.34     0.03
  16      1.11887339    -0.36369950  -115.41271082    -0.00000000    -0.00000000  0.65D-17  0.18D-17  6  5     0.36     0.03
  17      1.11887339    -0.36369950  -115.41271082    -0.00000000    -0.00000000  0.75D-18  0.29D-18  6  4     0.37     0.03
  18      1.11887339    -0.36369950  -115.41271082     0.00000000    -0.00000000  0.13D-18  0.53D-19  6  1     0.39     0.03
  19      1.11887339    -0.36369950  -115.41271082    -0.00000000    -0.00000000  0.20D-19  0.58D-20  6  6     0.41     0.03
  20      1.11887339    -0.36369950  -115.41271082     0.00000000     0.00000000  0.38D-20  0.10D-20  6  3     0.43     0.03

 Norm of t1 vector:      0.04182618      S-energy:    -0.00000000      T1 diagnostic:  0.00790440
                                                                       D1 diagnostic:  0.01750668
                                                                       D2 diagnostic:  0.13466995 (internal)


 Total CPU time for triples:      0.08 sec


 RESULTS
 =======

  Reference energy                   -115.049011321931
  CCSD singlet pair energy             -0.254971058884
  CCSD triplet pair energy             -0.108728436235
  CCSD correlation energy              -0.363699495119

  Triples (T) contribution             -0.007775211230
  Total correlation energy             -0.371474706349

  CCSD total energy                  -115.412710817050
  CCSD[T] energy                     -115.420779606967
  CCSD-T energy                      -115.420334175607
 !CCSD(T) total energy               -115.420486028280

 Timing summary (sec):

 STEP                 CPU(USER)    SYS     CPU(TOT)    WALL
 Transformation          0.03      0.01      0.04      0.04
 CCSD iterations         0.40      0.06      0.46      0.68
 Triples                 0.08      0.00      0.08      0.08

 Program statistics:

 Available memory in ccsd:               999999795
 Min. memory needed in ccsd:                136177
 Max. memory used in ccsd:                  162910
 Max. memory used in cckext:                178997 (20 integral passes)



 **********************************************************************************************************************************
 DATASETS  * FILE   NREC   LENGTH (MB)   RECORD NAMES
              1      19       31.13       500      610      700      900      950      970     1000      129      960     1100   
                                          VAR    BASINP    GEOM    SYMINP    ZMAT    AOBASIS   BASIS     P2S    ABASIS      S 
                                         1400     1410     1200     1210     1080     1600     1650     1700     1380   
                                           T        V       H0       H01     AOSYM     SMH    MOLCAS    OPER     JKOP   

              2       4        0.47       700     1000      520     2100   
                                         GEOM     BASIS   MCVARS     RHF  

 PROGRAMS   *        TOTAL   CCSD(T)   RHF-SCF       INT
 CPU TIMES  *         1.11      0.55      0.05      0.36
 REAL TIME  *         2.85 SEC
 DISK USED  *        35.56 MB (local),      116.36 MB (total)
 SF USED    *         5.97 MB
 GA USED    *         0.00 MB       (max)       0.00 MB       (current)
 **********************************************************************************************************************************

 CCSD(T)/cc-pVDZ energy=   -115.420486028280

         CCSD(T)         RHF-SCF
   -115.42048603   -115.04901132
 **********************************************************************************************************************************
 Molpro calculation terminated
