
    -----------------------------------------------------------------------
          Psi4: An Open-Source Ab Initio Electronic Structure Package
                               Psi4 1.4a2.dev629 

                         Git: Rev {master} 2938fc2 dirty


    D. G. A. Smith, L. A. Burns, A. C. Simmonett, R. M. Parrish,
    M. C. Schieber, R. Galvelis, P. Kraus, H. Kruse, R. Di Remigio,
    A. Alenaizan, A. M. James, S. Lehtola, J. P. Misiewicz, M. Scheurer,
    R. A. Shaw, J. B. Schriber, Y. Xie, Z. L. Glick, D. A. Sirianni,
    J. S. O'Brien, J. M. Waldrop, A. Kumar, E. G. Hohenstein,
    B. P. Pritchard, B. R. Brooks, H. F. Schaefer III, A. Yu. Sokolov,
    K. Patkowski, A. E. DePrince III, U. Bozkaya, R. A. King,
    F. A. Evangelista, J. M. Turney, T. D. Crawford, C. D. Sherrill,
    J. Chem. Phys. 152(18) 184108 (2020). https://doi.org/10.1063/5.0006002

                            Additional Code Authors
    E. T. Seidl, C. L. Janssen, E. F. Valeev, M. L. Leininger,
    J. F. Gonthier, R. M. Richard, H. R. McAlexander, M. Saitow, X. Wang,
    P. Verma, and M. H. Lechner

             Previous Authors, Complete List of Code Contributors,
                       and Citations for Specific Modules
    https://github.com/psi4/psi4/blob/master/codemeta.json
    https://github.com/psi4/psi4/graphs/contributors
    http://psicode.org/psi4manual/master/introduction.html#citing-psifour

    -----------------------------------------------------------------------


    Psi4 started on: Sunday, 28 February 2021 05:10PM

    Process ID: 8838
    Host:       n014
    PSIDATADIR: /opt/psi/4/master/share/psi4
    Memory:     500.0 MiB
    Threads:    1
    
  ==> Input File <==

--------------------------------------------------------------------------
# o-Benzyne preliminary computations

memory 14 gb

molecule {
  0 1
  units bohr
 H    0.0000000000   -1.4297526398    0.9934268631
 O    0.0000000000    0.0000000000   -0.1205101062
 H    0.0000000000    1.4297526398    0.9934268631
}

set {
  basis cc-pvtz
  reference rhf
  e_convergence 10 
  d_convergence 10
  r_convergence 8
  maxiter 300
  freeze_core True
}

e, wfn = energy('ccsd(t)', return_wfn = True)
psi4.print_out('Giraffe The Energy is %.12f \n'%(e))
--------------------------------------------------------------------------

  Memory set to  13.039 GiB by Python driver.

Scratch directory: /tmp/

*** tstart() called on n014
*** at Sun Feb 28 17:10:27 2021

   => Loading Basis Set <=

    Name: CC-PVTZ
    Role: ORBITAL
    Keyword: BASIS
    atoms 1, 3 entry H          line    23 file /opt/psi/4/master/share/psi4/basis/cc-pvtz.gbs 
    atoms 2    entry O          line   262 file /opt/psi/4/master/share/psi4/basis/cc-pvtz.gbs 


         ---------------------------------------------------------
                                   SCF
               by Justin Turney, Rob Parrish, Andy Simmonett
                          and Daniel G. A. Smith
                              RHF Reference
                        1 Threads,  13351 MiB Core
         ---------------------------------------------------------

  ==> Geometry <==

    Molecular point group: c2v
    Full point group: C2v

    Geometry (in Bohr), charge = 0, multiplicity = 1:

       Center              X                  Y                   Z               Mass       
    ------------   -----------------  -----------------  -----------------  -----------------
         H            0.000000000000    -1.429752639800     0.989270854530     1.007825032230
         O            0.000000000000     0.000000000000    -0.124666114770    15.994914619570
         H           -0.000000000000     1.429752639800     0.989270854530     1.007825032230

  Running in c2v symmetry.

  Rotational constants: A =     27.10212  B =     14.61024  C =      9.49283 [cm^-1]
  Rotational constants: A = 812501.11423  B = 438003.90544  C = 284587.95095 [MHz]
  Nuclear repulsion =    9.177442247492937

  Charge       = 0
  Multiplicity = 1
  Electrons    = 10
  Nalpha       = 5
  Nbeta        = 5

  ==> Algorithm <==

  SCF Algorithm Type is PK.
  DIIS enabled.
  MOM disabled.
  Fractional occupation disabled.
  Guess Type is SAD.
  Energy threshold   = 1.00e-10
  Density threshold  = 1.00e-10
  Integral threshold = 0.00e+00

  ==> Primary Basis <==

  Basis Set: CC-PVTZ
    Blend: CC-PVTZ
    Number of shells: 22
    Number of basis function: 58
    Number of Cartesian functions: 65
    Spherical Harmonics?: true
    Max angular momentum: 3

  ==> Integral Setup <==

  Using in-core PK algorithm.
   Calculation information:
      Number of atoms:                   3
      Number of AO shells:              22
      Number of primitives:             42
      Number of atomic orbitals:        65
      Number of basis functions:        58

      Integral cutoff                 1.00e-12
      Number of threads:                 1

  Performing in-core PK
  Using 2929232 doubles for integral storage.
  We computed 32131 shell quartets total.
  Whereas there are 32131 unique shell quartets.

  ==> DiskJK: Disk-Based J/K Matrices <==

    J tasked:                  Yes
    K tasked:                  Yes
    wK tasked:                  No
    Memory [MiB]:            10013
    Schwarz Cutoff:          1E-12

    OpenMP threads:              1

  Minimum eigenvalue in the overlap matrix is 2.2456298072E-03.
  Reciprocal condition number of the overlap matrix is 5.1529959567E-04.
    Using symmetric orthogonalization.

  ==> Pre-Iterations <==

  SCF Guess: Superposition of Atomic Densities via on-the-fly atomic UHF (no occupation information).

   -------------------------
    Irrep   Nso     Nmo    
   -------------------------
     A1        23      23 
     A2         7       7 
     B1        11      11 
     B2        17      17 
   -------------------------
    Total      58      58
   -------------------------

  ==> Iterations <==

                        Total Energy        Delta E     RMS |[F,P]|

   @RHF iter SAD:   -75.49958246509458   -7.54996e+01   0.00000e+00 
   @RHF iter   1:   -75.97854473844673   -4.78962e-01   1.43642e-02 DIIS
   @RHF iter   2:   -76.03109899168533   -5.25543e-02   9.28030e-03 DIIS
   @RHF iter   3:   -76.05659738096145   -2.54984e-02   6.93094e-04 DIIS
   @RHF iter   4:   -76.05698718427813   -3.89803e-04   1.69551e-04 DIIS
   @RHF iter   5:   -76.05701185998241   -2.46757e-05   3.51183e-05 DIIS
   @RHF iter   6:   -76.05701341918277   -1.55920e-06   6.81100e-06 DIIS
   @RHF iter   7:   -76.05701347914747   -5.99647e-08   1.09264e-06 DIIS
   @RHF iter   8:   -76.05701348041788   -1.27041e-09   1.68835e-07 DIIS
   @RHF iter   9:   -76.05701348044880   -3.09228e-11   4.71630e-08 DIIS
   @RHF iter  10:   -76.05701348045136   -2.55795e-12   6.02384e-09 DIIS
   @RHF iter  11:   -76.05701348045153   -1.70530e-13   8.45213e-10 DIIS
   @RHF iter  12:   -76.05701348045140    1.27898e-13   1.36132e-10 DIIS
   @RHF iter  13:   -76.05701348045150   -9.94760e-14   1.65190e-11 DIIS
  Energy and wave function converged.


  ==> Post-Iterations <==

    Orbital Energies [Eh]
    ---------------------

    Doubly Occupied:                                                      

       1A1   -20.555247     2A1    -1.344962     1B2    -0.708072  
       3A1    -0.578073     1B1    -0.504441  

    Virtual:                                                              

       4A1     0.142005     2B2     0.203955     3B2     0.542836  
       5A1     0.602471     6A1     0.668309     2B1     0.787320  
       7A1     0.798649     4B2     0.805413     1A2     0.861487  
       3B1     0.953532     8A1     1.133527     5B2     1.197057  
       6B2     1.524424     9A1     1.564200     4B1     2.037805  
       7B2     2.054834     2A2     2.064523    10A1     2.171528  
      11A1     2.234284    12A1     2.587261     8B2     2.963349  
       5B1     3.352471    13A1     3.488444     3A2     3.583588  
       9B2     3.655966     6B1     3.798682    10B2     3.876794  
      14A1     3.885327     4A2     3.961742     7B1     4.018160  
      11B2     4.074463    15A1     4.190874     5A2     4.309027  
      16A1     4.381633    12B2     4.585827     8B1     4.683149  
      13B2     4.861688    17A1     5.154393    18A1     5.250844  
      14B2     5.525901     9B1     6.049872    19A1     6.568411  
      10B1     6.917197     6A2     6.939537    11B1     7.002952  
      20A1     7.017225    15B2     7.050458    21A1     7.170208  
       7A2     7.234183    22A1     7.452624    16B2     7.791420  
      17B2     8.284053    23A1    12.844900  

    Final Occupation by Irrep:
             A1    A2    B1    B2 
    DOCC [     3,    0,    1,    1 ]

  @RHF Final Energy:   -76.05701348045150

   => Energetics <=

    Nuclear Repulsion Energy =              9.1774422474929374
    One-Electron Energy =                -123.0873212356810882
    Two-Electron Energy =                  37.8528655077366381
    Total Energy =                        -76.0570134804515163

Computation Completed


Properties will be evaluated at   0.000000,   0.000000,   0.000000 [a0]

Properties computed using the SCF density matrix

  Nuclear Dipole Moment: [e a0]
     X:     0.0000      Y:     0.0000      Z:     0.9812

  Electronic Dipole Moment: [e a0]
     X:     0.0000      Y:     0.0000      Z:    -0.1817

  Dipole Moment: [e a0]
     X:     0.0000      Y:     0.0000      Z:     0.7995     Total:     0.7995

  Dipole Moment: [D]
     X:     0.0000      Y:     0.0000      Z:     2.0322     Total:     2.0322


*** tstop() called on n014 at Sun Feb 28 17:10:29 2021
Module time:
	user time   =       1.50 seconds =       0.03 minutes
	system time =       0.01 seconds =       0.00 minutes
	total time  =          2 seconds =       0.03 minutes
Total time:
	user time   =       1.50 seconds =       0.03 minutes
	system time =       0.01 seconds =       0.00 minutes
	total time  =          2 seconds =       0.03 minutes
 MINTS: Wrapper to libmints.
   by Justin Turney

   Calculation information:
      Number of threads:                 1
      Number of atoms:                   3
      Number of AO shells:              22
      Number of SO shells:              16
      Number of primitives:             42
      Number of atomic orbitals:        65
      Number of basis functions:        58

      Number of irreps:                  4
      Integral cutoff                 0.00e+00
      Number of functions per irrep: [  23    7   11   17 ]

 OEINTS: Overlap, kinetic, potential, dipole, and quadrupole integrals
         stored in file 35.

      Computing two-electron integrals...done
      Computed 360636 non-zero two-electron integrals.
        Stored in file 33.


*** tstart() called on n014
*** at Sun Feb 28 17:10:29 2021


	Wfn Parameters:
	--------------------
	Wavefunction         = CCSD_T
	Number of irreps     = 4
	Number of MOs        = 58
	Number of active MOs = 57
	AO-Basis             = NONE
	Semicanonical        = false
	Reference            = RHF
	Print Level          = 1

	IRREP	# MOs	# FZDC	# DOCC	# SOCC	# VIRT	# FZVR
	-----	-----	------	------	------	------	------
	 A1	   23	    1	    2	    0	    20	    0
	 A2	   7	    0	    0	    0	    7	    0
	 B1	   11	    0	    1	    0	    10	    0
	 B2	   17	    0	    1	    0	    16	    0
	Transforming integrals...
	IWL integrals will be deleted.
	(OO|OO)...
	Presorting SO-basis two-electron integrals.
	Sorting File: SO Ints (nn|nn) nbuckets = 1
	Transforming the one-electron integrals and constructing Fock matrices
	Starting first half-transformation.
	Sorting half-transformed integrals.
	First half integral transformation complete.
	Starting second half-transformation.
	Two-electron integral transformation complete.
	(OO|OV)...
	Starting second half-transformation.
	Two-electron integral transformation complete.
	(OO|VV)...
	Starting second half-transformation.
	Two-electron integral transformation complete.
	(OV|OO)...
	Starting first half-transformation.
	Sorting half-transformed integrals.
	First half integral transformation complete.
	Starting second half-transformation.
	Two-electron integral transformation complete.
	(OV|OV)...
	Starting second half-transformation.
	Two-electron integral transformation complete.
	(OV|VV)...
	Starting second half-transformation.
	Two-electron integral transformation complete.
	(VV|OO)...
	Starting first half-transformation.
	Sorting half-transformed integrals.
	First half integral transformation complete.
	Starting second half-transformation.
	Two-electron integral transformation complete.
	(VV|OV)...
	Starting second half-transformation.
	Two-electron integral transformation complete.
	(VV|VV)...
	Starting second half-transformation.
	Two-electron integral transformation complete.
	Frozen core energy     =    -61.31236959137949

	Size of irrep 0 of <ab|cd> integrals:      0.648 (MW) /      5.184 (MB)
	Size of irrep 1 of <ab|cd> integrals:      0.360 (MW) /      2.880 (MB)
	Size of irrep 2 of <ab|cd> integrals:      0.389 (MW) /      3.115 (MB)
	Size of irrep 3 of <ab|cd> integrals:      0.608 (MW) /      4.867 (MB)
	Total:                                     2.006 (MW) /     16.046 (MB)

	Size of irrep 0 of <ia|bc> integrals:      0.053 (MW) /      0.425 (MB)
	Size of irrep 1 of <ia|bc> integrals:      0.024 (MW) /      0.192 (MB)
	Size of irrep 2 of <ia|bc> integrals:      0.029 (MW) /      0.235 (MB)
	Size of irrep 3 of <ia|bc> integrals:      0.046 (MW) /      0.368 (MB)
	Total:                                     0.152 (MW) /      1.220 (MB)

	Size of irrep 0 of tijab amplitudes:       0.005 (MW) /      0.039 (MB)
	Size of irrep 1 of tijab amplitudes:       0.001 (MW) /      0.010 (MB)
	Size of irrep 2 of tijab amplitudes:       0.002 (MW) /      0.020 (MB)
	Size of irrep 3 of tijab amplitudes:       0.003 (MW) /      0.025 (MB)
	Total:                                     0.012 (MW) /      0.093 (MB)

	Nuclear Rep. energy          =      9.17744224749294
	SCF energy                   =    -76.05701348045150
	One-electron energy          =    -41.57307647802677
	Two-electron energy          =     17.65099034146195
	Reference energy             =    -76.05701348045137

*** tstop() called on n014 at Sun Feb 28 17:10:30 2021
Module time:
	user time   =       0.38 seconds =       0.01 minutes
	system time =       0.16 seconds =       0.00 minutes
	total time  =          1 seconds =       0.02 minutes
Total time:
	user time   =       2.04 seconds =       0.03 minutes
	system time =       0.18 seconds =       0.00 minutes
	total time  =          3 seconds =       0.05 minutes
            **************************
            *                        *
            *        CCENERGY        *
            *                        *
            **************************

    Nuclear Rep. energy (wfn)     =    9.177442247492937
    SCF energy          (wfn)     =  -76.057013480451502
    Reference energy    (file100) =  -76.057013480451374

    Input parameters:
    -----------------
    Wave function   =     CCSD_T
    Reference wfn   =     RHF
    Brueckner       =     No
    Memory (Mbytes) =     14000.0
    Maxiter         =    300
    R_Convergence   =     1.0e-08
    E_Convergence   =     1.0e-10
    Restart         =     Yes
    DIIS            =     Yes
    AO Basis        =     NONE
    ABCD            =     NEW
    Cache Level     =     2
    Cache Type      =     LOW
    Print Level     =     1
    Num. of threads =     1
    # Amps to Print =     10
    Print MP2 Amps? =     No
    Analyze T2 Amps =     No
    Print Pair Ener =     No
    Local CC        =     No
    SCS-MP2         =     False
    SCSN-MP2        =     False
    SCS-CCSD        =     False

MP2 correlation energy -0.2616341709846400
                Solving CC Amplitude Equations
                ------------------------------
  Iter             Energy              RMS        T1Diag      D1Diag    New D1Diag    D2Diag
  ----     ---------------------    ---------   ----------  ----------  ----------   --------
     0        -0.261634170984640    0.000e+00    0.000000    0.000000    0.000000    0.116111
     1        -0.261971111185416    2.908e-02    0.005693    0.009278    0.009278    0.119779
     2        -0.266811235362099    1.003e-02    0.005891    0.009440    0.009440    0.124449
     3        -0.267517774307870    3.216e-03    0.006476    0.010574    0.010574    0.126092
     4        -0.267510376601617    6.543e-04    0.006514    0.010667    0.010667    0.126299
     5        -0.267532196117961    2.068e-04    0.006534    0.010757    0.010757    0.126346
     6        -0.267532731382748    6.197e-05    0.006540    0.010794    0.010794    0.126342
     7        -0.267532810553628    1.988e-05    0.006543    0.010810    0.010810    0.126341
     8        -0.267532497663338    5.091e-06    0.006544    0.010814    0.010814    0.126341
     9        -0.267532408861616    1.049e-06    0.006544    0.010815    0.010815    0.126341
    10        -0.267532421970821    2.349e-07    0.006544    0.010815    0.010815    0.126341
    11        -0.267532420669222    4.576e-08    0.006544    0.010815    0.010815    0.126341
    12        -0.267532422302587    1.014e-08    0.006544    0.010815    0.010815    0.126341
    13        -0.267532422338245    2.446e-09    0.006544    0.010815    0.010815    0.126341
    14        -0.267532422347057    6.070e-10    0.006544    0.010815    0.010815    0.126341

    Iterations converged.


    Largest TIA Amplitudes:
              2  27        -0.0074939527
              1   0         0.0058307641
              3  41        -0.0058117908
              2  28        -0.0049045295
              1   3        -0.0045333265
              1   5        -0.0041772053
              0   2        -0.0040085295
              1   2         0.0038787238
              3  46        -0.0038363948
              1  11        -0.0037721840

    Largest TIjAb Amplitudes:
      2   2  27  27        -0.0476606219
      1   1   2   2        -0.0296666658
      3   3  38  38        -0.0269543012
      1   2   2  27         0.0259614272
      2   1  27   2         0.0259614272
      3   3   1   1        -0.0254755470
      3   3  39  39        -0.0226737954
      2   3  27  39         0.0222566823
      3   2  39  27         0.0222566823
      1   1  38  38        -0.0221022958

    SCF energy       (wfn)                    =  -76.057013480451502
    Reference energy (file100)                =  -76.057013480451374

    Opposite-spin MP2 correlation energy      =   -0.198091853947922
    Same-spin MP2 correlation energy          =   -0.063542317036718
    Singles MP2 correlation energy            =   -0.000000000000000
    MP2 correlation energy                    =   -0.261634170984640
      * MP2 total energy                      =  -76.318647651436009

    Opposite-spin CCSD correlation energy     =   -0.210869123882328
    Same-spin CCSD correlation energy         =   -0.056663298464729
    Singles CCSD correlation energy           =    0.000000000000000
    CCSD correlation energy                   =   -0.267532422347057
      * CCSD total energy                     =  -76.324545902798434

            **************************
            *                        *
            *        CCTRIPLES       *
            *                        *
            **************************


    Wave function   =    CCSD_T
    Reference wfn   =      RHF

    Nuclear Rep. energy (wfn)                =    9.177442247492937
    SCF energy          (wfn)                =  -76.057013480451502
    Reference energy    (file100)            =  -76.057013480451374
    CCSD energy         (file100)            =   -0.267532422347057
    Total CCSD energy   (file100)            =  -76.324545902798434

    Number of ijk index combinations:               20
    Memory available in words        :      1750000000
    ~Words needed per explicit thread:           32000
    Number of threads for explicit ijk threading:    1

    MKL num_threads set to 1 for explicit threading.

    (T) energy                                =   -0.007662546792852
      * CCSD(T) total energy                  =  -76.332208449591278

Giraffe The Energy is -76.332208449591 

    Psi4 stopped on: Sunday, 28 February 2021 05:10PM
    Psi4 wall time for execution: 0:00:07.54

*** Psi4 exiting successfully. Buy a developer a beer!
