
 Primary working directories    : /tmp/795519.44.gen4.q
 Secondary working directories  : /tmp/795519.44.gen4.q
 Wavefunction directory         : /home/vulcan/mel64643/wfu/
 Main file repository           : /tmp/795519.44.gen4.q/

 ARCHNAME  : Linux/x86_64
 FC        : /opt/intel/compilers_and_libraries_2016.1.150/linux/bin/intel64/ifort
 FCVERSION : 16.0.1
 BLASLIB   : -mkl
 id        : ccgc

 Nodes     nprocs
 n059         1
 ga_uses_ma=false, calling ma_init with nominal heap.
 GA-space will be limited to   8.0 MW (determined by -G option)

 Using customized tuning parameters: mindgm=10; mindgv=16; mindgc=4; mindgr=1; noblas=0; mincuda=1000; minvec=7
 default implementation of scratch files=df  

 ***,Optimization of min3
 memory,1000,m
 gthresh,energy=1.0d-12,orbital=1.0d-10,oneint=1.0d-16,twoint=1.0d-16,optgrad=1.0d-6,compress=1.0d-13
 geomtyp=xyz
 
  bohr
  geometry = {
  6
  arbitrary comment
  C   -1.3782772531   -0.0242413186   -0.0000063910
  O    1.3084027827    0.1204208948    0.0000026231
  H   -2.0852826805    1.9116616386   -0.0000776473
  H   -2.1056261640   -0.9774737730    1.6831708946
  H   -2.1056193911   -0.9776068569   -1.6830961391
  H    1.9426785460   -1.5828927049   -0.0000017503
 }
 
 basis=cc-pvdz
 {rhf;maxit,200}
 {ccsd(t);maxit,200}

 Variables initialized (661), CPU time= 0.00 sec
 Commands  initialized (458), CPU time= 0.00 sec, 486 directives.
 Default parameters read. Elapsed time= 0.04 sec

 Checking input...
 Passed
1


                                         ***  PROGRAM SYSTEM MOLPRO  ***
                         Copyright, University College Cardiff Consultants Limited, 2008

                                    Version 2010.1 linked May 16 2016 07:17:05


 **********************************************************************************************************************************
 LABEL *   Optimization of min3                                                          
 Linux-4.4.3/n059(x86_64) 64 bit mpp version                                             DATE: 24-Oct-22          TIME: 15:41:36  
 **********************************************************************************************************************************

 SHA1:             9e8077add272b0f3cad6f7df79ec5211205f459d
 **********************************************************************************************************************************

 THRESHOLDS:

 ZERO    =  1.00D-12  ONEINT  =  1.00D-16  TWOINT  =  1.00D-16  PREFAC  =  1.00D-14  LOCALI  =  1.00D-09  EORDER  =  1.00D-04
 ENERGY  =  1.00D-12  ETEST   =  0.00D+00  EDENS   =  0.00D+00  THRDEDEF=  1.00D-06  GRADIENT=  1.00D-02  STEP    =  1.00D-03
 ORBITAL =  1.00D-10  CIVEC   =  1.00D-05  COEFF   =  1.00D-04  PRINTCI =  5.00D-02  PUNCHCI =  9.90D+01  OPTGRAD =  1.00D-06
 OPTENERG=  1.00D-06  OPTSTEP =  3.00D-04  THRGRAD =  1.00D-10  COMPRESS=  1.00D-13  VARMIN  =  1.00D-07  VARMAX  =  1.00D-03
 THRDOUB =  0.00D+00  THRDIV  =  1.00D-05  THRRED  =  1.00D-07  THRPSP  =  1.00D+00  THRDC   =  1.00D-10  THRCS   =  1.00D-10
 THRNRM  =  1.00D-08  THREQ   =  0.00D+00  THRDE   =  1.00D+00  THRREF  =  1.00D-05  SPARFAC =  1.00D+00  THRDLP  =  1.00D-07
 THRDIA  =  1.00D-10  THRDLS  =  1.00D-07  THRGPS  =  0.00D+00  THRKEX  =  0.00D+00  THRDIS  =  2.00D-01  THRVAR  =  1.00D-10
 THRLOC  =  1.00D-06  THRGAP  =  1.00D-06  THRLOCT = -1.00D+00  THRGAPT = -1.00D+00  THRORB  =  1.00D-06  THRMLTP =  0.00D+00
 THRCPQCI=  1.00D-10  KEXTA   =  0.00D+00  THRCOARS=  0.00D+00  SYMTOL  =  1.00D-06  GRADTOL =  1.00D-06  THROVL  =  1.00D-08
 THRORTH =  1.00D-08  GRID    =  1.00D-06  GRIDMAX =  1.00D-03  DTMAX   =  0.00D+00

 SETTING GEOMTYP        =    XYZ
 ZUNIT=BOHR
 

 Variable memory set to 1000000000 words,  buffer space   230000 words

 SETTING BASIS          =    CC-PVDZ


 Recomputing integrals since basis changed


 Using spherical harmonics

 Library entry C      S cc-pVDZ              selected for orbital group  1
 Library entry C      P cc-pVDZ              selected for orbital group  1
 Library entry C      D cc-pVDZ              selected for orbital group  1
 Library entry O      S cc-pVDZ              selected for orbital group  2
 Library entry O      P cc-pVDZ              selected for orbital group  2
 Library entry O      D cc-pVDZ              selected for orbital group  2
 Library entry H      S cc-pVDZ              selected for orbital group  3
 Library entry H      P cc-pVDZ              selected for orbital group  3

1PROGRAM * SEWARD (Integral evaluation for generally contracted gaussian basis sets)     Author: Roland Lindh, 1990

 Geometry written to block  1 of record 700


 Point group  C1  



 ATOMIC COORDINATES

 NR  ATOM    CHARGE       X              Y              Z

   1  C       6.00   -1.378277253   -0.024241319   -0.000006391
   2  O       8.00    1.308402783    0.120420895    0.000002623
   3  H       1.00   -2.085282681    1.911661639   -0.000077647
   4  H       1.00   -2.105626164   -0.977473773    1.683170895
   5  H       1.00   -2.105619391   -0.977606857   -1.683096139
   6  H       1.00    1.942678546   -1.582892705   -0.000001750

 Bond lengths in Bohr (Angstrom)

 1-2  2.690571830  1-3  2.060965050  1-4  2.066585185  1-5  2.066572896  2-6  1.817576123
     ( 1.423789291)     ( 1.090615733)     ( 1.093589780)     ( 1.093583277)     ( 0.961819860)

 Bond angles

  1-2-6  107.34213080   2-1-3  106.98047956   2-1-4  112.10130258   2-1-5  112.10179015

  3-1-4  108.21361608   3-1-5  108.21404765   4-1-5  109.06681619

 NUCLEAR CHARGE:                   18
 NUMBER OF PRIMITIVE AOS:          82
 NUMBER OF SYMMETRY AOS:           80
 NUMBER OF CONTRACTIONS:           48   (  48A   )
 NUMBER OF CORE ORBITALS:           2   (   2A   )
 NUMBER OF VALENCE ORBITALS:       12   (  12A   )


 NUCLEAR REPULSION ENERGY   40.25318301


 Eigenvalues of metric

         1 0.967E-02 0.177E-01 0.369E-01 0.373E-01 0.384E-01 0.473E-01 0.477E-01 0.520E-01


 Contracted 2-electron integrals neglected if value below      1.0D-16
 AO integral compression algorithm  1   Integral accuracy      1.0D-16

     6.554 MB (compressed) written to integral file ( 95.5%)

     Node minimum: 6.554 MB, node maximum: 6.554 MB


 NUMBER OF SORTED TWO-ELECTRON INTEGRALS:     692076.     BUFFER LENGTH:  32768
 NUMBER OF SEGMENTS:   1  SEGMENT LENGTH:     692076      RECORD LENGTH: 524288

 Memory used in sort:       1.25 MW

 SORT1 READ      832256. AND WROTE      682150. INTEGRALS IN      2 RECORDS. CPU TIME:     0.01 SEC, REAL TIME:     0.01 SEC
 SORT2 READ      682150. AND WROTE      692076. INTEGRALS IN     25 RECORDS. CPU TIME:     0.02 SEC, REAL TIME:     0.02 SEC

 FILE SIZES:   FILE 1:     8.0 MBYTE,  FILE 4:     8.4 MBYTE,   TOTAL:     16.4 MBYTE

 OPERATOR DM      FOR CENTER  0  COORDINATES:    0.000000    0.000000    0.000000


 **********************************************************************************************************************************
 DATASETS  * FILE   NREC   LENGTH (MB)   RECORD NAMES
              1      19        8.05       500      610      700      900      950      970     1000      129      960     1100   
                                          VAR    BASINP    GEOM    SYMINP    ZMAT    AOBASIS   BASIS     P2S    ABASIS      S 
                                         1400     1410     1200     1210     1080     1600     1650     1300     1700   
                                           T        V       H0       H01     AOSYM     SMH    MOLCAS    ERIS     OPER   

 PROGRAMS   *        TOTAL       INT
 CPU TIMES  *         0.23      0.19
 REAL TIME  *         0.40 SEC
 DISK USED  *        23.62 MB      
 GA USED    *         0.00 MB       (max)       0.00 MB       (current)
 **********************************************************************************************************************************

1PROGRAM * RHF-SCF (CLOSED SHELL)       Authors: W. Meyer, H.-J. Werner


 NUMBER OF ELECTRONS:       9+    9-    SPACE SYMMETRY=1    SPIN SYMMETRY: Singlet 
 CONVERGENCE THRESHOLDS:    1.00E-10 (Density)    1.00E-13 (Energy)
 MAX. NUMBER OF ITERATIONS:      200
 INTERPOLATION TYPE:            DIIS
 INTERPOLATION STEPS:              2 (START)      1 (STEP)
 LEVEL SHIFTS:                  0.00 (CLOSED)  0.00 (OPEN) 



 Orbital guess generated from atomic densities. Full valence occupancy:   14

 Molecular orbital dump at record        2100.2

 ITERATION    DDIFF          GRAD             ENERGY        2-EL.EN.            DIPOLE MOMENTS         DIIS
    1      0.000D+00      0.000D+00      -115.01399819    164.294047   -0.50033   -0.90232   -0.00001    0
    2      0.000D+00      0.110D-01      -115.04238320    162.072820   -0.32092   -0.53676   -0.00001    1
    3      0.205D-01      0.532D-02      -115.04846173    163.099552   -0.40525   -0.61233   -0.00001    2
    4      0.641D-02      0.112D-02      -115.04892719    162.943548   -0.39519   -0.60123   -0.00001    3
    5      0.204D-02      0.203D-03      -115.04894843    162.949919   -0.39808   -0.59694   -0.00001    4
    6      0.435D-03      0.357D-04      -115.04894924    162.950072   -0.39841   -0.59674   -0.00001    5
    7      0.936D-04      0.745D-05      -115.04894928    162.948876   -0.39855   -0.59657   -0.00001    6
    8      0.152D-04      0.240D-05      -115.04894928    162.949263   -0.39859   -0.59655   -0.00001    7
    9      0.511D-05      0.496D-06      -115.04894928    162.949221   -0.39860   -0.59655   -0.00001    6
   10      0.143D-05      0.893D-07      -115.04894928    162.949220   -0.39860   -0.59655   -0.00001    6
   11      0.239D-06      0.333D-07      -115.04894928    162.949226   -0.39861   -0.59655   -0.00001    6
   12      0.603D-07      0.140D-07      -115.04894928    162.949224   -0.39861   -0.59655   -0.00001    7
   13      0.262D-07      0.310D-08      -115.04894928    162.949224   -0.39861   -0.59655   -0.00001    7
   14      0.776D-08      0.659D-09      -115.04894928    162.949224   -0.39861   -0.59655   -0.00001    7
   15      0.168D-08      0.153D-09      -115.04894928    162.949224   -0.39861   -0.59655   -0.00001    7
   16      0.342D-09      0.461D-10      -115.04894928    162.949224   -0.39861   -0.59655   -0.00001    7
   17      0.893D-10      0.166D-10      -115.04894928    162.949224   -0.39861   -0.59655   -0.00001    7
   18      0.426D-10      0.300D-11      -115.04894928    162.949224   -0.39861   -0.59655   -0.00001    7
   19      0.702D-11      0.669D-12      -115.04894928    162.949224   -0.39861   -0.59655   -0.00001    7
   20      0.171D-11      0.289D-12      -115.04894928    162.949224   -0.39861   -0.59655   -0.00001    7
   21      0.522D-12      0.744D-13      -115.04894928    162.949224   -0.39861   -0.59655   -0.00001    7
   22      0.173D-12      0.166D-13      -115.04894928    162.949224   -0.39861   -0.59655   -0.00001    0

 Final occupancy:   9

 !RHF STATE 1.1 Energy               -115.048949279481
 Nuclear energy                        40.25318301
 One-electron energy                 -236.77674434
 Two-electron energy                   81.47461205
 Virial quotient                       -1.00100605
 !RHF STATE 1.1 Dipole moment          -0.39860550    -0.59654714    -0.00000759
 Dipole moment /Debye                  -1.01308776    -1.51617228    -0.00001930

 Orbital energies:

         1.1          2.1          3.1          4.1          5.1          6.1          7.1          8.1          9.1         10.1
    -20.549968   -11.274890    -1.348219    -0.921137    -0.681414    -0.613899    -0.583967    -0.496841    -0.443425     0.184420

        11.1
      0.224127


 **********************************************************************************************************************************
 DATASETS  * FILE   NREC   LENGTH (MB)   RECORD NAMES
              1      19        8.05       500      610      700      900      950      970     1000      129      960     1100   
                                          VAR    BASINP    GEOM    SYMINP    ZMAT    AOBASIS   BASIS     P2S    ABASIS      S 
                                         1400     1410     1200     1210     1080     1600     1650     1300     1700   
                                           T        V       H0       H01     AOSYM     SMH    MOLCAS    ERIS     OPER   

              2       3        0.39       700     1000     2100   
                                         GEOM     BASIS     RHF  

 PROGRAMS   *        TOTAL       RHF       INT
 CPU TIMES  *         0.34      0.11      0.19
 REAL TIME  *         0.54 SEC
 DISK USED  *        23.62 MB      
 GA USED    *         0.00 MB       (max)       0.00 MB       (current)
 **********************************************************************************************************************************


1PROGRAM * CCSD (Closed-shell coupled cluster)     Authors: C. Hampel, H.-J. Werner, 1991, M. Deegan, P.J. Knowles, 1992


 Convergence thresholds:  THRVAR = 1.00D-08  THRDEN = 1.00D-12

 CCSD(T)     terms to be evaluated (factor= 1.000)


 Number of core orbitals:           2 (   2 )
 Number of closed-shell orbitals:   7 (   7 )
 Number of external orbitals:      39 (  39 )

 Molecular orbitals read from record     2100.2  Type=RHF/CANONICAL (state 1.1)

 Number of N-1 electron functions:               7
 Number of N-2 electron functions:              28
 Number of singly external CSFs:               273
 Number of doubly external CSFs:             37401
 Total number of CSFs:                       37675

 Length of J-op  integral file:               0.00 MB
 Length of K-op  integral file:               0.19 MB
 Length of 3-ext integral record:             0.00 MB

 Memory could be reduced to 0.96 Mwords without degradation in triples

 Integral transformation finished. Total CPU:   0.02 sec, npass=  1  Memory used:   0.66 MW

 Reference energy:                   -115.04894928

 MP2 singlet pair energy:              -0.21876946
 MP2 triplet pair energy:              -0.11985985
 MP2 correlation energy:               -0.33862931
 MP2 total energy:                   -115.38757859

 SCS-MP2 correlation energy:           -0.33710282   (PS=  1.200000  PT=  0.333333)
 SCS-MP2 total energy:               -115.38605210

 ITER.      SQ.NORM     CORR.ENERGY   TOTAL ENERGY   ENERGY CHANGE        DEN1      VAR(S)    VAR(P)  DIIS     TIME
   1      1.10747118    -0.36142301  -115.41037229    -0.02279370    -0.01409150  0.92D-03  0.17D-02  1  1     0.06
   2      1.11602498    -0.36337449  -115.41232376    -0.00195148    -0.00926963  0.20D-04  0.16D-03  2  2     0.09
   3      1.11792122    -0.36350280  -115.41245208    -0.00012832    -0.00121244  0.95D-05  0.87D-05  3  3     0.13
   4      1.11844089    -0.36350158  -115.41245086     0.00000122    -0.00025658  0.34D-06  0.68D-06  4  4     0.17
   5      1.11854019    -0.36350201  -115.41245128    -0.00000042    -0.00003642  0.10D-06  0.50D-07  5  5     0.21
   6      1.11855957    -0.36350063  -115.41244991     0.00000138    -0.00000440  0.16D-07  0.42D-08  6  6     0.25
   7      1.11856443    -0.36350021  -115.41244949     0.00000042    -0.00000036  0.21D-08  0.74D-09  6  1     0.28
   8      1.11856573    -0.36350031  -115.41244959    -0.00000010     0.00000076  0.26D-09  0.75D-10  6  3     0.32
   9      1.11856681    -0.36350018  -115.41244946     0.00000013    -0.00000039  0.13D-10  0.11D-10  6  2     0.36
  10      1.11856686    -0.36350018  -115.41244946     0.00000000     0.00000000  0.14D-11  0.13D-11  6  4     0.40
  11      1.11856682    -0.36350018  -115.41244946     0.00000000     0.00000003  0.34D-12  0.87D-13  6  5     0.44
  12      1.11856677    -0.36350019  -115.41244947    -0.00000000     0.00000003  0.33D-13  0.13D-13  6  6     0.48
  13      1.11856675    -0.36350019  -115.41244947    -0.00000000     0.00000001  0.39D-14  0.16D-14  6  3     0.52
  14      1.11856675    -0.36350019  -115.41244947    -0.00000000     0.00000000  0.29D-15  0.14D-15  6  1     0.56
  15      1.11856675    -0.36350019  -115.41244947     0.00000000    -0.00000000  0.37D-16  0.32D-16  6  2     0.59
  16      1.11856675    -0.36350019  -115.41244947     0.00000000    -0.00000000  0.32D-17  0.17D-17  6  5     0.63
  17      1.11856675    -0.36350019  -115.41244947    -0.00000000     0.00000000  0.13D-18  0.13D-18  6  4     0.67
  18      1.11856675    -0.36350019  -115.41244947     0.00000000    -0.00000000  0.27D-19  0.12D-19  6  3     0.71
  19      1.11856675    -0.36350019  -115.41244947     0.00000000    -0.00000000  0.26D-20  0.11D-20  6  6     0.75
  20      1.11856675    -0.36350019  -115.41244947     0.00000000    -0.00000000  0.42D-21  0.17D-21  6  1     0.79

 Norm of t1 vector:      0.04178197      S-energy:    -0.00000000      T1 diagnostic:  0.00789605
                                                                       D1 diagnostic:  0.01769269


 Total CPU time for triples:      0.20 sec


 RESULTS
 =======

  Reference energy                   -115.048949279481
  CCSD singlet pair energy             -0.254768150993
  CCSD triplet pair energy             -0.108732036418
  CCSD correlation energy              -0.363500187411

  Triples (T) contribution             -0.007754411236
  Total correlation energy             -0.371254598647

  CCSD total energy                  -115.412449466892
  CCSD[T] energy                     -115.420495061337
  CCSD-T energy                      -115.420053198872
 !CCSD(T) total energy               -115.420203878128

 Timing summary (sec):

 STEP                 CPU(USER)    SYS     CPU(TOT)    WALL
 Transformation          0.02      0.01      0.03      0.03
 CCSD iterations         0.77      0.05      0.82      0.84
 Triples                 0.20      0.00      0.20      0.21

 Program statistics:

 Available memory in ccsd:               999999704
 Min. memory needed in ccsd:                136801
 Max. memory used in ccsd:                  163198
 Max. memory used in cckext:                182024 (20 integral passes)



 **********************************************************************************************************************************
 DATASETS  * FILE   NREC   LENGTH (MB)   RECORD NAMES
              1      20       10.59       500      610      700      900      950      970     1000      129      960     1100   
                                          VAR    BASINP    GEOM    SYMINP    ZMAT    AOBASIS   BASIS     P2S    ABASIS      S 
                                         1400     1410     1200     1210     1080     1600     1650     1300     1700     1380   
                                           T        V       H0       H01     AOSYM     SMH    MOLCAS    ERIS     OPER     JKOP   

              2       3        0.39       700     1000     2100   
                                         GEOM     BASIS     RHF  

 PROGRAMS   *        TOTAL   CCSD(T)       RHF       INT
 CPU TIMES  *         1.34      1.00      0.11      0.19
 REAL TIME  *         1.64 SEC
 DISK USED  *        25.05 MB      
 GA USED    *         0.00 MB       (max)       0.00 MB       (current)
 **********************************************************************************************************************************

        CCSD(T)         RHF-SCF 
   -115.42020388   -115.04894928
 **********************************************************************************************************************************
 Variable memory released
