
 Primary working directories    : /tmp/601555.86.gen4.q
 Secondary working directories  : /tmp/601555.86.gen4.q
 Wavefunction directory         : /home/vulcan/mel64643/wfu/
 Main file repository           : /tmp/601555.86.gen4.q/

 ARCHNAME  : Linux/x86_64
 FC        : /opt/intel/compilers_and_libraries_2016.1.150/linux/bin/intel64/ifort
 FCVERSION : 16.0.1
 BLASLIB   : -mkl
 id        : ccgc

 Nodes     nprocs
 n066         1
 ga_uses_ma=false, calling ma_init with nominal heap.
 GA-space will be limited to   8.0 MW (determined by -G option)

 Using customized tuning parameters: mindgm=10; mindgv=16; mindgc=4; mindgr=1; noblas=0; mincuda=1000; minvec=7
 default implementation of scratch files=df  

 ***,Optimization of min3
 memory,1000,m
 gthresh,energy=1.0d-12,orbital=1.0d-10,oneint=1.0d-16,twoint=1.0d-16,optgrad=1.0d-6,compress=1.0d-13
 geomtyp=xyz
 
  bohr
  geometry = {
  6
  arbitrary comment
  C   -1.3750292098   -0.0232096195    0.0000003459
  O    1.3042828609    0.1253142038    0.0000002952
  H   -2.0765235581    1.9092864009   -0.0000799290
  H   -2.1093121336   -0.9800877229    1.6818536991
  H   -2.1093051812   -0.9802189295   -1.6817815152
  H    1.9421630617   -1.5812164529   -0.0000013059
 }
 
 basis=cc-pvdz
 {rhf;maxit,200}
 {ccsd(t);maxit,200}

 Variables initialized (661), CPU time= 0.01 sec
 Commands  initialized (458), CPU time= 0.00 sec, 486 directives.
 Default parameters read. Elapsed time= 0.05 sec

 Checking input...
 Passed
1


                                         ***  PROGRAM SYSTEM MOLPRO  ***
                         Copyright, University College Cardiff Consultants Limited, 2008

                                    Version 2010.1 linked May 16 2016 07:17:05


 **********************************************************************************************************************************
 LABEL *   Optimization of min3                                                          
 Linux-4.4.3/n066(x86_64) 64 bit mpp version                                             DATE: 06-Nov-21          TIME: 15:39:46  
 **********************************************************************************************************************************

 SHA1:             9e8077add272b0f3cad6f7df79ec5211205f459d
 **********************************************************************************************************************************

 THRESHOLDS:

 ZERO    =  1.00D-12  ONEINT  =  1.00D-16  TWOINT  =  1.00D-16  PREFAC  =  1.00D-14  LOCALI  =  1.00D-09  EORDER  =  1.00D-04
 ENERGY  =  1.00D-12  ETEST   =  0.00D+00  EDENS   =  0.00D+00  THRDEDEF=  1.00D-06  GRADIENT=  1.00D-02  STEP    =  1.00D-03
 ORBITAL =  1.00D-10  CIVEC   =  1.00D-05  COEFF   =  1.00D-04  PRINTCI =  5.00D-02  PUNCHCI =  9.90D+01  OPTGRAD =  1.00D-06
 OPTENERG=  1.00D-06  OPTSTEP =  3.00D-04  THRGRAD =  1.00D-10  COMPRESS=  1.00D-13  VARMIN  =  1.00D-07  VARMAX  =  1.00D-03
 THRDOUB =  0.00D+00  THRDIV  =  1.00D-05  THRRED  =  1.00D-07  THRPSP  =  1.00D+00  THRDC   =  1.00D-10  THRCS   =  1.00D-10
 THRNRM  =  1.00D-08  THREQ   =  0.00D+00  THRDE   =  1.00D+00  THRREF  =  1.00D-05  SPARFAC =  1.00D+00  THRDLP  =  1.00D-07
 THRDIA  =  1.00D-10  THRDLS  =  1.00D-07  THRGPS  =  0.00D+00  THRKEX  =  0.00D+00  THRDIS  =  2.00D-01  THRVAR  =  1.00D-10
 THRLOC  =  1.00D-06  THRGAP  =  1.00D-06  THRLOCT = -1.00D+00  THRGAPT = -1.00D+00  THRORB  =  1.00D-06  THRMLTP =  0.00D+00
 THRCPQCI=  1.00D-10  KEXTA   =  0.00D+00  THRCOARS=  0.00D+00  SYMTOL  =  1.00D-06  GRADTOL =  1.00D-06  THROVL  =  1.00D-08
 THRORTH =  1.00D-08  GRID    =  1.00D-06  GRIDMAX =  1.00D-03  DTMAX   =  0.00D+00

 SETTING GEOMTYP        =    XYZ
 ZUNIT=BOHR
 

 Variable memory set to 1000000000 words,  buffer space   230000 words

 SETTING BASIS          =    CC-PVDZ


 Recomputing integrals since basis changed


 Using spherical harmonics

 Library entry C      S cc-pVDZ              selected for orbital group  1
 Library entry C      P cc-pVDZ              selected for orbital group  1
 Library entry C      D cc-pVDZ              selected for orbital group  1
 Library entry O      S cc-pVDZ              selected for orbital group  2
 Library entry O      P cc-pVDZ              selected for orbital group  2
 Library entry O      D cc-pVDZ              selected for orbital group  2
 Library entry H      S cc-pVDZ              selected for orbital group  3
 Library entry H      P cc-pVDZ              selected for orbital group  3

1PROGRAM * SEWARD (Integral evaluation for generally contracted gaussian basis sets)     Author: Roland Lindh, 1990

 Geometry written to block  1 of record 700


 Point group  C1  



 ATOMIC COORDINATES

 NR  ATOM    CHARGE       X              Y              Z

   1  C       6.00   -1.375029210   -0.023209620    0.000000346
   2  O       8.00    1.304282861    0.125314204    0.000000295
   3  H       1.00   -2.076523558    1.909286401   -0.000079929
   4  H       1.00   -2.109312134   -0.980087723    1.681853699
   5  H       1.00   -2.109305181   -0.980218930   -1.681781515
   6  H       1.00    1.942163062   -1.581216453   -0.000001306

 Bond lengths in Bohr (Angstrom)

 1-2  2.683425516  1-3  2.055878206  1-4  2.069641954  1-5  2.069642058  2-6  1.821850168
     ( 1.420007625)     ( 1.087923891)     ( 1.095207353)     ( 1.095207408)     ( 0.964081587)

 Bond angles

  1-2-6  107.32226363   2-1-3  106.77799036   2-1-4  112.32336592   2-1-5  112.32337242

  3-1-4  108.27427863   3-1-5  108.27411343   4-1-5  108.70400263

 NUCLEAR CHARGE:                   18
 NUMBER OF PRIMITIVE AOS:          82
 NUMBER OF SYMMETRY AOS:           80
 NUMBER OF CONTRACTIONS:           48   (  48A   )
 NUMBER OF CORE ORBITALS:           2   (   2A   )
 NUMBER OF VALENCE ORBITALS:       12   (  12A   )


 NUCLEAR REPULSION ENERGY   40.29795679


 Eigenvalues of metric

         1 0.966E-02 0.177E-01 0.368E-01 0.374E-01 0.384E-01 0.475E-01 0.478E-01 0.519E-01


 Contracted 2-electron integrals neglected if value below      1.0D-16
 AO integral compression algorithm  1   Integral accuracy      1.0D-16

     6.291 MB (compressed) written to integral file ( 98.3%)

     Node minimum: 6.291 MB, node maximum: 6.291 MB


 NUMBER OF SORTED TWO-ELECTRON INTEGRALS:     692076.     BUFFER LENGTH:  32768
 NUMBER OF SEGMENTS:   1  SEGMENT LENGTH:     692076      RECORD LENGTH: 524288

 Memory used in sort:       1.25 MW

 SORT1 READ      832256. AND WROTE      682148. INTEGRALS IN      2 RECORDS. CPU TIME:     0.01 SEC, REAL TIME:     0.02 SEC
 SORT2 READ      682148. AND WROTE      692076. INTEGRALS IN     24 RECORDS. CPU TIME:     0.01 SEC, REAL TIME:     0.02 SEC

 FILE SIZES:   FILE 1:     8.0 MBYTE,  FILE 4:     8.4 MBYTE,   TOTAL:     16.4 MBYTE

 OPERATOR DM      FOR CENTER  0  COORDINATES:    0.000000    0.000000    0.000000


 **********************************************************************************************************************************
 DATASETS  * FILE   NREC   LENGTH (MB)   RECORD NAMES
              1      19        8.03       500      610      700      900      950      970     1000      129      960     1100   
                                          VAR    BASINP    GEOM    SYMINP    ZMAT    AOBASIS   BASIS     P2S    ABASIS      S 
                                         1400     1410     1200     1210     1080     1600     1650     1300     1700   
                                           T        V       H0       H01     AOSYM     SMH    MOLCAS    ERIS     OPER   

 PROGRAMS   *        TOTAL       INT
 CPU TIMES  *         0.23      0.18
 REAL TIME  *         0.41 SEC
 DISK USED  *        23.34 MB      
 GA USED    *         0.00 MB       (max)       0.00 MB       (current)
 **********************************************************************************************************************************

1PROGRAM * RHF-SCF (CLOSED SHELL)       Authors: W. Meyer, H.-J. Werner


 NUMBER OF ELECTRONS:       9+    9-    SPACE SYMMETRY=1    SPIN SYMMETRY: Singlet 
 CONVERGENCE THRESHOLDS:    1.00E-10 (Density)    1.00E-13 (Energy)
 MAX. NUMBER OF ITERATIONS:      200
 INTERPOLATION TYPE:            DIIS
 INTERPOLATION STEPS:              2 (START)      1 (STEP)
 LEVEL SHIFTS:                  0.00 (CLOSED)  0.00 (OPEN) 



 Orbital guess generated from atomic densities. Full valence occupancy:   14

 Molecular orbital dump at record        2100.2

 ITERATION    DDIFF          GRAD             ENERGY        2-EL.EN.            DIPOLE MOMENTS         DIIS
    1      0.000D+00      0.000D+00      -115.01400425    164.381621   -0.48954   -0.90761   -0.00000    0
    2      0.000D+00      0.110D-01      -115.04241964    162.153050   -0.31338   -0.53728   -0.00000    1
    3      0.205D-01      0.531D-02      -115.04847584    163.182921   -0.39724   -0.61326   -0.00000    2
    4      0.640D-02      0.113D-02      -115.04894304    163.025696   -0.38748   -0.60166   -0.00000    3
    5      0.204D-02      0.204D-03      -115.04896450    163.032218   -0.39048   -0.59724   -0.00000    4
    6      0.436D-03      0.360D-04      -115.04896532    163.032388   -0.39084   -0.59701   -0.00000    5
    7      0.941D-04      0.754D-05      -115.04896536    163.031183   -0.39099   -0.59684   -0.00000    6
    8      0.154D-04      0.243D-05      -115.04896536    163.031576   -0.39103   -0.59681   -0.00000    7
    9      0.518D-05      0.504D-06      -115.04896536    163.031534   -0.39105   -0.59681   -0.00000    6
   10      0.145D-05      0.922D-07      -115.04896536    163.031533   -0.39105   -0.59681   -0.00000    6
   11      0.245D-06      0.344D-07      -115.04896536    163.031539   -0.39105   -0.59681   -0.00000    6
   12      0.625D-07      0.146D-07      -115.04896536    163.031537   -0.39105   -0.59681   -0.00000    7
   13      0.275D-07      0.319D-08      -115.04896536    163.031537   -0.39105   -0.59681   -0.00000    7
   14      0.798D-08      0.667D-09      -115.04896536    163.031537   -0.39105   -0.59681   -0.00000    7
   15      0.169D-08      0.157D-09      -115.04896536    163.031537   -0.39105   -0.59681   -0.00000    7
   16      0.349D-09      0.473D-10      -115.04896536    163.031537   -0.39105   -0.59681   -0.00000    7
   17      0.908D-10      0.171D-10      -115.04896536    163.031537   -0.39105   -0.59681   -0.00000    7
   18      0.437D-10      0.309D-11      -115.04896536    163.031537   -0.39105   -0.59681   -0.00000    7
   19      0.723D-11      0.640D-12      -115.04896536    163.031537   -0.39105   -0.59681   -0.00000    0

 Final occupancy:   9

 !RHF STATE 1.1 Energy               -115.048965358608
 Nuclear energy                        40.29795679
 One-electron energy                 -236.86269072
 Two-electron energy                   81.51576857
 Virial quotient                       -1.00098286
 !RHF STATE 1.1 Dipole moment          -0.39105186    -0.59681096    -0.00000278
 Dipole moment /Debye                  -0.99388959    -1.51684281    -0.00000708

 Orbital energies:

         1.1          2.1          3.1          4.1          5.1          6.1          7.1          8.1          9.1         10.1
    -20.550447   -11.274577    -1.349244    -0.920800    -0.682194    -0.613555    -0.584891    -0.497003    -0.442866     0.184223

        11.1
      0.224068


 **********************************************************************************************************************************
 DATASETS  * FILE   NREC   LENGTH (MB)   RECORD NAMES
              1      19        8.03       500      610      700      900      950      970     1000      129      960     1100   
                                          VAR    BASINP    GEOM    SYMINP    ZMAT    AOBASIS   BASIS     P2S    ABASIS      S 
                                         1400     1410     1200     1210     1080     1600     1650     1300     1700   
                                           T        V       H0       H01     AOSYM     SMH    MOLCAS    ERIS     OPER   

              2       3        0.39       700     1000     2100   
                                         GEOM     BASIS     RHF  

 PROGRAMS   *        TOTAL       RHF       INT
 CPU TIMES  *         0.32      0.09      0.18
 REAL TIME  *         0.53 SEC
 DISK USED  *        23.34 MB      
 GA USED    *         0.00 MB       (max)       0.00 MB       (current)
 **********************************************************************************************************************************


1PROGRAM * CCSD (Closed-shell coupled cluster)     Authors: C. Hampel, H.-J. Werner, 1991, M. Deegan, P.J. Knowles, 1992


 Convergence thresholds:  THRVAR = 1.00D-08  THRDEN = 1.00D-12

 CCSD(T)     terms to be evaluated (factor= 1.000)


 Number of core orbitals:           2 (   2 )
 Number of closed-shell orbitals:   7 (   7 )
 Number of external orbitals:      39 (  39 )

 Molecular orbitals read from record     2100.2  Type=RHF/CANONICAL (state 1.1)

 Number of N-1 electron functions:               7
 Number of N-2 electron functions:              28
 Number of singly external CSFs:               273
 Number of doubly external CSFs:             37401
 Total number of CSFs:                       37675

 Length of J-op  integral file:               0.00 MB
 Length of K-op  integral file:               0.19 MB
 Length of 3-ext integral record:             0.00 MB

 Memory could be reduced to 0.96 Mwords without degradation in triples

 Integral transformation finished. Total CPU:   0.02 sec, npass=  1  Memory used:   0.66 MW

 Reference energy:                   -115.04896536

 MP2 singlet pair energy:              -0.21877245
 MP2 triplet pair energy:              -0.11989989
 MP2 correlation energy:               -0.33867234
 MP2 total energy:                   -115.38763769

 SCS-MP2 correlation energy:           -0.33713131   (PS=  1.200000  PT=  0.333333)
 SCS-MP2 total energy:               -115.38609667

 ITER.      SQ.NORM     CORR.ENERGY   TOTAL ENERGY   ENERGY CHANGE        DEN1      VAR(S)    VAR(P)  DIIS     TIME
   1      1.10745818    -0.36145517  -115.41042053    -0.02278283    -0.01408343  0.92D-03  0.17D-02  1  1     0.05
   2      1.11600799    -0.36340596  -115.41237131    -0.00195079    -0.00926716  0.20D-04  0.16D-03  2  2     0.09
   3      1.11790239    -0.36353388  -115.41249924    -0.00012793    -0.00121125  0.96D-05  0.86D-05  3  3     0.13
   4      1.11842148    -0.36353266  -115.41249802     0.00000123    -0.00025645  0.34D-06  0.68D-06  4  4     0.17
   5      1.11852059    -0.36353308  -115.41249844    -0.00000043    -0.00003631  0.10D-06  0.50D-07  5  5     0.21
   6      1.11853996    -0.36353171  -115.41249707     0.00000137    -0.00000441  0.16D-07  0.42D-08  6  6     0.24
   7      1.11854482    -0.36353129  -115.41249665     0.00000042    -0.00000036  0.21D-08  0.74D-09  6  1     0.28
   8      1.11854612    -0.36353139  -115.41249675    -0.00000010     0.00000076  0.26D-09  0.74D-10  6  3     0.32
   9      1.11854720    -0.36353126  -115.41249662     0.00000013    -0.00000039  0.13D-10  0.11D-10  6  2     0.36
  10      1.11854712    -0.36353127  -115.41249663    -0.00000000     0.00000007  0.11D-11  0.90D-12  6  5     0.40
  11      1.11854715    -0.36353127  -115.41249662     0.00000000    -0.00000000  0.20D-12  0.52D-13  6  4     0.43
  12      1.11854714    -0.36353127  -115.41249663    -0.00000000     0.00000001  0.19D-13  0.11D-13  6  1     0.47
  13      1.11854714    -0.36353127  -115.41249663    -0.00000000    -0.00000000  0.24D-14  0.97D-15  6  6     0.51
  14      1.11854714    -0.36353127  -115.41249663     0.00000000    -0.00000000  0.22D-15  0.13D-15  6  3     0.55
  15      1.11854714    -0.36353127  -115.41249663    -0.00000000    -0.00000000  0.26D-16  0.17D-16  6  2     0.58
  16      1.11854714    -0.36353127  -115.41249663    -0.00000000    -0.00000000  0.57D-17  0.17D-17  6  5     0.62
  17      1.11854714    -0.36353127  -115.41249663    -0.00000000    -0.00000000  0.55D-18  0.26D-18  6  4     0.66
  18      1.11854714    -0.36353127  -115.41249663     0.00000000    -0.00000000  0.84D-19  0.44D-19  6  1     0.70
  19      1.11854714    -0.36353127  -115.41249663    -0.00000000    -0.00000000  0.97D-20  0.44D-20  6  6     0.74
  20      1.11854714    -0.36353127  -115.41249663     0.00000000     0.00000000  0.14D-20  0.57D-21  6  3     0.78

 Norm of t1 vector:      0.04178246      S-energy:    -0.00000000      T1 diagnostic:  0.00789614
                                                                       D1 diagnostic:  0.01752470


 Total CPU time for triples:      0.20 sec


 RESULTS
 =======

  Reference energy                   -115.048965358607
  CCSD singlet pair energy             -0.254758706560
  CCSD triplet pair energy             -0.108772560715
  CCSD correlation energy              -0.363531267275

  Triples (T) contribution             -0.007752472143
  Total correlation energy             -0.371283739418

  CCSD total energy                  -115.412496625883
  CCSD[T] energy                     -115.420540019820
  CCSD-T energy                      -115.420098718071
 !CCSD(T) total energy               -115.420249098025

 Timing summary (sec):

 STEP                 CPU(USER)    SYS     CPU(TOT)    WALL
 Transformation          0.02      0.00      0.02      0.02
 CCSD iterations         0.76      0.06      0.82      0.85
 Triples                 0.20      0.00      0.20      0.21

 Program statistics:

 Available memory in ccsd:               999999704
 Min. memory needed in ccsd:                136801
 Max. memory used in ccsd:                  163198
 Max. memory used in cckext:                182024 (20 integral passes)



 **********************************************************************************************************************************
 DATASETS  * FILE   NREC   LENGTH (MB)   RECORD NAMES
              1      20       10.56       500      610      700      900      950      970     1000      129      960     1100   
                                          VAR    BASINP    GEOM    SYMINP    ZMAT    AOBASIS   BASIS     P2S    ABASIS      S 
                                         1400     1410     1200     1210     1080     1600     1650     1300     1700     1380   
                                           T        V       H0       H01     AOSYM     SMH    MOLCAS    ERIS     OPER     JKOP   

              2       3        0.39       700     1000     2100   
                                         GEOM     BASIS     RHF  

 PROGRAMS   *        TOTAL   CCSD(T)       RHF       INT
 CPU TIMES  *         1.31      0.99      0.09      0.18
 REAL TIME  *         1.63 SEC
 DISK USED  *        24.77 MB      
 GA USED    *         0.00 MB       (max)       0.00 MB       (current)
 **********************************************************************************************************************************

        CCSD(T)         RHF-SCF 
   -115.42024910   -115.04896536
 **********************************************************************************************************************************
 Variable memory released
