
 Working directory              : /scratch/mel64643/tmp/40073398/
 Global scratch directory       : /scratch/mel64643/tmp/40073398/
 Wavefunction directory         : /home/mel64643/wfu/
 Main file repository           : /scratch/mel64643/tmp/40073398/

 id        : ccgc

 Nodes     nprocs
 a1-8         3
 Distribution of processes:   nprocs(total)=    4   nprocs(compute)=    3   nprocs(helper)=    1
 GA implementation: MPI file
 GA implementation (serial work in mppx): MPI file

 Using customized tuning parameters: mindgm=1; mindgv=20; mindgc=4; mindgr=1; noblas=0; minvec=7
 default implementation of scratch files=sf  


 Variables initialized (1015), CPU time= 0.01 sec
 ***,Optimization of min3
 memory,1000,m
 gthresh,energy=1.0d-12,orbital=1.0d-10,oneint=1.0d-16,twoint=1.0d-16,optgrad=1.0d-6,compress=1.0d-13
 geomtyp=xyz
 
  bohr
  geometry = {
  6
  arbitrary comment
  C   -1.3667714280   -0.0242939934    0.0000003847
  O    1.2892527273    0.1213306485    0.0000003560
  H   -2.0777355521    1.9083616738   -0.0000799252
  H   -2.0927788481   -0.9792249637    1.6846629439
  H   -2.0927714864   -0.9793563447   -1.6845909663
  H    1.9170804272   -1.5769491405   -0.0000012032
 }
 
 basis=cc-pvdz
 {rhf;maxit,200}
 {ccsd(t);maxit,200}
 Commands initialized (818), CPU time= 0.01 sec, 672 directives.
 Default parameters read. Elapsed time= 0.09 sec

 Checking input...
 Passed
1


                                         ***  PROGRAM SYSTEM MOLPRO  ***
                                       Copyright, TTI GmbH Stuttgart, 2015
                                    Version 2022.1 linked Mar  4 2022 00:40:14


 **********************************************************************************************************************************
 LABEL *   Optimization of min3                                                          
  64 bit mpp version                                                                     DATE: 07-Aug-25          TIME: 21:26:55  
 **********************************************************************************************************************************

 SHA1:             31073afc4d8441e10870424e0d77336a33bc4286
 **********************************************************************************************************************************

 Memory per process:      1000 MW
 Total memory per node:   3000 MW

 GA preallocation disabled
 GA check disabled

 Variable memory set to 1000.0 MW


 THRESHOLDS:

 ZERO    =  1.00D-12  ONEINT  =  1.00D-16  TWOINT  =  1.00D-16  PREFAC  =  1.00D-14  XXXXXX  =  1.00D-09  EORDER  =  1.00D-04
 ENERGY  =  1.00D-12  ETEST   =  0.00D+00  EDENS   =  0.00D+00  THRDEDEF=  1.00D-06  GRADIENT=  1.00D-05  STEP    =  1.00D-03
 ORBITAL =  1.00D-10  CIVEC   =  1.00D-05  COEFF   =  1.00D-04  PRINTCI =  5.00D-02  PUNCHCI =  9.90D+01  OPTGRAD =  1.00D-06
 OPTENERG=  1.00D-06  OPTSTEP =  3.00D-04  THRGRAD =  1.00D-10  COMPRESS=  1.00D-13  VARMIN  =  1.00D-07  VARMAX  =  1.00D-03
 THRDOUB =  0.00D+00  THRDIV  =  1.00D-05  THRRED  =  1.00D-07  THRPSP  =  1.00D+00  THRDC   =  1.00D-10  THRCS   =  1.00D-10
 THRNRM  =  1.00D-08  THREQ   =  0.00D+00  THRDE   =  1.00D+00  THRREF  =  1.00D-05  SPARFAC =  1.00D+00  THRDLP  =  1.00D-07
 THRDIA  =  1.00D-10  THRDLS  =  1.00D-07  THRGPS  =  0.00D+00  THRKEX  =  0.00D+00  THRDIS  =  2.00D-01  THRVAR  =  1.00D-10
 THRLOC  =  1.00D-06  THRGAP  =  1.00D-06  THRLOCT = -1.00D+00  THRGAPT = -1.00D+00  THRORB  =  1.00D-06  THRMLTP =  0.00D+00
 THRCPQCI=  1.00D-10  KEXTA   =  0.00D+00  THRCOARS=  0.00D+00  SYMTOL  =  1.00D-06  GRADTOL =  1.00D-06  THROVL  =  1.00D-08
 THRORTH =  1.00D-08  THRDLOVL= -1.00D+00  GRID    =  1.00D-06  GRIDMAX =  1.00D-03  DTMAX   =  0.00D+00  THROCCDE=  1.00D-01
 THROCCDE=  1.00D-01  THRPRINT=  2.50D-01

 SETTING GEOMTYP        =    XYZ
 ZUNIT=BOHR

 SETTING BASIS          =    CC-PVDZ


 Recomputing integrals since basis changed


 Using spherical harmonics

 Library entry C      S cc-pVDZ              selected for orbital group  1
 Library entry C      P cc-pVDZ              selected for orbital group  1
 Library entry C      D cc-pVDZ              selected for orbital group  1
 Library entry O      S cc-pVDZ              selected for orbital group  2
 Library entry O      P cc-pVDZ              selected for orbital group  2
 Library entry O      D cc-pVDZ              selected for orbital group  2
 Library entry H      S cc-pVDZ              selected for orbital group  3
 Library entry H      P cc-pVDZ              selected for orbital group  3


 PROGRAM * SEWARD (Integral evaluation for generally contracted gaussian basis sets)     Author: Roland Lindh, 1990

 Geometry written to block  1 of record 700


 Point group  C1  



 ATOMIC COORDINATES

 NR  ATOM    CHARGE       X              Y              Z

   1  C       6.00   -1.366771428   -0.024293993    0.000000385
   2  O       8.00    1.289252727    0.121330648    0.000000356
   3  H       1.00   -2.077735552    1.908361674   -0.000079925
   4  H       1.00   -2.092778848   -0.979224964    1.684662944
   5  H       1.00   -2.092771486   -0.979356345   -1.684590966
   6  H       1.00    1.917080427   -1.576949141   -0.000001203

 Bond lengths in Bohr (Angstrom)

 1-2  2.660013318  1-3  2.059278495  1-4  2.068107316  1-5  2.068107396  2-6  1.810613670
     ( 1.407618428)     ( 1.089723250)     ( 1.094395261)     ( 1.094395303)     ( 0.958135492)

 Bond angles

  1-2-6  107.15029747   2-1-3  107.05873071   2-1-4  112.07383876   2-1-5  112.07383206

  3-1-4  108.19076777   3-1-5  108.19060509   4-1-5  109.09056885

 NUCLEAR CHARGE:                   18
 NUMBER OF PRIMITIVE AOS:          82
 NUMBER OF SYMMETRY AOS:           80
 NUMBER OF CONTRACTIONS:           48   (   48A   )
 NUMBER OF INNER CORE ORBITALS:     0   (    0A   )
 NUMBER OF OUTER CORE ORBITALS:     2   (    2A   )
 NUMBER OF VALENCE ORBITALS:       12   (   12A   )


 NUCLEAR REPULSION ENERGY   40.53485486

 Eigenvalues of metric

         1 0.960E-02 0.175E-01 0.368E-01 0.374E-01 0.381E-01 0.471E-01 0.477E-01 0.515E-01


 Contracted 2-electron integrals neglected if value below      1.0D-16
 AO integral compression algorithm  1   Integral accuracy      1.0D-16

     6.816 MB (compressed) written to integral file ( 98.2%)

     Node minimum: 2.097 MB, node maximum: 2.359 MB


 NUMBER OF SORTED TWO-ELECTRON INTEGRALS:     231084.     BUFFER LENGTH:  32768
 NUMBER OF SEGMENTS:   1  SEGMENT LENGTH:     231084      RECORD LENGTH: 524288

 Memory used in sort:       0.79 MW

 SORT1 READ      832256. AND WROTE      227682. INTEGRALS IN      1 RECORDS. CPU TIME:     0.01 SEC, REAL TIME:     0.04 SEC
 SORT2 READ      682148. AND WROTE      692076. INTEGRALS IN     24 RECORDS. CPU TIME:     0.01 SEC, REAL TIME:     0.01 SEC

 Node minimum:      230300.  Node maximum:      231084. integrals

 OPERATOR DM      FOR CENTER  0  COORDINATES:    0.000000    0.000000    0.000000


 **********************************************************************************************************************************
 DATASETS  * FILE   NREC   LENGTH (MB)   RECORD NAMES
              1      18       28.73       500      610      700      900      950      970     1000      129      960     1100   
                                          VAR    BASINP    GEOM    SYMINP    ZMAT    AOBASIS   BASIS     P2S    ABASIS      S 
                                         1400     1410     1200     1210     1080     1600     1650     1700   
                                           T        V       H0       H01     AOSYM     SMH    MOLCAS    OPER   

 PROGRAMS   *        TOTAL       INT
 CPU TIMES  *         0.42      0.28
 REAL TIME  *         1.31 SEC
 DISK USED  *        29.07 MB (local),      104.32 MB (total)
 GA USED    *         0.00 MB       (max)       0.00 MB       (current)
 **********************************************************************************************************************************


 Program * Restricted Hartree-Fock

 Orbital guess generated from atomic densities. Full valence occupancy:   14

 Initial occupancy:   9

 NELEC=   18   SYM=1   MS2= 0   THRE=1.0D-12   THRD=1.0D-10   THRG=1.0D-10  HFMA2=F  DIIS_START=2   DIIS_MAX=10   DIIS_INCORE=F

 Level shifts:    0.00 (CLOSED)    0.00 (OPEN)    0.30 (GAP_MIN)

 ITER           ETOT              DE          GRAD        DDIFF     DIIS  NEXP   TIME(IT)  TIME(TOT)  DIAG
   1     -115.01454232    -115.01454232     0.00D+00     0.16D+00     0     0       0.00      0.00    start
   2     -115.04297950      -0.02843718     0.10D-01     0.21D-01     1     0       0.01      0.01    diag
   3     -115.04890853      -0.00592903     0.48D-02     0.63D-02     2     0       0.00      0.01    diag
   4     -115.04937018      -0.00046165     0.10D-02     0.20D-02     3     0       0.00      0.01    diag
   5     -115.04939094      -0.00002076     0.18D-03     0.43D-03     4     0       0.00      0.01    diag
   6     -115.04939174      -0.00000079     0.32D-04     0.93D-04     5     0       0.01      0.02    diag
   7     -115.04939177      -0.00000003     0.67D-05     0.15D-04     6     0       0.01      0.03    diag
   8     -115.04939177      -0.00000000     0.22D-05     0.51D-05     7     0       0.00      0.03    fixocc
   9     -115.04939177      -0.00000000     0.46D-06     0.14D-05     8     0       0.00      0.03    diag
  10     -115.04939177      -0.00000000     0.76D-07     0.24D-06     9     0       0.00      0.03    diag/orth
  11     -115.04939177      -0.00000000     0.18D-07     0.51D-07     9     0       0.01      0.04    diag
  12     -115.04939177       0.00000000     0.45D-08     0.14D-07     9     0       0.00      0.04    diag
  13     -115.04939177       0.00000000     0.66D-09     0.19D-08     9     0       0.00      0.04    diag
  14     -115.04939177      -0.00000000     0.15D-09     0.39D-09     9     0       0.00      0.04    diag
  15     -115.04939177       0.00000000     0.61D-10     0.11D-09     9     0       0.01      0.05    diag
  16     -115.04939177       0.00000000     0.13D-10     0.31D-10     9     0       0.00      0.05    diag
  17     -115.04939177      -0.00000000     0.22D-11     0.45D-11     0     0       0.00      0.05    diag

 Final occupancy:   9

 !RHF STATE 1.1 Energy               -115.049391770111
  RHF One-electron energy            -237.315161482224
  RHF Two-electron energy              81.730914857073
  RHF Kinetic energy                  114.975114198043
  RHF Nuclear energy                   40.534854855040
  RHF Virial quotient                  -1.000646031731

 !RHF STATE 1.1 Dipole moment          -0.37682235    -0.59384628    -0.00000283
 Dipole moment /Debye                  -0.95778688    -1.50940669    -0.00000719

 Orbital energies:

           1.1          2.1          3.1          4.1          5.1          6.1          7.1          8.1          9.1         10.1
    -20.549649   -11.273443    -1.355197    -0.920564    -0.685708    -0.616447    -0.587914    -0.495760    -0.441984     0.184453

          11.1
      0.225159


 HOMO      9.1    -0.441984 =     -12.0270eV
 LUMO     10.1     0.184453 =       5.0192eV
 LUMO-HOMO         0.626437 =      17.0462eV

 Orbitals saved in record  2100.2


 **********************************************************************************************************************************
 DATASETS  * FILE   NREC   LENGTH (MB)   RECORD NAMES
              1      18       28.73       500      610      700      900      950      970     1000      129      960     1100   
                                          VAR    BASINP    GEOM    SYMINP    ZMAT    AOBASIS   BASIS     P2S    ABASIS      S 
                                         1400     1410     1200     1210     1080     1600     1650     1700   
                                           T        V       H0       H01     AOSYM     SMH    MOLCAS    OPER   

              2       4        0.47       700     1000      520     2100   
                                         GEOM     BASIS   MCVARS     RHF  

 PROGRAMS   *        TOTAL   RHF-SCF       INT
 CPU TIMES  *         0.47      0.05      0.28
 REAL TIME  *         1.54 SEC
 DISK USED  *        29.40 MB (local),      105.30 MB (total)
 GA USED    *         0.00 MB       (max)       0.00 MB       (current)
 **********************************************************************************************************************************


 PROGRAM * CCSD (Closed-shell coupled cluster)     Authors: C. Hampel, H.-J. Werner, 1991, M. Deegan, P.J. Knowles, 1992


 Convergence thresholds:  THRVAR = 1.00D-08  THRDEN = 1.00D-12

 CCSD(T)     terms to be evaluated (factor= 1.000)


 Number of core orbitals:           2 (   2 )
 Number of closed-shell orbitals:   7 (   7 )
 Number of external orbitals:      39 (  39 )

 Molecular orbitals read from record     2100.2  Type=RHF/CANONICAL  

 Number of N-1 electron functions:               7
 Number of N-2 electron functions:              28
 Number of singly external CSFs:               273
 Number of doubly external CSFs:             37401
 Total number of CSFs:                       37675

 Length of J-op  integral file:               0.00 MB
 Length of K-op  integral file:               0.16 MB
 Length of 3-ext integral record:             0.00 MB

 Memory could be reduced to 0.73 Mwords without degradation in triples

 Integral transformation finished. Total CPU:   0.02 sec, npass=  1  Memory used:   0.66 MW

 Reference energy:                   -115.04939177

 MP2 singlet pair energy:              -0.21830748
 MP2 triplet pair energy:              -0.11978221
 MP2 correlation energy:               -0.33808969
 MP2 total energy:                   -115.38748146

 SCS-MP2 correlation energy:           -0.33650013   (PS=  1.200000  PT=  0.333333)
 SCS-MP2 total energy:               -115.38589190

 ITER.      SQ.NORM     CORR.ENERGY   TOTAL ENERGY   ENERGY CHANGE        DEN1      VAR(S)    VAR(P)  DIIS     TIME  TIME/IT
   1      1.10690881    -0.36090293  -115.41029470    -0.02281324    -0.01419931  0.89D-03  0.17D-02  1  1     0.05     0.04
   2      1.11535382    -0.36283425  -115.41222602    -0.00193132    -0.00919801  0.19D-04  0.16D-03  2  2     0.07     0.03
   3      1.11719040    -0.36295820  -115.41234997    -0.00012394    -0.00118067  0.91D-05  0.84D-05  3  3     0.09     0.04
   4      1.11769074    -0.36295700  -115.41234877     0.00000120    -0.00024922  0.31D-06  0.65D-06  4  4     0.11     0.03
   5      1.11778454    -0.36295745  -115.41234922    -0.00000045    -0.00003474  0.92D-07  0.47D-07  5  5     0.12     0.03
   6      1.11780246    -0.36295617  -115.41234794     0.00000128    -0.00000418  0.15D-07  0.39D-08  6  6     0.14     0.03
   7      1.11780691    -0.36295578  -115.41234755     0.00000039    -0.00000034  0.19D-08  0.67D-09  6  1     0.16     0.04
   8      1.11780810    -0.36295587  -115.41234764    -0.00000010     0.00000071  0.24D-09  0.66D-10  6  3     0.18     0.03
   9      1.11780910    -0.36295576  -115.41234753     0.00000012    -0.00000036  0.12D-10  0.98D-11  6  2     0.20     0.03
  10      1.11780915    -0.36295576  -115.41234753     0.00000000     0.00000000  0.12D-11  0.11D-11  6  4     0.22     0.04
  11      1.11780911    -0.36295575  -115.41234752     0.00000000     0.00000003  0.30D-12  0.78D-13  6  5     0.25     0.03
  12      1.11780907    -0.36295576  -115.41234753    -0.00000000     0.00000003  0.30D-13  0.12D-13  6  6     0.27     0.03
  13      1.11780905    -0.36295576  -115.41234753    -0.00000000     0.00000001  0.35D-14  0.14D-14  6  3     0.29     0.03
  14      1.11780905    -0.36295576  -115.41234753    -0.00000000     0.00000000  0.27D-15  0.13D-15  6  1     0.31     0.03
  15      1.11780905    -0.36295576  -115.41234753     0.00000000    -0.00000000  0.35D-16  0.29D-16  6  2     0.33     0.03
  16      1.11780905    -0.36295576  -115.41234753     0.00000000    -0.00000000  0.28D-17  0.15D-17  6  5     0.34     0.03
  17      1.11780905    -0.36295576  -115.41234753    -0.00000000     0.00000000  0.12D-18  0.11D-18  6  4     0.36     0.03
  18      1.11780905    -0.36295576  -115.41234753     0.00000000    -0.00000000  0.24D-19  0.11D-19  6  3     0.38     0.03
  19      1.11780905    -0.36295576  -115.41234753     0.00000000    -0.00000000  0.24D-20  0.94D-21  6  6     0.40     0.03
  20      1.11780905    -0.36295576  -115.41234753     0.00000000    -0.00000000  0.19D-21  0.13D-21  6  2     0.42     0.03

 Norm of t1 vector:      0.04112215      S-energy:     0.00000000      T1 diagnostic:  0.00777136
                                                                       D1 diagnostic:  0.01692247
                                                                       D2 diagnostic:  0.13404654 (internal)


 Total CPU time for triples:      0.08 sec


 RESULTS
 =======

  Reference energy                   -115.049391770111
  CCSD singlet pair energy             -0.254139605668
  CCSD triplet pair energy             -0.108816154076
  CCSD correlation energy              -0.362955759744

  Triples (T) contribution             -0.007681333974
  Total correlation energy             -0.370637093718

  CCSD total energy                  -115.412347529855
  CCSD[T] energy                     -115.420312705702
  CCSD-T energy                      -115.419881992309
 !CCSD(T) total energy               -115.420028863828

 Timing summary (sec):

 STEP                 CPU(USER)    SYS     CPU(TOT)    WALL
 Transformation          0.02      0.01      0.03      0.04
 CCSD iterations         0.40      0.05      0.45      0.67
 Triples                 0.08      0.00      0.08      0.09

 Program statistics:

 Available memory in ccsd:               999999795
 Min. memory needed in ccsd:                136177
 Max. memory used in ccsd:                  162910
 Max. memory used in cckext:                178997 (20 integral passes)



 **********************************************************************************************************************************
 DATASETS  * FILE   NREC   LENGTH (MB)   RECORD NAMES
              1      19       31.13       500      610      700      900      950      970     1000      129      960     1100   
                                          VAR    BASINP    GEOM    SYMINP    ZMAT    AOBASIS   BASIS     P2S    ABASIS      S 
                                         1400     1410     1200     1210     1080     1600     1650     1700     1380   
                                           T        V       H0       H01     AOSYM     SMH    MOLCAS    OPER     JKOP   

              2       4        0.47       700     1000      520     2100   
                                         GEOM     BASIS   MCVARS     RHF  

 PROGRAMS   *        TOTAL   CCSD(T)   RHF-SCF       INT
 CPU TIMES  *         1.01      0.54      0.05      0.28
 REAL TIME  *         2.41 SEC
 DISK USED  *        35.56 MB (local),      115.96 MB (total)
 SF USED    *         5.97 MB
 GA USED    *         0.00 MB       (max)       0.00 MB       (current)
 **********************************************************************************************************************************

 CCSD(T)/cc-pVDZ energy=   -115.420028863828

         CCSD(T)         RHF-SCF
   -115.42002886   -115.04939177
 **********************************************************************************************************************************
 Molpro calculation terminated
