
 Primary working directories    : /tmp/795519.139.gen4.q
 Secondary working directories  : /tmp/795519.139.gen4.q
 Wavefunction directory         : /home/vulcan/mel64643/wfu/
 Main file repository           : /tmp/795519.139.gen4.q/

 ARCHNAME  : Linux/x86_64
 FC        : /opt/intel/compilers_and_libraries_2016.1.150/linux/bin/intel64/ifort
 FCVERSION : 16.0.1
 BLASLIB   : -mkl
 id        : ccgc

 Nodes     nprocs
 n051         1
 ga_uses_ma=false, calling ma_init with nominal heap.
 GA-space will be limited to   8.0 MW (determined by -G option)

 Using customized tuning parameters: mindgm=10; mindgv=16; mindgc=4; mindgr=1; noblas=0; mincuda=1000; minvec=7
 default implementation of scratch files=df  

 ***,Optimization of min3
 memory,1000,m
 gthresh,energy=1.0d-12,orbital=1.0d-10,oneint=1.0d-16,twoint=1.0d-16,optgrad=1.0d-6,compress=1.0d-13
 geomtyp=xyz
 
  bohr
  geometry = {
  6
  arbitrary comment
  C   -1.3759698113   -0.0243210192    0.0000003918
  O    1.3045737781    0.1202123445    0.0000002609
  H   -2.0781542698    1.9048097765   -0.0000797469
  H   -2.1081560495   -0.9763611447    1.6770458119
  H   -2.1081489288   -0.9764919258   -1.6769738155
  H    1.9421311214   -1.5779801512   -0.0000013122
 }
 
 basis=cc-pvdz
 {rhf;maxit,200}
 {ccsd(t);maxit,200}

 Variables initialized (661), CPU time= 0.01 sec
 Commands  initialized (458), CPU time= 0.00 sec, 486 directives.
 Default parameters read. Elapsed time= 0.05 sec

 Checking input...
 Passed
1


                                         ***  PROGRAM SYSTEM MOLPRO  ***
                         Copyright, University College Cardiff Consultants Limited, 2008

                                    Version 2010.1 linked May 16 2016 07:17:05


 **********************************************************************************************************************************
 LABEL *   Optimization of min3                                                          
 Linux-4.4.3/n051(x86_64) 64 bit mpp version                                             DATE: 24-Oct-22          TIME: 15:43:51  
 **********************************************************************************************************************************

 SHA1:             9e8077add272b0f3cad6f7df79ec5211205f459d
 **********************************************************************************************************************************

 THRESHOLDS:

 ZERO    =  1.00D-12  ONEINT  =  1.00D-16  TWOINT  =  1.00D-16  PREFAC  =  1.00D-14  LOCALI  =  1.00D-09  EORDER  =  1.00D-04
 ENERGY  =  1.00D-12  ETEST   =  0.00D+00  EDENS   =  0.00D+00  THRDEDEF=  1.00D-06  GRADIENT=  1.00D-02  STEP    =  1.00D-03
 ORBITAL =  1.00D-10  CIVEC   =  1.00D-05  COEFF   =  1.00D-04  PRINTCI =  5.00D-02  PUNCHCI =  9.90D+01  OPTGRAD =  1.00D-06
 OPTENERG=  1.00D-06  OPTSTEP =  3.00D-04  THRGRAD =  1.00D-10  COMPRESS=  1.00D-13  VARMIN  =  1.00D-07  VARMAX  =  1.00D-03
 THRDOUB =  0.00D+00  THRDIV  =  1.00D-05  THRRED  =  1.00D-07  THRPSP  =  1.00D+00  THRDC   =  1.00D-10  THRCS   =  1.00D-10
 THRNRM  =  1.00D-08  THREQ   =  0.00D+00  THRDE   =  1.00D+00  THRREF  =  1.00D-05  SPARFAC =  1.00D+00  THRDLP  =  1.00D-07
 THRDIA  =  1.00D-10  THRDLS  =  1.00D-07  THRGPS  =  0.00D+00  THRKEX  =  0.00D+00  THRDIS  =  2.00D-01  THRVAR  =  1.00D-10
 THRLOC  =  1.00D-06  THRGAP  =  1.00D-06  THRLOCT = -1.00D+00  THRGAPT = -1.00D+00  THRORB  =  1.00D-06  THRMLTP =  0.00D+00
 THRCPQCI=  1.00D-10  KEXTA   =  0.00D+00  THRCOARS=  0.00D+00  SYMTOL  =  1.00D-06  GRADTOL =  1.00D-06  THROVL  =  1.00D-08
 THRORTH =  1.00D-08  GRID    =  1.00D-06  GRIDMAX =  1.00D-03  DTMAX   =  0.00D+00

 SETTING GEOMTYP        =    XYZ
 ZUNIT=BOHR
 

 Variable memory set to 1000000000 words,  buffer space   230000 words

 SETTING BASIS          =    CC-PVDZ


 Recomputing integrals since basis changed


 Using spherical harmonics

 Library entry C      S cc-pVDZ              selected for orbital group  1
 Library entry C      P cc-pVDZ              selected for orbital group  1
 Library entry C      D cc-pVDZ              selected for orbital group  1
 Library entry O      S cc-pVDZ              selected for orbital group  2
 Library entry O      P cc-pVDZ              selected for orbital group  2
 Library entry O      D cc-pVDZ              selected for orbital group  2
 Library entry H      S cc-pVDZ              selected for orbital group  3
 Library entry H      P cc-pVDZ              selected for orbital group  3

1PROGRAM * SEWARD (Integral evaluation for generally contracted gaussian basis sets)     Author: Roland Lindh, 1990

 Geometry written to block  1 of record 700


 Point group  C1  



 ATOMIC COORDINATES

 NR  ATOM    CHARGE       X              Y              Z

   1  C       6.00   -1.375969811   -0.024321019    0.000000392
   2  O       8.00    1.304573778    0.120212344    0.000000261
   3  H       1.00   -2.078154270    1.904809777   -0.000079747
   4  H       1.00   -2.108156049   -0.976361145    1.677045812
   5  H       1.00   -2.108148929   -0.976491926   -1.676973816
   6  H       1.00    1.942131121   -1.577980151   -0.000001312

 Bond lengths in Bohr (Angstrom)

 1-2  2.684437339  1-3  2.052951204  1-4  2.062755058  1-5  2.062754999  2-6  1.813928642
     ( 1.420543059)     ( 1.086374988)     ( 1.091562964)     ( 1.091562933)     ( 0.959889696)

 Bond angles

  1-2-6  107.49142113   2-1-3  106.91463699   2-1-4  112.28973820   2-1-5  112.28973189

  3-1-4  108.19941268   3-1-5  108.19924953   4-1-5  108.77921117

 NUCLEAR CHARGE:                   18
 NUMBER OF PRIMITIVE AOS:          82
 NUMBER OF SYMMETRY AOS:           80
 NUMBER OF CONTRACTIONS:           48   (  48A   )
 NUMBER OF CORE ORBITALS:           2   (   2A   )
 NUMBER OF VALENCE ORBITALS:       12   (  12A   )


 NUCLEAR REPULSION ENERGY   40.34161254


 Eigenvalues of metric

         1 0.964E-02 0.176E-01 0.365E-01 0.371E-01 0.381E-01 0.472E-01 0.472E-01 0.515E-01


 Contracted 2-electron integrals neglected if value below      1.0D-16
 AO integral compression algorithm  1   Integral accuracy      1.0D-16

     6.554 MB (compressed) written to integral file ( 94.5%)

     Node minimum: 6.554 MB, node maximum: 6.554 MB


 NUMBER OF SORTED TWO-ELECTRON INTEGRALS:     692076.     BUFFER LENGTH:  32768
 NUMBER OF SEGMENTS:   1  SEGMENT LENGTH:     692076      RECORD LENGTH: 524288

 Memory used in sort:       1.25 MW

 SORT1 READ      832256. AND WROTE      682147. INTEGRALS IN      2 RECORDS. CPU TIME:     0.01 SEC, REAL TIME:     0.01 SEC
 SORT2 READ      682147. AND WROTE      692076. INTEGRALS IN     25 RECORDS. CPU TIME:     0.01 SEC, REAL TIME:     0.02 SEC

 FILE SIZES:   FILE 1:     8.0 MBYTE,  FILE 4:     8.4 MBYTE,   TOTAL:     16.4 MBYTE

 OPERATOR DM      FOR CENTER  0  COORDINATES:    0.000000    0.000000    0.000000


 **********************************************************************************************************************************
 DATASETS  * FILE   NREC   LENGTH (MB)   RECORD NAMES
              1      19        8.03       500      610      700      900      950      970     1000      129      960     1100   
                                          VAR    BASINP    GEOM    SYMINP    ZMAT    AOBASIS   BASIS     P2S    ABASIS      S 
                                         1400     1410     1200     1210     1080     1600     1650     1300     1700   
                                           T        V       H0       H01     AOSYM     SMH    MOLCAS    ERIS     OPER   

 PROGRAMS   *        TOTAL       INT
 CPU TIMES  *         0.23      0.18
 REAL TIME  *         0.61 SEC
 DISK USED  *        23.60 MB      
 GA USED    *         0.00 MB       (max)       0.00 MB       (current)
 **********************************************************************************************************************************

1PROGRAM * RHF-SCF (CLOSED SHELL)       Authors: W. Meyer, H.-J. Werner


 NUMBER OF ELECTRONS:       9+    9-    SPACE SYMMETRY=1    SPIN SYMMETRY: Singlet 
 CONVERGENCE THRESHOLDS:    1.00E-10 (Density)    1.00E-13 (Energy)
 MAX. NUMBER OF ITERATIONS:      200
 INTERPOLATION TYPE:            DIIS
 INTERPOLATION STEPS:              2 (START)      1 (STEP)
 LEVEL SHIFTS:                  0.00 (CLOSED)  0.00 (OPEN) 



 Orbital guess generated from atomic densities. Full valence occupancy:   14

 Molecular orbital dump at record        2100.2

 ITERATION    DDIFF          GRAD             ENERGY        2-EL.EN.            DIPOLE MOMENTS         DIIS
    1      0.000D+00      0.000D+00      -115.01426127    164.457915   -0.49340   -0.90071   -0.00000    0
    2      0.000D+00      0.109D-01      -115.04261148    162.232928   -0.31715   -0.53620   -0.00000    1
    3      0.205D-01      0.528D-02      -115.04861271    163.259592   -0.40054   -0.61123   -0.00000    2
    4      0.638D-02      0.112D-02      -115.04907660    163.103144   -0.39062   -0.60008   -0.00000    3
    5      0.204D-02      0.202D-03      -115.04909762    163.109346   -0.39353   -0.59579   -0.00000    4
    6      0.432D-03      0.356D-04      -115.04909842    163.109647   -0.39386   -0.59559   -0.00000    5
    7      0.934D-04      0.751D-05      -115.04909845    163.108405   -0.39400   -0.59542   -0.00000    6
    8      0.152D-04      0.243D-05      -115.04909846    163.108788   -0.39404   -0.59539   -0.00000    7
    9      0.520D-05      0.494D-06      -115.04909846    163.108750   -0.39406   -0.59539   -0.00000    6
   10      0.142D-05      0.893D-07      -115.04909846    163.108748   -0.39406   -0.59539   -0.00000    6
   11      0.239D-06      0.332D-07      -115.04909846    163.108754   -0.39406   -0.59539   -0.00000    6
   12      0.601D-07      0.140D-07      -115.04909846    163.108752   -0.39406   -0.59539   -0.00000    7
   13      0.262D-07      0.309D-08      -115.04909846    163.108752   -0.39406   -0.59539   -0.00000    7
   14      0.769D-08      0.651D-09      -115.04909846    163.108752   -0.39406   -0.59539   -0.00000    7
   15      0.166D-08      0.151D-09      -115.04909846    163.108752   -0.39406   -0.59539   -0.00000    7
   16      0.336D-09      0.458D-10      -115.04909846    163.108752   -0.39406   -0.59539   -0.00000    7
   17      0.875D-10      0.150D-10      -115.04909846    163.108752   -0.39406   -0.59539   -0.00000    0

 Final occupancy:   9

 !RHF STATE 1.1 Energy               -115.049098457443
 Nuclear energy                        40.34161254
 One-electron energy                 -236.94508705
 Two-electron energy                   81.55437605
 Virial quotient                       -1.00081863
 !RHF STATE 1.1 Dipole moment          -0.39406097    -0.59539191    -0.00000275
 Dipole moment /Debye                  -1.00153747    -1.51323618    -0.00000699

 Orbital energies:

         1.1          2.1          3.1          4.1          5.1          6.1          7.1          8.1          9.1         10.1
    -20.549737   -11.273640    -1.349682    -0.922228    -0.682919    -0.614300    -0.585190    -0.497239    -0.443233     0.184745

        11.1
      0.224518


 **********************************************************************************************************************************
 DATASETS  * FILE   NREC   LENGTH (MB)   RECORD NAMES
              1      19        8.03       500      610      700      900      950      970     1000      129      960     1100   
                                          VAR    BASINP    GEOM    SYMINP    ZMAT    AOBASIS   BASIS     P2S    ABASIS      S 
                                         1400     1410     1200     1210     1080     1600     1650     1300     1700   
                                           T        V       H0       H01     AOSYM     SMH    MOLCAS    ERIS     OPER   

              2       3        0.39       700     1000     2100   
                                         GEOM     BASIS     RHF  

 PROGRAMS   *        TOTAL       RHF       INT
 CPU TIMES  *         0.31      0.08      0.18
 REAL TIME  *         0.73 SEC
 DISK USED  *        23.60 MB      
 GA USED    *         0.00 MB       (max)       0.00 MB       (current)
 **********************************************************************************************************************************


1PROGRAM * CCSD (Closed-shell coupled cluster)     Authors: C. Hampel, H.-J. Werner, 1991, M. Deegan, P.J. Knowles, 1992


 Convergence thresholds:  THRVAR = 1.00D-08  THRDEN = 1.00D-12

 CCSD(T)     terms to be evaluated (factor= 1.000)


 Number of core orbitals:           2 (   2 )
 Number of closed-shell orbitals:   7 (   7 )
 Number of external orbitals:      39 (  39 )

 Molecular orbitals read from record     2100.2  Type=RHF/CANONICAL (state 1.1)

 Number of N-1 electron functions:               7
 Number of N-2 electron functions:              28
 Number of singly external CSFs:               273
 Number of doubly external CSFs:             37401
 Total number of CSFs:                       37675

 Length of J-op  integral file:               0.00 MB
 Length of K-op  integral file:               0.19 MB
 Length of 3-ext integral record:             0.00 MB

 Memory could be reduced to 0.96 Mwords without degradation in triples

 Integral transformation finished. Total CPU:   0.01 sec, npass=  1  Memory used:   0.66 MW

 Reference energy:                   -115.04909846

 MP2 singlet pair energy:              -0.21852857
 MP2 triplet pair energy:              -0.11981967
 MP2 correlation energy:               -0.33834824
 MP2 total energy:                   -115.38744670

 SCS-MP2 correlation energy:           -0.33678874   (PS=  1.200000  PT=  0.333333)
 SCS-MP2 total energy:               -115.38588720

 ITER.      SQ.NORM     CORR.ENERGY   TOTAL ENERGY   ENERGY CHANGE        DEN1      VAR(S)    VAR(P)  DIIS     TIME
   1      1.10715972    -0.36112934  -115.41022779    -0.02278110    -0.01412009  0.91D-03  0.17D-02  1  1     0.05
   2      1.11565126    -0.36306800  -115.41216645    -0.00193866    -0.00923151  0.20D-04  0.16D-03  2  2     0.08
   3      1.11751975    -0.36319416  -115.41229261    -0.00012616    -0.00119808  0.94D-05  0.85D-05  3  3     0.12
   4      1.11803122    -0.36319278  -115.41229124     0.00000137    -0.00025339  0.34D-06  0.67D-06  4  4     0.16
   5      1.11812865    -0.36319317  -115.41229163    -0.00000039    -0.00003584  0.99D-07  0.48D-07  5  5     0.20
   6      1.11814758    -0.36319181  -115.41229027     0.00000136    -0.00000432  0.16D-07  0.41D-08  6  6     0.24
   7      1.11815234    -0.36319140  -115.41228986     0.00000042    -0.00000035  0.20D-08  0.72D-09  6  1     0.28
   8      1.11815362    -0.36319150  -115.41228996    -0.00000010     0.00000075  0.25D-09  0.72D-10  6  3     0.31
   9      1.11815467    -0.36319138  -115.41228983     0.00000012    -0.00000038  0.13D-10  0.10D-10  6  2     0.35
  10      1.11815473    -0.36319138  -115.41228983     0.00000000     0.00000000  0.13D-11  0.12D-11  6  4     0.39
  11      1.11815468    -0.36319137  -115.41228983     0.00000000     0.00000003  0.33D-12  0.84D-13  6  5     0.42
  12      1.11815464    -0.36319138  -115.41228984    -0.00000000     0.00000003  0.33D-13  0.13D-13  6  6     0.47
  13      1.11815462    -0.36319138  -115.41228984    -0.00000000     0.00000001  0.37D-14  0.15D-14  6  3     0.51
  14      1.11815462    -0.36319138  -115.41228984    -0.00000000     0.00000000  0.28D-15  0.14D-15  6  1     0.55
  15      1.11815462    -0.36319138  -115.41228984     0.00000000    -0.00000000  0.35D-16  0.31D-16  6  2     0.58
  16      1.11815462    -0.36319138  -115.41228984     0.00000000    -0.00000000  0.30D-17  0.16D-17  6  5     0.62
  17      1.11815462    -0.36319138  -115.41228984    -0.00000000     0.00000000  0.13D-18  0.12D-18  6  4     0.66
  18      1.11815462    -0.36319138  -115.41228984     0.00000000    -0.00000000  0.26D-19  0.12D-19  6  3     0.70
  19      1.11815462    -0.36319138  -115.41228984     0.00000000    -0.00000000  0.25D-20  0.10D-20  6  6     0.74

 Norm of t1 vector:      0.04159992      S-energy:    -0.00000000      T1 diagnostic:  0.00786165
                                                                       D1 diagnostic:  0.01753043


 Total CPU time for triples:      0.20 sec


 RESULTS
 =======

  Reference energy                   -115.049098457443
  CCSD singlet pair energy             -0.254429184404
  CCSD triplet pair energy             -0.108762194787
  CCSD correlation energy              -0.363191379193

  Triples (T) contribution             -0.007721304561
  Total correlation energy             -0.370912683754

  CCSD total energy                  -115.412289836636
  CCSD[T] energy                     -115.420299556772
  CCSD-T energy                      -115.419862001699
 !CCSD(T) total energy               -115.420011141197

 Timing summary (sec):

 STEP                 CPU(USER)    SYS     CPU(TOT)    WALL
 Transformation          0.01      0.00      0.01      0.02
 CCSD iterations         0.73      0.06      0.79      0.82
 Triples                 0.20      0.00      0.20      0.21

 Program statistics:

 Available memory in ccsd:               999999704
 Min. memory needed in ccsd:                136801
 Max. memory used in ccsd:                  163198
 Max. memory used in cckext:                182024 (19 integral passes)



 **********************************************************************************************************************************
 DATASETS  * FILE   NREC   LENGTH (MB)   RECORD NAMES
              1      20       10.57       500      610      700      900      950      970     1000      129      960     1100   
                                          VAR    BASINP    GEOM    SYMINP    ZMAT    AOBASIS   BASIS     P2S    ABASIS      S 
                                         1400     1410     1200     1210     1080     1600     1650     1300     1700     1380   
                                           T        V       H0       H01     AOSYM     SMH    MOLCAS    ERIS     OPER     JKOP   

              2       3        0.39       700     1000     2100   
                                         GEOM     BASIS     RHF  

 PROGRAMS   *        TOTAL   CCSD(T)       RHF       INT
 CPU TIMES  *         1.27      0.96      0.08      0.18
 REAL TIME  *         3.78 SEC
 DISK USED  *        25.03 MB      
 GA USED    *         0.00 MB       (max)       0.00 MB       (current)
 **********************************************************************************************************************************

        CCSD(T)         RHF-SCF 
   -115.42001114   -115.04909846
 **********************************************************************************************************************************
 Variable memory released
