
 Primary working directories    : /tmp/795519.146.gen4.q
 Secondary working directories  : /tmp/795519.146.gen4.q
 Wavefunction directory         : /home/vulcan/mel64643/wfu/
 Main file repository           : /tmp/795519.146.gen4.q/

 ARCHNAME  : Linux/x86_64
 FC        : /opt/intel/compilers_and_libraries_2016.1.150/linux/bin/intel64/ifort
 FCVERSION : 16.0.1
 BLASLIB   : -mkl
 id        : ccgc

 Nodes     nprocs
 n046         1
 ga_uses_ma=false, calling ma_init with nominal heap.
 GA-space will be limited to   8.0 MW (determined by -G option)

 Using customized tuning parameters: mindgm=10; mindgv=16; mindgc=4; mindgr=1; noblas=0; mincuda=1000; minvec=7
 default implementation of scratch files=df  

 ***,Optimization of min3
 memory,1000,m
 gthresh,energy=1.0d-12,orbital=1.0d-10,oneint=1.0d-16,twoint=1.0d-16,optgrad=1.0d-6,compress=1.0d-13
 geomtyp=xyz
 
  bohr
  geometry = {
  6
  arbitrary comment
  C   -1.3750701477   -0.0242787557    0.0008241078
  O    1.3060182495    0.1207001631   -0.0015462073
  H   -2.0778764320    1.9096089409    0.0008457631
  H   -2.1156488818   -0.9779667887    1.6840536235
  H   -2.1023216596   -0.9807033771   -1.6798004171
  H    1.9411747116   -1.5774923026   -0.0043852800
 }
 
 basis=cc-pvdz
 {rhf;maxit,200}
 {ccsd(t);maxit,200}

 Variables initialized (661), CPU time= 0.01 sec
 Commands  initialized (458), CPU time= 0.00 sec, 486 directives.
 Default parameters read. Elapsed time= 0.06 sec

 Checking input...
 Passed
1


                                         ***  PROGRAM SYSTEM MOLPRO  ***
                         Copyright, University College Cardiff Consultants Limited, 2008

                                    Version 2010.1 linked May 16 2016 07:17:05


 **********************************************************************************************************************************
 LABEL *   Optimization of min3                                                          
 Linux-4.4.3/n046(x86_64) 64 bit mpp version                                             DATE: 24-Oct-22          TIME: 15:44:06  
 **********************************************************************************************************************************

 SHA1:             9e8077add272b0f3cad6f7df79ec5211205f459d
 **********************************************************************************************************************************

 THRESHOLDS:

 ZERO    =  1.00D-12  ONEINT  =  1.00D-16  TWOINT  =  1.00D-16  PREFAC  =  1.00D-14  LOCALI  =  1.00D-09  EORDER  =  1.00D-04
 ENERGY  =  1.00D-12  ETEST   =  0.00D+00  EDENS   =  0.00D+00  THRDEDEF=  1.00D-06  GRADIENT=  1.00D-02  STEP    =  1.00D-03
 ORBITAL =  1.00D-10  CIVEC   =  1.00D-05  COEFF   =  1.00D-04  PRINTCI =  5.00D-02  PUNCHCI =  9.90D+01  OPTGRAD =  1.00D-06
 OPTENERG=  1.00D-06  OPTSTEP =  3.00D-04  THRGRAD =  1.00D-10  COMPRESS=  1.00D-13  VARMIN  =  1.00D-07  VARMAX  =  1.00D-03
 THRDOUB =  0.00D+00  THRDIV  =  1.00D-05  THRRED  =  1.00D-07  THRPSP  =  1.00D+00  THRDC   =  1.00D-10  THRCS   =  1.00D-10
 THRNRM  =  1.00D-08  THREQ   =  0.00D+00  THRDE   =  1.00D+00  THRREF  =  1.00D-05  SPARFAC =  1.00D+00  THRDLP  =  1.00D-07
 THRDIA  =  1.00D-10  THRDLS  =  1.00D-07  THRGPS  =  0.00D+00  THRKEX  =  0.00D+00  THRDIS  =  2.00D-01  THRVAR  =  1.00D-10
 THRLOC  =  1.00D-06  THRGAP  =  1.00D-06  THRLOCT = -1.00D+00  THRGAPT = -1.00D+00  THRORB  =  1.00D-06  THRMLTP =  0.00D+00
 THRCPQCI=  1.00D-10  KEXTA   =  0.00D+00  THRCOARS=  0.00D+00  SYMTOL  =  1.00D-06  GRADTOL =  1.00D-06  THROVL  =  1.00D-08
 THRORTH =  1.00D-08  GRID    =  1.00D-06  GRIDMAX =  1.00D-03  DTMAX   =  0.00D+00

 SETTING GEOMTYP        =    XYZ
 ZUNIT=BOHR
 

 Variable memory set to 1000000000 words,  buffer space   230000 words

 SETTING BASIS          =    CC-PVDZ


 Recomputing integrals since basis changed


 Using spherical harmonics

 Library entry C      S cc-pVDZ              selected for orbital group  1
 Library entry C      P cc-pVDZ              selected for orbital group  1
 Library entry C      D cc-pVDZ              selected for orbital group  1
 Library entry O      S cc-pVDZ              selected for orbital group  2
 Library entry O      P cc-pVDZ              selected for orbital group  2
 Library entry O      D cc-pVDZ              selected for orbital group  2
 Library entry H      S cc-pVDZ              selected for orbital group  3
 Library entry H      P cc-pVDZ              selected for orbital group  3

1PROGRAM * SEWARD (Integral evaluation for generally contracted gaussian basis sets)     Author: Roland Lindh, 1990

 Geometry written to block  1 of record 700


 Point group  C1  



 ATOMIC COORDINATES

 NR  ATOM    CHARGE       X              Y              Z

   1  C       6.00   -1.375070148   -0.024278756    0.000824108
   2  O       8.00    1.306018249    0.120700163   -0.001546207
   3  H       1.00   -2.077876432    1.909608941    0.000845763
   4  H       1.00   -2.115648882   -0.977966789    1.684053624
   5  H       1.00   -2.102321660   -0.980703377   -1.679800417
   6  H       1.00    1.941174712   -1.577492303   -0.004385280

 Bond lengths in Bohr (Angstrom)

 1-2  2.685006424  1-3  2.057634150  1-4  2.071530673  1-5  2.065948114  2-6  1.813088371
     ( 1.420844206)     ( 1.088853097)     ( 1.096206820)     ( 1.093252657)     ( 0.959445044)

 Bond angles

  1-2-6  107.41157742   2-1-3  106.87672792   2-1-4  112.49217574   2-1-5  112.07275470

  3-1-4  108.09380977   3-1-5  108.35347432   4-1-5  108.78538705

 NUCLEAR CHARGE:                   18
 NUMBER OF PRIMITIVE AOS:          82
 NUMBER OF SYMMETRY AOS:           80
 NUMBER OF CONTRACTIONS:           48   (  48A   )
 NUMBER OF CORE ORBITALS:           2   (   2A   )
 NUMBER OF VALENCE ORBITALS:       12   (  12A   )


 NUCLEAR REPULSION ENERGY   40.30777237


 Eigenvalues of metric

         1 0.966E-02 0.176E-01 0.368E-01 0.374E-01 0.381E-01 0.474E-01 0.478E-01 0.517E-01


 Contracted 2-electron integrals neglected if value below      1.0D-16
 AO integral compression algorithm  1   Integral accuracy      1.0D-16

     6.816 MB (compressed) written to integral file (100.0%)

     Node minimum: 6.816 MB, node maximum: 6.816 MB


 NUMBER OF SORTED TWO-ELECTRON INTEGRALS:     692076.     BUFFER LENGTH:  32768
 NUMBER OF SEGMENTS:   1  SEGMENT LENGTH:     692076      RECORD LENGTH: 524288

 Memory used in sort:       1.25 MW

 SORT1 READ      832256. AND WROTE      682150. INTEGRALS IN      2 RECORDS. CPU TIME:     0.01 SEC, REAL TIME:     0.01 SEC
 SORT2 READ      682150. AND WROTE      692076. INTEGRALS IN     26 RECORDS. CPU TIME:     0.01 SEC, REAL TIME:     0.02 SEC

 FILE SIZES:   FILE 1:     8.4 MBYTE,  FILE 4:     8.4 MBYTE,   TOTAL:     16.8 MBYTE

 OPERATOR DM      FOR CENTER  0  COORDINATES:    0.000000    0.000000    0.000000


 **********************************************************************************************************************************
 DATASETS  * FILE   NREC   LENGTH (MB)   RECORD NAMES
              1      19        8.41       500      610      700      900      950      970     1000      129      960     1100   
                                          VAR    BASINP    GEOM    SYMINP    ZMAT    AOBASIS   BASIS     P2S    ABASIS      S 
                                         1400     1410     1200     1210     1080     1600     1650     1300     1700   
                                           T        V       H0       H01     AOSYM     SMH    MOLCAS    ERIS     OPER   

 PROGRAMS   *        TOTAL       INT
 CPU TIMES  *         0.22      0.17
 REAL TIME  *         0.42 SEC
 DISK USED  *        24.24 MB      
 GA USED    *         0.00 MB       (max)       0.00 MB       (current)
 **********************************************************************************************************************************

1PROGRAM * RHF-SCF (CLOSED SHELL)       Authors: W. Meyer, H.-J. Werner


 NUMBER OF ELECTRONS:       9+    9-    SPACE SYMMETRY=1    SPIN SYMMETRY: Singlet 
 CONVERGENCE THRESHOLDS:    1.00E-10 (Density)    1.00E-13 (Energy)
 MAX. NUMBER OF ITERATIONS:      200
 INTERPOLATION TYPE:            DIIS
 INTERPOLATION STEPS:              2 (START)      1 (STEP)
 LEVEL SHIFTS:                  0.00 (CLOSED)  0.00 (OPEN) 



 Orbital guess generated from atomic densities. Full valence occupancy:   14

 Molecular orbital dump at record        2100.2

 ITERATION    DDIFF          GRAD             ENERGY        2-EL.EN.            DIPOLE MOMENTS         DIIS
    1      0.000D+00      0.000D+00      -115.01423053    164.387993   -0.49498   -0.90068    0.00039    0
    2      0.000D+00      0.110D-01      -115.04258825    162.169747   -0.31638   -0.53561   -0.00111    1
    3      0.205D-01      0.530D-02      -115.04861950    163.194318   -0.40009   -0.61077   -0.00103    2
    4      0.639D-02      0.112D-02      -115.04908307    163.038208   -0.38996   -0.59966   -0.00119    3
    5      0.204D-02      0.202D-03      -115.04910406    163.044620   -0.39278   -0.59537   -0.00123    4
    6      0.433D-03      0.354D-04      -115.04910486    163.044773   -0.39309   -0.59517   -0.00125    5
    7      0.930D-04      0.736D-05      -115.04910489    163.043584   -0.39322   -0.59500   -0.00125    6
    8      0.150D-04      0.237D-05      -115.04910489    163.043966   -0.39326   -0.59498   -0.00125    7
    9      0.504D-05      0.490D-06      -115.04910489    163.043925   -0.39327   -0.59498   -0.00125    6
   10      0.141D-05      0.872D-07      -115.04910489    163.043924   -0.39327   -0.59498   -0.00125    6
   11      0.234D-06      0.326D-07      -115.04910489    163.043930   -0.39328   -0.59498   -0.00125    6
   12      0.589D-07      0.136D-07      -115.04910489    163.043928   -0.39328   -0.59498   -0.00125    7
   13      0.252D-07      0.303D-08      -115.04910489    163.043928   -0.39328   -0.59498   -0.00125    7
   14      0.754D-08      0.651D-09      -115.04910489    163.043928   -0.39328   -0.59498   -0.00125    7
   15      0.166D-08      0.151D-09      -115.04910489    163.043928   -0.39328   -0.59498   -0.00125    7
   16      0.336D-09      0.455D-10      -115.04910489    163.043928   -0.39328   -0.59498   -0.00125    7
   17      0.879D-10      0.151D-10      -115.04910489    163.043928   -0.39328   -0.59498   -0.00125    0

 Final occupancy:   9

 !RHF STATE 1.1 Energy               -115.049104893446
 Nuclear energy                        40.30777237
 One-electron energy                 -236.87884120
 Two-electron energy                   81.52196393
 Virial quotient                       -1.00092542
 !RHF STATE 1.1 Dipole moment          -0.39327554    -0.59497666    -0.00124763
 Dipole moment /Debye                  -0.99954126    -1.51218077    -0.00317094

 Orbital energies:

         1.1          2.1          3.1          4.1          5.1          6.1          7.1          8.1          9.1         10.1
    -20.549944   -11.274705    -1.349890    -0.921305    -0.682805    -0.613711    -0.584890    -0.497098    -0.443109     0.184568

        11.1
      0.224401


 **********************************************************************************************************************************
 DATASETS  * FILE   NREC   LENGTH (MB)   RECORD NAMES
              1      19        8.41       500      610      700      900      950      970     1000      129      960     1100   
                                          VAR    BASINP    GEOM    SYMINP    ZMAT    AOBASIS   BASIS     P2S    ABASIS      S 
                                         1400     1410     1200     1210     1080     1600     1650     1300     1700   
                                           T        V       H0       H01     AOSYM     SMH    MOLCAS    ERIS     OPER   

              2       3        0.39       700     1000     2100   
                                         GEOM     BASIS     RHF  

 PROGRAMS   *        TOTAL       RHF       INT
 CPU TIMES  *         0.31      0.09      0.17
 REAL TIME  *         0.55 SEC
 DISK USED  *        24.24 MB      
 GA USED    *         0.00 MB       (max)       0.00 MB       (current)
 **********************************************************************************************************************************


1PROGRAM * CCSD (Closed-shell coupled cluster)     Authors: C. Hampel, H.-J. Werner, 1991, M. Deegan, P.J. Knowles, 1992


 Convergence thresholds:  THRVAR = 1.00D-08  THRDEN = 1.00D-12

 CCSD(T)     terms to be evaluated (factor= 1.000)


 Number of core orbitals:           2 (   2 )
 Number of closed-shell orbitals:   7 (   7 )
 Number of external orbitals:      39 (  39 )

 Molecular orbitals read from record     2100.2  Type=RHF/CANONICAL (state 1.1)

 Number of N-1 electron functions:               7
 Number of N-2 electron functions:              28
 Number of singly external CSFs:               273
 Number of doubly external CSFs:             37401
 Total number of CSFs:                       37675

 Length of J-op  integral file:               0.00 MB
 Length of K-op  integral file:               0.19 MB
 Length of 3-ext integral record:             0.00 MB

 Memory could be reduced to 0.96 Mwords without degradation in triples

 Integral transformation finished. Total CPU:   0.02 sec, npass=  1  Memory used:   0.66 MW

 Reference energy:                   -115.04910489

 MP2 singlet pair energy:              -0.21864893
 MP2 triplet pair energy:              -0.11983721
 MP2 correlation energy:               -0.33848614
 MP2 total energy:                   -115.38759103

 SCS-MP2 correlation energy:           -0.33694409   (PS=  1.200000  PT=  0.333333)
 SCS-MP2 total energy:               -115.38604898

 ITER.      SQ.NORM     CORR.ENERGY   TOTAL ENERGY   ENERGY CHANGE        DEN1      VAR(S)    VAR(P)  DIIS     TIME
   1      1.10733696    -0.36128546  -115.41039035    -0.02279932    -0.01411773  0.91D-03  0.17D-02  1  1     0.05
   2      1.11586455    -0.36323085  -115.41233574    -0.00194539    -0.00925137  0.20D-04  0.16D-03  2  2     0.09
   3      1.11774728    -0.36335828  -115.41246317    -0.00012742    -0.00120479  0.95D-05  0.86D-05  3  3     0.13
   4      1.11826292    -0.36335693  -115.41246182     0.00000135    -0.00025510  0.34D-06  0.68D-06  4  4     0.16
   5      1.11836122    -0.36335733  -115.41246222    -0.00000041    -0.00003610  0.10D-06  0.49D-07  5  5     0.20
   6      1.11838033    -0.36335597  -115.41246087     0.00000136    -0.00000437  0.16D-07  0.41D-08  6  6     0.24
   7      1.11838510    -0.36335555  -115.41246045     0.00000042    -0.00000035  0.20D-08  0.72D-09  6  1     0.28
   8      1.11838637    -0.36335565  -115.41246055    -0.00000010     0.00000075  0.26D-09  0.72D-10  6  3     0.32
   9      1.11838743    -0.36335553  -115.41246042     0.00000012    -0.00000038  0.13D-10  0.10D-10  6  2     0.36
  10      1.11838736    -0.36335553  -115.41246043    -0.00000000     0.00000007  0.11D-11  0.88D-12  6  5     0.40
  11      1.11838739    -0.36335553  -115.41246042     0.00000000    -0.00000000  0.19D-12  0.51D-13  6  4     0.44
  12      1.11838738    -0.36335553  -115.41246043    -0.00000000     0.00000001  0.19D-13  0.10D-13  6  1     0.48
  13      1.11838738    -0.36335553  -115.41246043    -0.00000000    -0.00000000  0.24D-14  0.94D-15  6  6     0.52
  14      1.11838738    -0.36335553  -115.41246043     0.00000000    -0.00000000  0.22D-15  0.12D-15  6  3     0.56
  15      1.11838738    -0.36335553  -115.41246043    -0.00000000    -0.00000000  0.25D-16  0.16D-16  6  2     0.60
  16      1.11838738    -0.36335553  -115.41246043    -0.00000000    -0.00000000  0.57D-17  0.16D-17  6  5     0.64
  17      1.11838738    -0.36335553  -115.41246043    -0.00000000    -0.00000000  0.55D-18  0.25D-18  6  4     0.67
  18      1.11838738    -0.36335553  -115.41246043     0.00000000    -0.00000000  0.87D-19  0.43D-19  6  1     0.71
  19      1.11838738    -0.36335553  -115.41246043    -0.00000000    -0.00000000  0.11D-19  0.44D-20  6  6     0.75
  20      1.11838738    -0.36335553  -115.41246043     0.00000000     0.00000000  0.16D-20  0.60D-21  6  3     0.79

 Norm of t1 vector:      0.04167170      S-energy:    -0.00000000      T1 diagnostic:  0.00787521
                                                                       D1 diagnostic:  0.01752055


 Total CPU time for triples:      0.21 sec


 RESULTS
 =======

  Reference energy                   -115.049104893447
  CCSD singlet pair energy             -0.254604646894
  CCSD triplet pair energy             -0.108750886178
  CCSD correlation energy              -0.363355533072

  Triples (T) contribution             -0.007738691305
  Total correlation energy             -0.371094224378

  CCSD total energy                  -115.412460426519
  CCSD[T] energy                     -115.420489206854
  CCSD-T energy                      -115.420049101252
 !CCSD(T) total energy               -115.420199117824

 Timing summary (sec):

 STEP                 CPU(USER)    SYS     CPU(TOT)    WALL
 Transformation          0.02      0.01      0.03      0.02
 CCSD iterations         0.77      0.04      0.81      0.87
 Triples                 0.21      0.01      0.22      0.21

 Program statistics:

 Available memory in ccsd:               999999704
 Min. memory needed in ccsd:                136801
 Max. memory used in ccsd:                  163198
 Max. memory used in cckext:                182024 (20 integral passes)



 **********************************************************************************************************************************
 DATASETS  * FILE   NREC   LENGTH (MB)   RECORD NAMES
              1      20       10.94       500      610      700      900      950      970     1000      129      960     1100   
                                          VAR    BASINP    GEOM    SYMINP    ZMAT    AOBASIS   BASIS     P2S    ABASIS      S 
                                         1400     1410     1200     1210     1080     1600     1650     1300     1700     1380   
                                           T        V       H0       H01     AOSYM     SMH    MOLCAS    ERIS     OPER     JKOP   

              2       3        0.39       700     1000     2100   
                                         GEOM     BASIS     RHF  

 PROGRAMS   *        TOTAL   CCSD(T)       RHF       INT
 CPU TIMES  *         1.32      1.01      0.09      0.17
 REAL TIME  *         1.68 SEC
 DISK USED  *        25.67 MB      
 GA USED    *         0.00 MB       (max)       0.00 MB       (current)
 **********************************************************************************************************************************

        CCSD(T)         RHF-SCF 
   -115.42019912   -115.04910489
 **********************************************************************************************************************************
 Variable memory released
