
    -----------------------------------------------------------------------
          Psi4: An Open-Source Ab Initio Electronic Structure Package
                               Psi4 1.4a2.dev629 

                         Git: Rev {master} 2938fc2 dirty


    D. G. A. Smith, L. A. Burns, A. C. Simmonett, R. M. Parrish,
    M. C. Schieber, R. Galvelis, P. Kraus, H. Kruse, R. Di Remigio,
    A. Alenaizan, A. M. James, S. Lehtola, J. P. Misiewicz, M. Scheurer,
    R. A. Shaw, J. B. Schriber, Y. Xie, Z. L. Glick, D. A. Sirianni,
    J. S. O'Brien, J. M. Waldrop, A. Kumar, E. G. Hohenstein,
    B. P. Pritchard, B. R. Brooks, H. F. Schaefer III, A. Yu. Sokolov,
    K. Patkowski, A. E. DePrince III, U. Bozkaya, R. A. King,
    F. A. Evangelista, J. M. Turney, T. D. Crawford, C. D. Sherrill,
    J. Chem. Phys. 152(18) 184108 (2020). https://doi.org/10.1063/5.0006002

                            Additional Code Authors
    E. T. Seidl, C. L. Janssen, E. F. Valeev, M. L. Leininger,
    J. F. Gonthier, R. M. Richard, H. R. McAlexander, M. Saitow, X. Wang,
    P. Verma, and M. H. Lechner

             Previous Authors, Complete List of Code Contributors,
                       and Citations for Specific Modules
    https://github.com/psi4/psi4/blob/master/codemeta.json
    https://github.com/psi4/psi4/graphs/contributors
    http://psicode.org/psi4manual/master/introduction.html#citing-psifour

    -----------------------------------------------------------------------


    Psi4 started on: Wednesday, 21 September 2022 04:06PM

    Process ID: 86597
    Host:       n071
    PSIDATADIR: /opt/psi/4/master/share/psi4
    Memory:     500.0 MiB
    Threads:    1
    
  ==> Input File <==

--------------------------------------------------------------------------
# o-Benzyne preliminary computations

memory 14 gb

molecule {
  0 1
  units bohr
 C   -1.3758633513   -0.0217760437    0.0000002822
 O    1.3060725544    0.1199271368    0.0000002968
 H   -2.0777789359    1.9093720648   -0.0000799082
 H   -2.1086859489   -0.9800620358    1.6817600589
 H   -2.1086788628   -0.9801932457   -1.6816878244
 H    1.9412103845   -1.5773999963   -0.0000013153
  no_reorient
  no_com
}

set {
  basis 6-31g*
  reference rhf
  e_convergence 10 
  d_convergence 10
  r_convergence 8
  maxiter 300
  dft_spherical_points 1202
  dft_radial_points 99
  freeze_core True
}


#gradient('ccsd(t)')
gradient('b3lyp')
--------------------------------------------------------------------------

  Memory set to  13.039 GiB by Python driver.

Scratch directory: /tmp/
gradient() will perform analytic gradient computation.

*** tstart() called on n071
*** at Wed Sep 21 16:06:11 2022

   => Loading Basis Set <=

    Name: 6-31G*
    Role: ORBITAL
    Keyword: BASIS
    atoms 1   entry C          line   111 file /opt/psi/4/master/share/psi4/basis/6-31gs.gbs 
    atoms 2   entry O          line   145 file /opt/psi/4/master/share/psi4/basis/6-31gs.gbs 
    atoms 3-6 entry H          line    44 file /opt/psi/4/master/share/psi4/basis/6-31gs.gbs 


         ---------------------------------------------------------
                                   SCF
               by Justin Turney, Rob Parrish, Andy Simmonett
                          and Daniel G. A. Smith
                              RKS Reference
                        1 Threads,  13351 MiB Core
         ---------------------------------------------------------

  ==> Geometry <==

    Molecular point group: c1
    Full point group: C1

    Geometry (in Bohr), charge = 0, multiplicity = 1:

       Center              X                  Y                   Z               Mass       
    ------------   -----------------  -----------------  -----------------  -----------------
         C           -1.375863351300    -0.021776043700     0.000000282200    12.000000000000
         O            1.306072554400     0.119927136800     0.000000296800    15.994914619570
         H           -2.077778935900     1.909372064800    -0.000079908200     1.007825032230
         H           -2.108685948900    -0.980062035800     1.681760058900     1.007825032230
         H           -2.108678862800    -0.980193245700    -1.681687824400     1.007825032230
         H            1.941210384500    -1.577399996300    -0.000001315300     1.007825032230

  Running in c1 symmetry.

  Rotational constants: A =      4.28328  B =      0.82678  C =      0.79771 [cm^-1]
  Rotational constants: A = 128409.60091  B =  24786.09837  C =  23914.65844 [MHz]
  Nuclear repulsion =   40.306096058998968

  Charge       = 0
  Multiplicity = 1
  Electrons    = 18
  Nalpha       = 9
  Nbeta        = 9

  ==> Algorithm <==

  SCF Algorithm Type is DF.
  DIIS enabled.
  MOM disabled.
  Fractional occupation disabled.
  Guess Type is SAD.
  Energy threshold   = 1.00e-10
  Density threshold  = 1.00e-10
  Integral threshold = 0.00e+00

  ==> Primary Basis <==

  Basis Set: 6-31G*
    Blend: 6-31G*
    Number of shells: 20
    Number of basis function: 38
    Number of Cartesian functions: 38
    Spherical Harmonics?: false
    Max angular momentum: 2

  ==> DFT Potential <==

   => Composite Functional: B3LYP <= 

    B3LYP Hyb-GGA Exchange-Correlation Functional

    P. J. Stephens, F. J. Devlin, C. F. Chabalowski, and M. J. Frisch, J. Phys. Chem. 98, 11623 (1994)

    Deriv               =              1
    GGA                 =           TRUE
    Meta                =          FALSE

    Exchange Hybrid     =           TRUE
    MP2 Hybrid          =          FALSE

   => Exchange Functionals <=

    0.0800   Slater exchange
    0.7200         Becke 88

   => Exact (HF) Exchange <=

    0.2000               HF 

   => Correlation Functionals <=

    0.1900   Vosko, Wilk & Nusair (VWN5_RPA)
    0.8100   Lee, Yang & Parr

   => Molecular Quadrature <=

    Radial Scheme          =       TREUTLER
    Pruning Scheme         =           NONE
    Nuclear Scheme         =       TREUTLER

    BS radius alpha        =              1
    Pruning alpha          =              1
    Radial Points          =             99
    Spherical Points       =           1202
    Total Points           =         678843
    Total Blocks           =           4715
    Max Points             =            256
    Max Functions          =             38
    Weights Tolerance      =       1.00E-15

   => Loading Basis Set <=

    Name: (6-31G* AUX)
    Role: JKFIT
    Keyword: DF_BASIS_SCF
    atoms 1   entry C          line   121 file /opt/psi/4/master/share/psi4/basis/cc-pvdz-jkfit.gbs 
    atoms 2   entry O          line   221 file /opt/psi/4/master/share/psi4/basis/cc-pvdz-jkfit.gbs 
    atoms 3-6 entry H          line    51 file /opt/psi/4/master/share/psi4/basis/cc-pvdz-jkfit.gbs 

  ==> Integral Setup <==

  DFHelper Memory: AOs need 0.004 GiB; user supplied 9.070 GiB. Using in-core AOs.

  ==> MemDFJK: Density-Fitted J/K Matrices <==

    J tasked:                   Yes
    K tasked:                   Yes
    wK tasked:                   No
    OpenMP threads:               1
    Memory [MiB]:              9287
    Algorithm:                 Core
    Schwarz Cutoff:           1E-12
    Mask sparsity (%):       0.0000
    Fitting Condition:        1E-10

   => Auxiliary Basis Set <=

  Basis Set: (6-31G* AUX)
    Blend: CC-PVDZ-JKFIT
    Number of shells: 84
    Number of basis function: 262
    Number of Cartesian functions: 262
    Spherical Harmonics?: false
    Max angular momentum: 3

  Cached 100.0% of DFT collocation blocks in 0.709 [GiB].

  Minimum eigenvalue in the overlap matrix is 9.7432985834E-03.
  Reciprocal condition number of the overlap matrix is 1.6241421277E-03.
    Using symmetric orthogonalization.

  ==> Pre-Iterations <==

  SCF Guess: Superposition of Atomic Densities via on-the-fly atomic UHF (no occupation information).

   -------------------------
    Irrep   Nso     Nmo    
   -------------------------
     A         38      38 
   -------------------------
    Total      38      38
   -------------------------

  ==> Iterations <==

                           Total Energy        Delta E     RMS |[F,P]|

   @DF-RKS iter SAD:  -115.27605343452102   -1.15276e+02   0.00000e+00 
   @DF-RKS iter   1:  -115.54944614288463   -2.73393e-01   1.60923e-02 DIIS
   @DF-RKS iter   2:  -115.45065705627711    9.87891e-02   2.10631e-02 DIIS
   @DF-RKS iter   3:  -115.71154396793106   -2.60887e-01   2.14038e-03 DIIS
   @DF-RKS iter   4:  -115.71399814507183   -2.45418e-03   6.72850e-04 DIIS
   @DF-RKS iter   5:  -115.71426467104223   -2.66526e-04   8.12284e-05 DIIS
   @DF-RKS iter   6:  -115.71426855434375   -3.88330e-06   8.53558e-06 DIIS
   @DF-RKS iter   7:  -115.71426860055355   -4.62098e-08   7.71649e-07 DIIS
   @DF-RKS iter   8:  -115.71426860096537   -4.11816e-10   1.06780e-07 DIIS
   @DF-RKS iter   9:  -115.71426860097331   -7.94387e-12   2.04662e-08 DIIS
   @DF-RKS iter  10:  -115.71426860097353   -2.13163e-13   1.34379e-09 DIIS
   @DF-RKS iter  11:  -115.71426860097374   -2.13163e-13   1.18468e-10 DIIS
   @DF-RKS iter  12:  -115.71426860097361    1.27898e-13   2.21104e-11 DIIS
  Energy and wave function converged.


  ==> Post-Iterations <==

    Orbital Energies [Eh]
    ---------------------

    Doubly Occupied:                                                      

       1A    -19.138281     2A    -10.223065     3A     -1.011155  
       4A     -0.680281     5A     -0.502554     6A     -0.435360  
       7A     -0.420052     8A     -0.330652     9A     -0.264286  

    Virtual:                                                              

      10A      0.077278    11A      0.132603    12A      0.168853  
      13A      0.176284    14A      0.205303    15A      0.533707  
      16A      0.566058    17A      0.575324    18A      0.792167  
      19A      0.853234    20A      0.873332    21A      0.906859  
      22A      0.956521    23A      0.976666    24A      1.025248  
      25A      1.115688    26A      1.462303    27A      1.501631  
      28A      1.586216    29A      1.744493    30A      2.041708  
      31A      2.115111    32A      2.138241    33A      2.351201  
      34A      2.400300    35A      2.457949    36A      2.793914  
      37A      3.699599    38A      4.217097  

    Final Occupation by Irrep:
              A 
    DOCC [     9 ]

  @DF-RKS Final Energy:  -115.71426860097361

   => Energetics <=

    Nuclear Repulsion Energy =             40.3060960589989676
    One-Electron Energy =                -237.0113418923271524
    Two-Electron Energy =                  93.5435911901521422
    DFT Exchange-Correlation Energy =     -12.5526139577975702
    Empirical Dispersion Energy =           0.0000000000000000
    VV10 Nonlocal Energy =                  0.0000000000000000
    Total Energy =                       -115.7142686009736110

Computation Completed


Properties will be evaluated at   0.000000,   0.000000,   0.000000 [a0]

Properties computed using the SCF density matrix

  Nuclear Dipole Moment: [e a0]
     X:    -2.1605      Y:    -0.7995      Z:    -0.0000

  Electronic Dipole Moment: [e a0]
     X:     1.8272      Y:     0.2164      Z:     0.0000

  Dipole Moment: [e a0]
     X:    -0.3334      Y:    -0.5832      Z:    -0.0000     Total:     0.6717

  Dipole Moment: [D]
     X:    -0.8473      Y:    -1.4823      Z:    -0.0000     Total:     1.7074


*** tstop() called on n071 at Wed Sep 21 16:06:30 2022
Module time:
	user time   =      18.62 seconds =       0.31 minutes
	system time =       0.32 seconds =       0.01 minutes
	total time  =         19 seconds =       0.32 minutes
Total time:
	user time   =      18.62 seconds =       0.31 minutes
	system time =       0.32 seconds =       0.01 minutes
	total time  =         19 seconds =       0.32 minutes

*** tstart() called on n071
*** at Wed Sep 21 16:06:30 2022


         ------------------------------------------------------------
                                   SCF GRAD                          
                          Rob Parrish, Justin Turney,                
                       Andy Simmonett, and Alex Sokolov              
         ------------------------------------------------------------

  ==> Geometry <==

    Molecular point group: c1
    Full point group: C1

    Geometry (in Bohr), charge = 0, multiplicity = 1:

       Center              X                  Y                   Z               Mass       
    ------------   -----------------  -----------------  -----------------  -----------------
         C           -1.375863351300    -0.021776043700     0.000000282200    12.000000000000
         O            1.306072554400     0.119927136800     0.000000296800    15.994914619570
         H           -2.077778935900     1.909372064800    -0.000079908200     1.007825032230
         H           -2.108685948900    -0.980062035800     1.681760058900     1.007825032230
         H           -2.108678862800    -0.980193245700    -1.681687824400     1.007825032230
         H            1.941210384500    -1.577399996300    -0.000001315300     1.007825032230

  Nuclear repulsion =   40.306096058998968

  ==> Basis Set <==

  Basis Set: 6-31G*
    Blend: 6-31G*
    Number of shells: 20
    Number of basis function: 38
    Number of Cartesian functions: 38
    Spherical Harmonics?: false
    Max angular momentum: 2

  ==> DFJKGrad: Density-Fitted SCF Gradients <==

    Gradient:                    1
    J tasked:                  Yes
    K tasked:                  Yes
    wK tasked:                  No
    OpenMP threads:              1
    Integrals threads:           1
    Memory [MiB]:            10013
    Schwarz Cutoff:          0E+00
    Fitting Condition:       1E-10

   => Auxiliary Basis Set <=

  Basis Set: (6-31G* AUX)
    Blend: CC-PVDZ-JKFIT
    Number of shells: 84
    Number of basis function: 262
    Number of Cartesian functions: 262
    Spherical Harmonics?: false
    Max angular momentum: 3

  ==> DFT Potential <==

   => Composite Functional: B3LYP <= 

    B3LYP Hyb-GGA Exchange-Correlation Functional

    P. J. Stephens, F. J. Devlin, C. F. Chabalowski, and M. J. Frisch, J. Phys. Chem. 98, 11623 (1994)

    Deriv               =              1
    GGA                 =           TRUE
    Meta                =          FALSE

    Exchange Hybrid     =           TRUE
    MP2 Hybrid          =          FALSE

   => Exchange Functionals <=

    0.0800   Slater exchange
    0.7200         Becke 88

   => Exact (HF) Exchange <=

    0.2000               HF 

   => Correlation Functionals <=

    0.1900   Vosko, Wilk & Nusair (VWN5_RPA)
    0.8100   Lee, Yang & Parr

   => Molecular Quadrature <=

    Radial Scheme          =       TREUTLER
    Pruning Scheme         =           NONE
    Nuclear Scheme         =       TREUTLER

    BS radius alpha        =              1
    Pruning alpha          =              1
    Radial Points          =             99
    Spherical Points       =           1202
    Total Points           =         678843
    Total Blocks           =           4715
    Max Points             =            256
    Max Functions          =             38
    Weights Tolerance      =       1.00E-15


  -Total Gradient:
     Atom            X                  Y                   Z
    ------   -----------------  -----------------  -----------------
       1       -0.005669188637     0.001392001207     0.000000179061
       2        0.003998959923    -0.009513129053     0.000000256431
       3        0.001057236571    -0.003749491841    -0.000000053699
       4        0.002092562708     0.001523330203    -0.002753047943
       5        0.002092522507     0.001523525017     0.002752884960
       6       -0.003572176525     0.008823829974    -0.000000218813


*** tstop() called on n071 at Wed Sep 21 16:06:33 2022
Module time:
	user time   =       2.75 seconds =       0.05 minutes
	system time =       0.01 seconds =       0.00 minutes
	total time  =          3 seconds =       0.05 minutes
Total time:
	user time   =      21.37 seconds =       0.36 minutes
	system time =       0.33 seconds =       0.01 minutes
	total time  =         22 seconds =       0.37 minutes

    Psi4 stopped on: Wednesday, 21 September 2022 04:06PM
    Psi4 wall time for execution: 0:00:21.74

*** Psi4 exiting successfully. Buy a developer a beer!
