
 Primary working directories    : /tmp/795519.109.gen4.q
 Secondary working directories  : /tmp/795519.109.gen4.q
 Wavefunction directory         : /home/vulcan/mel64643/wfu/
 Main file repository           : /tmp/795519.109.gen4.q/

 ARCHNAME  : Linux/x86_64
 FC        : /opt/intel/compilers_and_libraries_2016.1.150/linux/bin/intel64/ifort
 FCVERSION : 16.0.1
 BLASLIB   : -mkl
 id        : ccgc

 Nodes     nprocs
 n059         1
 ga_uses_ma=false, calling ma_init with nominal heap.
 GA-space will be limited to   8.0 MW (determined by -G option)

 Using customized tuning parameters: mindgm=10; mindgv=16; mindgc=4; mindgr=1; noblas=0; mincuda=1000; minvec=7
 default implementation of scratch files=df  

 ***,Optimization of min3
 memory,1000,m
 gthresh,energy=1.0d-12,orbital=1.0d-10,oneint=1.0d-16,twoint=1.0d-16,optgrad=1.0d-6,compress=1.0d-13
 geomtyp=xyz
 
  bohr
  geometry = {
  6
  arbitrary comment
  C   -1.3753747689   -0.0244138983    0.0000003865
  O    1.2980204057    0.1180086402    0.0000002810
  H   -2.0776464821    1.9055368612   -0.0000797465
  H   -2.1064214783   -0.9757259922    1.6785374938
  H   -2.1064143758   -0.9758569035   -1.6784655265
  H    1.9441125394   -1.5776808274   -0.0000012983
 }
 
 basis=cc-pvdz
 {rhf;maxit,200}
 {ccsd(t);maxit,200}

 Variables initialized (661), CPU time= 0.00 sec
 Commands  initialized (458), CPU time= 0.00 sec, 486 directives.
 Default parameters read. Elapsed time= 0.05 sec

 Checking input...
 Passed
1


                                         ***  PROGRAM SYSTEM MOLPRO  ***
                         Copyright, University College Cardiff Consultants Limited, 2008

                                    Version 2010.1 linked May 16 2016 07:17:05


 **********************************************************************************************************************************
 LABEL *   Optimization of min3                                                          
 Linux-4.4.3/n059(x86_64) 64 bit mpp version                                             DATE: 24-Oct-22          TIME: 15:43:06  
 **********************************************************************************************************************************

 SHA1:             9e8077add272b0f3cad6f7df79ec5211205f459d
 **********************************************************************************************************************************

 THRESHOLDS:

 ZERO    =  1.00D-12  ONEINT  =  1.00D-16  TWOINT  =  1.00D-16  PREFAC  =  1.00D-14  LOCALI  =  1.00D-09  EORDER  =  1.00D-04
 ENERGY  =  1.00D-12  ETEST   =  0.00D+00  EDENS   =  0.00D+00  THRDEDEF=  1.00D-06  GRADIENT=  1.00D-02  STEP    =  1.00D-03
 ORBITAL =  1.00D-10  CIVEC   =  1.00D-05  COEFF   =  1.00D-04  PRINTCI =  5.00D-02  PUNCHCI =  9.90D+01  OPTGRAD =  1.00D-06
 OPTENERG=  1.00D-06  OPTSTEP =  3.00D-04  THRGRAD =  1.00D-10  COMPRESS=  1.00D-13  VARMIN  =  1.00D-07  VARMAX  =  1.00D-03
 THRDOUB =  0.00D+00  THRDIV  =  1.00D-05  THRRED  =  1.00D-07  THRPSP  =  1.00D+00  THRDC   =  1.00D-10  THRCS   =  1.00D-10
 THRNRM  =  1.00D-08  THREQ   =  0.00D+00  THRDE   =  1.00D+00  THRREF  =  1.00D-05  SPARFAC =  1.00D+00  THRDLP  =  1.00D-07
 THRDIA  =  1.00D-10  THRDLS  =  1.00D-07  THRGPS  =  0.00D+00  THRKEX  =  0.00D+00  THRDIS  =  2.00D-01  THRVAR  =  1.00D-10
 THRLOC  =  1.00D-06  THRGAP  =  1.00D-06  THRLOCT = -1.00D+00  THRGAPT = -1.00D+00  THRORB  =  1.00D-06  THRMLTP =  0.00D+00
 THRCPQCI=  1.00D-10  KEXTA   =  0.00D+00  THRCOARS=  0.00D+00  SYMTOL  =  1.00D-06  GRADTOL =  1.00D-06  THROVL  =  1.00D-08
 THRORTH =  1.00D-08  GRID    =  1.00D-06  GRIDMAX =  1.00D-03  DTMAX   =  0.00D+00

 SETTING GEOMTYP        =    XYZ
 ZUNIT=BOHR
 

 Variable memory set to 1000000000 words,  buffer space   230000 words

 SETTING BASIS          =    CC-PVDZ


 Recomputing integrals since basis changed


 Using spherical harmonics

 Library entry C      S cc-pVDZ              selected for orbital group  1
 Library entry C      P cc-pVDZ              selected for orbital group  1
 Library entry C      D cc-pVDZ              selected for orbital group  1
 Library entry O      S cc-pVDZ              selected for orbital group  2
 Library entry O      P cc-pVDZ              selected for orbital group  2
 Library entry O      D cc-pVDZ              selected for orbital group  2
 Library entry H      S cc-pVDZ              selected for orbital group  3
 Library entry H      P cc-pVDZ              selected for orbital group  3

1PROGRAM * SEWARD (Integral evaluation for generally contracted gaussian basis sets)     Author: Roland Lindh, 1990

 Geometry written to block  1 of record 700


 Point group  C1  



 ATOMIC COORDINATES

 NR  ATOM    CHARGE       X              Y              Z

   1  C       6.00   -1.375374769   -0.024413898    0.000000387
   2  O       8.00    1.298020406    0.118008640    0.000000281
   3  H       1.00   -2.077646482    1.905536861   -0.000079746
   4  H       1.00   -2.106421478   -0.975725992    1.678537494
   5  H       1.00   -2.106414376   -0.975856903   -1.678465526
   6  H       1.00    1.944112539   -1.577680827   -0.000001298

 Bond lengths in Bohr (Angstrom)

 1-2  2.677186198  1-3  2.053751567  1-4  2.063228250  1-5  2.063228179  2-6  1.814606794
     ( 1.416705920)     ( 1.086798522)     ( 1.091813367)     ( 1.091813329)     ( 0.960248559)

 Bond angles

  1-2-6  107.80836258   2-1-3  106.94597247   2-1-4  112.23144429   2-1-5  112.23143728

  3-1-4  108.18934835   3-1-5  108.18918722   4-1-5  108.88487037

 NUCLEAR CHARGE:                   18
 NUMBER OF PRIMITIVE AOS:          82
 NUMBER OF SYMMETRY AOS:           80
 NUMBER OF CONTRACTIONS:           48   (  48A   )
 NUMBER OF CORE ORBITALS:           2   (   2A   )
 NUMBER OF VALENCE ORBITALS:       12   (  12A   )


 NUCLEAR REPULSION ENERGY   40.39502586


 Eigenvalues of metric

         1 0.963E-02 0.176E-01 0.365E-01 0.371E-01 0.380E-01 0.471E-01 0.473E-01 0.516E-01


 Contracted 2-electron integrals neglected if value below      1.0D-16
 AO integral compression algorithm  1   Integral accuracy      1.0D-16

     6.554 MB (compressed) written to integral file ( 94.5%)

     Node minimum: 6.554 MB, node maximum: 6.554 MB


 NUMBER OF SORTED TWO-ELECTRON INTEGRALS:     692076.     BUFFER LENGTH:  32768
 NUMBER OF SEGMENTS:   1  SEGMENT LENGTH:     692076      RECORD LENGTH: 524288

 Memory used in sort:       1.25 MW

 SORT1 READ      832256. AND WROTE      682148. INTEGRALS IN      2 RECORDS. CPU TIME:     0.01 SEC, REAL TIME:     0.02 SEC
 SORT2 READ      682148. AND WROTE      692076. INTEGRALS IN     25 RECORDS. CPU TIME:     0.02 SEC, REAL TIME:     0.02 SEC

 FILE SIZES:   FILE 1:     8.0 MBYTE,  FILE 4:     8.4 MBYTE,   TOTAL:     16.4 MBYTE

 OPERATOR DM      FOR CENTER  0  COORDINATES:    0.000000    0.000000    0.000000


 **********************************************************************************************************************************
 DATASETS  * FILE   NREC   LENGTH (MB)   RECORD NAMES
              1      19        8.03       500      610      700      900      950      970     1000      129      960     1100   
                                          VAR    BASINP    GEOM    SYMINP    ZMAT    AOBASIS   BASIS     P2S    ABASIS      S 
                                         1400     1410     1200     1210     1080     1600     1650     1300     1700   
                                           T        V       H0       H01     AOSYM     SMH    MOLCAS    ERIS     OPER   

 PROGRAMS   *        TOTAL       INT
 CPU TIMES  *         0.23      0.18
 REAL TIME  *         0.41 SEC
 DISK USED  *        23.60 MB      
 GA USED    *         0.00 MB       (max)       0.00 MB       (current)
 **********************************************************************************************************************************

1PROGRAM * RHF-SCF (CLOSED SHELL)       Authors: W. Meyer, H.-J. Werner


 NUMBER OF ELECTRONS:       9+    9-    SPACE SYMMETRY=1    SPIN SYMMETRY: Singlet 
 CONVERGENCE THRESHOLDS:    1.00E-10 (Density)    1.00E-13 (Energy)
 MAX. NUMBER OF ITERATIONS:      200
 INTERPOLATION TYPE:            DIIS
 INTERPOLATION STEPS:              2 (START)      1 (STEP)
 LEVEL SHIFTS:                  0.00 (CLOSED)  0.00 (OPEN) 



 Orbital guess generated from atomic densities. Full valence occupancy:   14

 Molecular orbital dump at record        2100.2

 ITERATION    DDIFF          GRAD             ENERGY        2-EL.EN.            DIPOLE MOMENTS         DIIS
    1      0.000D+00      0.000D+00      -115.01440656    164.567385   -0.48240   -0.89896   -0.00000    0
    2      0.000D+00      0.109D-01      -115.04275762    162.333512   -0.30977   -0.53562   -0.00000    1
    3      0.205D-01      0.527D-02      -115.04872682    163.362822   -0.39237   -0.61025   -0.00000    2
    4      0.636D-02      0.112D-02      -115.04918999    163.205765   -0.38278   -0.59909   -0.00000    3
    5      0.204D-02      0.202D-03      -115.04921088    163.212022   -0.38574   -0.59480   -0.00000    4
    6      0.431D-03      0.355D-04      -115.04921168    163.212341   -0.38608   -0.59459   -0.00000    5
    7      0.932D-04      0.751D-05      -115.04921171    163.211101   -0.38623   -0.59442   -0.00000    6
    8      0.152D-04      0.244D-05      -115.04921171    163.211484   -0.38627   -0.59439   -0.00000    7
    9      0.523D-05      0.496D-06      -115.04921171    163.211446   -0.38628   -0.59439   -0.00000    6
   10      0.143D-05      0.913D-07      -115.04921171    163.211444   -0.38629   -0.59438   -0.00000    6
   11      0.243D-06      0.340D-07      -115.04921171    163.211450   -0.38629   -0.59439   -0.00000    6
   12      0.618D-07      0.144D-07      -115.04921171    163.211448   -0.38629   -0.59439   -0.00000    7
   13      0.269D-07      0.315D-08      -115.04921171    163.211448   -0.38629   -0.59439   -0.00000    7
   14      0.781D-08      0.649D-09      -115.04921171    163.211448   -0.38629   -0.59439   -0.00000    7
   15      0.164D-08      0.152D-09      -115.04921171    163.211448   -0.38629   -0.59439   -0.00000    7
   16      0.339D-09      0.460D-10      -115.04921171    163.211448   -0.38629   -0.59439   -0.00000    7
   17      0.869D-10      0.166D-10      -115.04921171    163.211448   -0.38629   -0.59439   -0.00000    7
   18      0.425D-10      0.275D-11      -115.04921171    163.211448   -0.38629   -0.59439   -0.00000    0

 Final occupancy:   9

 !RHF STATE 1.1 Energy               -115.049211713731
 Nuclear energy                        40.39502586
 One-electron energy                 -237.04996163
 Two-electron energy                   81.60572406
 Virial quotient                       -1.00077094
 !RHF STATE 1.1 Dipole moment          -0.38628777    -0.59438511    -0.00000279
 Dipole moment /Debye                  -0.98178128    -1.51067730    -0.00000708

 Orbital energies:

         1.1          2.1          3.1          4.1          5.1          6.1          7.1          8.1          9.1         10.1
    -20.549510   -11.273386    -1.350719    -0.921980    -0.683495    -0.614896    -0.586158    -0.496342    -0.442771     0.184777

        11.1
      0.224498


 **********************************************************************************************************************************
 DATASETS  * FILE   NREC   LENGTH (MB)   RECORD NAMES
              1      19        8.03       500      610      700      900      950      970     1000      129      960     1100   
                                          VAR    BASINP    GEOM    SYMINP    ZMAT    AOBASIS   BASIS     P2S    ABASIS      S 
                                         1400     1410     1200     1210     1080     1600     1650     1300     1700   
                                           T        V       H0       H01     AOSYM     SMH    MOLCAS    ERIS     OPER   

              2       3        0.39       700     1000     2100   
                                         GEOM     BASIS     RHF  

 PROGRAMS   *        TOTAL       RHF       INT
 CPU TIMES  *         0.32      0.09      0.18
 REAL TIME  *         0.52 SEC
 DISK USED  *        23.60 MB      
 GA USED    *         0.00 MB       (max)       0.00 MB       (current)
 **********************************************************************************************************************************


1PROGRAM * CCSD (Closed-shell coupled cluster)     Authors: C. Hampel, H.-J. Werner, 1991, M. Deegan, P.J. Knowles, 1992


 Convergence thresholds:  THRVAR = 1.00D-08  THRDEN = 1.00D-12

 CCSD(T)     terms to be evaluated (factor= 1.000)


 Number of core orbitals:           2 (   2 )
 Number of closed-shell orbitals:   7 (   7 )
 Number of external orbitals:      39 (  39 )

 Molecular orbitals read from record     2100.2  Type=RHF/CANONICAL (state 1.1)

 Number of N-1 electron functions:               7
 Number of N-2 electron functions:              28
 Number of singly external CSFs:               273
 Number of doubly external CSFs:             37401
 Total number of CSFs:                       37675

 Length of J-op  integral file:               0.00 MB
 Length of K-op  integral file:               0.19 MB
 Length of 3-ext integral record:             0.00 MB

 Memory could be reduced to 0.96 Mwords without degradation in triples

 Integral transformation finished. Total CPU:   0.02 sec, npass=  1  Memory used:   0.66 MW

 Reference energy:                   -115.04921171

 MP2 singlet pair energy:              -0.21843525
 MP2 triplet pair energy:              -0.11978949
 MP2 correlation energy:               -0.33822475
 MP2 total energy:                   -115.38743646

 SCS-MP2 correlation energy:           -0.33665799   (PS=  1.200000  PT=  0.333333)
 SCS-MP2 total energy:               -115.38586970

 ITER.      SQ.NORM     CORR.ENERGY   TOTAL ENERGY   ENERGY CHANGE        DEN1      VAR(S)    VAR(P)  DIIS     TIME
   1      1.10705353    -0.36101605  -115.41022776    -0.02279130    -0.01414793  0.90D-03  0.17D-02  1  1     0.05
   2      1.11552742    -0.36295291  -115.41216463    -0.00193687    -0.00921936  0.19D-04  0.16D-03  2  2     0.09
   3      1.11738463    -0.36307831  -115.41229002    -0.00012539    -0.00119202  0.93D-05  0.85D-05  3  3     0.13
   4      1.11789241    -0.36307704  -115.41228876     0.00000127    -0.00025189  0.33D-06  0.66D-06  4  4     0.17
   5      1.11798889    -0.36307744  -115.41228915    -0.00000040    -0.00003552  0.98D-07  0.48D-07  5  5     0.20
   6      1.11800763    -0.36307610  -115.41228782     0.00000134    -0.00000429  0.16D-07  0.40D-08  6  6     0.24
   7      1.11801237    -0.36307569  -115.41228740     0.00000041    -0.00000036  0.20D-08  0.71D-09  6  1     0.28
   8      1.11801363    -0.36307579  -115.41228751    -0.00000010     0.00000075  0.25D-09  0.72D-10  6  3     0.32
   9      1.11801468    -0.36307567  -115.41228738     0.00000012    -0.00000038  0.13D-10  0.10D-10  6  2     0.36
  10      1.11801473    -0.36307567  -115.41228738     0.00000000     0.00000000  0.13D-11  0.12D-11  6  4     0.40
  11      1.11801469    -0.36307567  -115.41228738     0.00000000     0.00000003  0.33D-12  0.83D-13  6  5     0.44
  12      1.11801464    -0.36307567  -115.41228739    -0.00000000     0.00000003  0.33D-13  0.13D-13  6  6     0.48
  13      1.11801462    -0.36307567  -115.41228739    -0.00000000     0.00000001  0.37D-14  0.15D-14  6  3     0.52
  14      1.11801462    -0.36307567  -115.41228739    -0.00000000     0.00000000  0.28D-15  0.14D-15  6  1     0.56
  15      1.11801462    -0.36307567  -115.41228739     0.00000000    -0.00000000  0.34D-16  0.31D-16  6  2     0.60
  16      1.11801462    -0.36307567  -115.41228739     0.00000000    -0.00000000  0.30D-17  0.16D-17  6  5     0.63
  17      1.11801462    -0.36307567  -115.41228739    -0.00000000     0.00000000  0.13D-18  0.12D-18  6  4     0.67
  18      1.11801462    -0.36307567  -115.41228739     0.00000000    -0.00000000  0.26D-19  0.12D-19  6  3     0.71
  19      1.11801462    -0.36307567  -115.41228739     0.00000000    -0.00000000  0.25D-20  0.10D-20  6  6     0.75

 Norm of t1 vector:      0.04145033      S-energy:     0.00000000      T1 diagnostic:  0.00783338
                                                                       D1 diagnostic:  0.01736967


 Total CPU time for triples:      0.21 sec


 RESULTS
 =======

  Reference energy                   -115.049211713731
  CCSD singlet pair energy             -0.254311604563
  CCSD triplet pair energy             -0.108764068143
  CCSD correlation energy              -0.363075672706

  Triples (T) contribution             -0.007703242992
  Total correlation energy             -0.370778915698

  CCSD total energy                  -115.412287386437
  CCSD[T] energy                     -115.420277174856
  CCSD-T energy                      -115.419842421024
 !CCSD(T) total energy               -115.419990629430

 Timing summary (sec):

 STEP                 CPU(USER)    SYS     CPU(TOT)    WALL
 Transformation          0.02      0.01      0.03      0.03
 CCSD iterations         0.73      0.03      0.76      0.79
 Triples                 0.21      0.01      0.22      0.21

 Program statistics:

 Available memory in ccsd:               999999704
 Min. memory needed in ccsd:                136801
 Max. memory used in ccsd:                  163198
 Max. memory used in cckext:                182024 (19 integral passes)



 **********************************************************************************************************************************
 DATASETS  * FILE   NREC   LENGTH (MB)   RECORD NAMES
              1      20       10.56       500      610      700      900      950      970     1000      129      960     1100   
                                          VAR    BASINP    GEOM    SYMINP    ZMAT    AOBASIS   BASIS     P2S    ABASIS      S 
                                         1400     1410     1200     1210     1080     1600     1650     1300     1700     1380   
                                           T        V       H0       H01     AOSYM     SMH    MOLCAS    ERIS     OPER     JKOP   

              2       3        0.39       700     1000     2100   
                                         GEOM     BASIS     RHF  

 PROGRAMS   *        TOTAL   CCSD(T)       RHF       INT
 CPU TIMES  *         1.29      0.97      0.09      0.18
 REAL TIME  *         1.58 SEC
 DISK USED  *        25.03 MB      
 GA USED    *         0.00 MB       (max)       0.00 MB       (current)
 **********************************************************************************************************************************

        CCSD(T)         RHF-SCF 
   -115.41999063   -115.04921171
 **********************************************************************************************************************************
 Variable memory released
