
 Primary working directories    : /tmp/333988.58.gen4.q
 Secondary working directories  : /tmp/333988.58.gen4.q
 Wavefunction directory         : /home/vulcan/mel64643/wfu/
 Main file repository           : /tmp/333988.58.gen4.q/

 ARCHNAME  : Linux/x86_64
 FC        : /opt/intel/compilers_and_libraries_2016.1.150/linux/bin/intel64/ifort
 FCVERSION : 16.0.1
 BLASLIB   : -mkl
 id        : ccgc

 Nodes     nprocs
 n024         3
 Number of processes for MPI-2 version of Molpro:   nprocs(total)=    4   nprocs(compute)=    3   nprocs(helper)=    1
 ga_uses_ma=false, calling ma_init with nominal heap.
 GA-space will be limited to   8.0 MW (determined by -G option)

 Using customized tuning parameters: mindgm=10; mindgv=16; mindgc=4; mindgr=1; noblas=0; mincuda=1000; minvec=7
 default implementation of scratch files=sf  

 ***,Optimization of min3
 memory,1000,m
 gthresh,energy=1.0d-10,orbital=1.0d-10,oneint=1.0d-16,twoint=1.0d-16,optgrad=1.0d-6,compress=1.0d-13
 geomtyp=xyz
 
  bohr
  geometry = {
  12
  arbitrary comment
  C         -3.1031305088          1.5835991109          0.0207064403
  C         -0.8641108304         -0.0710664548         -0.6560424835
  C         -1.1178674877         -2.7799645042          0.2460848717
  O          1.3115016261          1.1049473210          0.5890001045
  O          3.4492896778          0.1200644465         -0.2518272506
  H         -4.7892874244          0.8536939993         -0.8681277921
  H         -2.8025215917          3.5488985203         -0.6273670028
  H         -3.3922054928          1.5967083828          2.0560282334
  H         -0.4597125220         -0.0042950550         -2.6785321598
  H         -2.6975520041         -3.6926044769         -0.7177650953
  H         -1.4718000590         -2.8238026575          2.2802302736
  H          0.6033859211         -3.8293305449         -0.1608973246
 }
 
 basis=cc-pvtz
 {rhf;maxit,200}
 {uccsd(t);maxit,200}

 Variables initialized (661), CPU time= 0.00 sec
 Commands  initialized (458), CPU time= 0.01 sec, 486 directives.
 Default parameters read. Elapsed time= 0.07 sec

 Checking input...
 Passed
1


                                         ***  PROGRAM SYSTEM MOLPRO  ***
                         Copyright, University College Cardiff Consultants Limited, 2008

                                    Version 2010.1 linked May 16 2016 07:17:05


 **********************************************************************************************************************************
 LABEL *   Optimization of min3                                                          
 Linux-4.4.3/n024(x86_64) 64 bit mpp version                                             DATE: 15-Jul-20          TIME: 21:44:08  
 **********************************************************************************************************************************

 SHA1:             9e8077add272b0f3cad6f7df79ec5211205f459d
 **********************************************************************************************************************************

 THRESHOLDS:

 ZERO    =  1.00D-12  ONEINT  =  1.00D-16  TWOINT  =  1.00D-16  PREFAC  =  1.00D-14  LOCALI  =  1.00D-09  EORDER  =  1.00D-04
 ENERGY  =  1.00D-10  ETEST   =  0.00D+00  EDENS   =  0.00D+00  THRDEDEF=  1.00D-06  GRADIENT=  1.00D-02  STEP    =  1.00D-03
 ORBITAL =  1.00D-10  CIVEC   =  1.00D-05  COEFF   =  1.00D-04  PRINTCI =  5.00D-02  PUNCHCI =  9.90D+01  OPTGRAD =  1.00D-06
 OPTENERG=  1.00D-06  OPTSTEP =  3.00D-04  THRGRAD =  1.00D-10  COMPRESS=  1.00D-13  VARMIN  =  1.00D-07  VARMAX  =  1.00D-03
 THRDOUB =  0.00D+00  THRDIV  =  1.00D-05  THRRED  =  1.00D-07  THRPSP  =  1.00D+00  THRDC   =  1.00D-10  THRCS   =  1.00D-10
 THRNRM  =  1.00D-08  THREQ   =  0.00D+00  THRDE   =  1.00D+00  THRREF  =  1.00D-05  SPARFAC =  1.00D+00  THRDLP  =  1.00D-07
 THRDIA  =  1.00D-10  THRDLS  =  1.00D-07  THRGPS  =  0.00D+00  THRKEX  =  0.00D+00  THRDIS  =  2.00D-01  THRVAR  =  1.00D-10
 THRLOC  =  1.00D-06  THRGAP  =  1.00D-06  THRLOCT = -1.00D+00  THRGAPT = -1.00D+00  THRORB  =  1.00D-06  THRMLTP =  0.00D+00
 THRCPQCI=  1.00D-10  KEXTA   =  0.00D+00  THRCOARS=  0.00D+00  SYMTOL  =  1.00D-06  GRADTOL =  1.00D-06  THROVL  =  1.00D-08
 THRORTH =  1.00D-08  GRID    =  1.00D-06  GRIDMAX =  1.00D-03  DTMAX   =  0.00D+00

 SETTING GEOMTYP        =    XYZ
 ZUNIT=BOHR
 

 Variable memory set to 1000000000 words,  buffer space   230000 words

 SETTING BASIS          =    CC-PVTZ


 Recomputing integrals since basis changed


 Using spherical harmonics

 Library entry C      S cc-pVTZ              selected for orbital group  1
 Library entry C      P cc-pVTZ              selected for orbital group  1
 Library entry C      D cc-pVTZ              selected for orbital group  1
 Library entry C      F cc-pVTZ              selected for orbital group  1
 Library entry O      S cc-pVTZ              selected for orbital group  2
 Library entry O      P cc-pVTZ              selected for orbital group  2
 Library entry O      D cc-pVTZ              selected for orbital group  2
 Library entry O      F cc-pVTZ              selected for orbital group  2
 Library entry H      S cc-pVTZ              selected for orbital group  3
 Library entry H      P cc-pVTZ              selected for orbital group  3
 Library entry H      D cc-pVTZ              selected for orbital group  3

1PROGRAM * SEWARD (Integral evaluation for generally contracted gaussian basis sets)     Author: Roland Lindh, 1990

 Geometry written to block  1 of record 700


 Point group  C1  



 ATOMIC COORDINATES

 NR  ATOM    CHARGE       X              Y              Z

   1  C       6.00   -3.103130509    1.583599111    0.020706440
   2  C       6.00   -0.864110830   -0.071066455   -0.656042484
   3  C       6.00   -1.117867488   -2.779964504    0.246084872
   4  O       8.00    1.311501626    1.104947321    0.589000104
   5  O       8.00    3.449289678    0.120064447   -0.251827251
   6  H       1.00   -4.789287424    0.853693999   -0.868127792
   7  H       1.00   -2.802521592    3.548898520   -0.627367003
   8  H       1.00   -3.392205493    1.596708383    2.056028233
   9  H       1.00   -0.459712522   -0.004295055   -2.678532160
  10  H       1.00   -2.697552004   -3.692604477   -0.717765095
  11  H       1.00   -1.471800059   -2.823802657    2.280230274
  12  H       1.00    0.603385921   -3.829330545   -0.160897325

 Bond lengths in Bohr (Angstrom)

 1-2  2.865155556  1-6  2.041056812  1-7  2.091116132  1-8  2.055789630  2-3  2.866418471
     ( 1.516175021)     ( 1.080080747)     ( 1.106570998)     ( 1.087877018)     ( 1.516843326)

  2- 4  2.768831704   2- 9  2.063603863   3-10  2.063327810   3-11  2.065172527   3-12  2.056578929
       ( 1.465202634)       ( 1.092012133)       ( 1.091866052)       ( 1.092842234)       ( 1.088294698)

 4-5  2.499424468
     ( 1.322638464)

 Bond angles

  1-2-3  113.71942967   1-2-4  105.22070673   1-2-9  111.46598520   2-1-6  109.64545149

  2- 1- 7  110.92979705   2- 1- 8  110.32937908   2- 3-10  109.80175405   2- 3-11  110.19566869

  2- 3-12  110.23270866   2- 4- 5  110.69715915   3- 2- 4  109.23438477   3- 2- 9  110.87801390

  4-2-9  105.84169513   6-1-7  108.65638226   6-1-8  108.49713960   7-1-8  108.72661479

 10- 3-11  108.63368809  10- 3-12  108.82243859  11- 3-12  109.11869789

 NUCLEAR CHARGE:                   41
 NUMBER OF PRIMITIVE AOS:         354
 NUMBER OF SYMMETRY AOS:          322
 NUMBER OF CONTRACTIONS:          248   ( 248A   )
 NUMBER OF CORE ORBITALS:           5   (   5A   )
 NUMBER OF VALENCE ORBITALS:       27   (  27A   )


 NUCLEAR REPULSION ENERGY  186.62246053


 Eigenvalues of metric

         1 0.808E-03 0.957E-03 0.110E-02 0.123E-02 0.137E-02 0.151E-02 0.156E-02 0.164E-02


 Contracted 2-electron integrals neglected if value below      1.0D-16
 AO integral compression algorithm  1   Integral accuracy      1.0D-16

     3371.434 MB (compressed) written to integral file ( 82.1%)

     Node minimum: 1079.771 MB, node maximum: 1146.094 MB


 NUMBER OF SORTED TWO-ELECTRON INTEGRALS:  158903334.     BUFFER LENGTH:  32768
 NUMBER OF SEGMENTS:  10  SEGMENT LENGTH:   15997437      RECORD LENGTH: 524288

 Memory used in sort:      16.55 MW

 SORT1 READ   513542517. AND WROTE   152615916. INTEGRALS IN    442 RECORDS. CPU TIME:    20.46 SEC, REAL TIME:    28.66 SEC
 SORT2 READ   459337787. AND WROTE   476679126. INTEGRALS IN  13116 RECORDS. CPU TIME:     1.30 SEC, REAL TIME:    17.83 SEC

 Node minimum:   158882750.  Node maximum:   158903334. integrals

 OPERATOR DM      FOR CENTER  0  COORDINATES:    0.000000    0.000000    0.000000


 **********************************************************************************************************************************
 DATASETS  * FILE   NREC   LENGTH (MB)   RECORD NAMES
              1      18        5.04       500      610      700      900      950      970     1000      129      960     1100   
                                          VAR    BASINP    GEOM    SYMINP    ZMAT    AOBASIS   BASIS     P2S    ABASIS      S 
                                         1400     1410     1200     1210     1080     1600     1650     1700   
                                           T        V       H0       H01     AOSYM     SMH    MOLCAS    OPER   

 PROGRAMS   *        TOTAL       INT
 CPU TIMES  *        29.42     29.33
 REAL TIME  *        55.85 SEC
 DISK USED  *         8.83 GB      
 GA USED    *         0.01 MB       (max)       0.00 MB       (current)
 **********************************************************************************************************************************

1PROGRAM * RHF-SCF (OPEN SHELL)       Authors: W. Meyer, H.-J. Werner


 NUMBER OF ELECTRONS:      21+   20-    SPACE SYMMETRY=1    SPIN SYMMETRY: Doublet 
 CONVERGENCE THRESHOLDS:    1.00E-10 (Density)    1.00E-11 (Energy)
 MAX. NUMBER OF ITERATIONS:      200
 INTERPOLATION TYPE:            DIIS
 INTERPOLATION STEPS:              2 (START)      1 (STEP)
 LEVEL SHIFTS:                 -0.30 (CLOSED)  0.00 (OPEN) 



 Orbital guess generated from atomic densities. Full valence occupancy:   32

 Molecular orbital dump at record        2100.2

 ITERATION    DDIFF          GRAD             ENERGY        2-EL.EN.            DIPOLE MOMENTS         DIIS
    1      0.000D+00      0.000D+00      -267.26077804    559.789144   -1.76830   -0.05952   -0.09813    0
    2      0.000D+00      0.326D-02      -267.33433965    562.638882   -1.01498   -0.43192   -0.35857    1
    3      0.471D-02      0.230D-02      -267.36089541    561.592147   -1.18953   -0.24495   -0.21606    2
    4      0.211D-02      0.546D-03      -267.36913041    561.778676   -0.97914   -0.31976   -0.29676    3
    5      0.926D-03      0.484D-03      -267.37335272    561.821073   -0.92424   -0.32312   -0.30080    4
    6      0.583D-03      0.272D-03      -267.37527675    561.788382   -0.88321   -0.31701   -0.29865    5
    7      0.485D-03      0.133D-03      -267.37561369    561.774168   -0.89314   -0.30558   -0.29054    6
    8      0.258D-03      0.356D-04      -267.37563543    561.771450   -0.89276   -0.30230   -0.28905    7
    9      0.848D-04      0.190D-04      -267.37564643    561.771663   -0.89526   -0.30284   -0.28910    8
   10      0.450D-04      0.829D-05      -267.37564828    561.771574   -0.89643   -0.30221   -0.28881    9
   11      0.201D-04      0.327D-05      -267.37564854    561.771507   -0.89706   -0.30205   -0.28864    9
   12      0.793D-05      0.149D-05      -267.37564861    561.771734   -0.89721   -0.30214   -0.28868    9
   13      0.373D-05      0.529D-06      -267.37564861    561.771786   -0.89722   -0.30220   -0.28871    9
   14      0.148D-05      0.299D-06      -267.37564862    561.771786   -0.89721   -0.30222   -0.28872    9
   15      0.811D-06      0.145D-06      -267.37564862    561.771793   -0.89720   -0.30223   -0.28872    9
   16      0.408D-06      0.709D-07      -267.37564862    561.771795   -0.89720   -0.30223   -0.28872    9
   17      0.166D-06      0.324D-07      -267.37564862    561.771790   -0.89719   -0.30223   -0.28872    9
   18      0.103D-06      0.180D-07      -267.37564862    561.771788   -0.89720   -0.30223   -0.28872    9
   19      0.545D-07      0.887D-08      -267.37564862    561.771790   -0.89720   -0.30223   -0.28872    9
   20      0.342D-07      0.552D-08      -267.37564862    561.771789   -0.89720   -0.30223   -0.28872    9
   21      0.257D-07      0.463D-08      -267.37564862    561.771789   -0.89720   -0.30223   -0.28872    9
   22      0.280D-07      0.395D-08      -267.37564862    561.771790   -0.89719   -0.30223   -0.28872    9
   23      0.419D-07      0.297D-08      -267.37564862    561.771790   -0.89719   -0.30223   -0.28872    9
   24      0.508D-07      0.202D-08      -267.37564862    561.771790   -0.89719   -0.30223   -0.28872    9
   25      0.411D-07      0.991D-09      -267.37564862    561.771790   -0.89719   -0.30223   -0.28872    9
   26      0.203D-07      0.409D-09      -267.37564862    561.771790   -0.89719   -0.30223   -0.28872    9
   27      0.327D-08      0.196D-09      -267.37564862    561.771790   -0.89719   -0.30223   -0.28872    9
   28      0.117D-08      0.917D-10      -267.37564862    561.771790   -0.89719   -0.30223   -0.28872    9
   29      0.575D-09      0.468D-10      -267.37564862    561.771790   -0.89719   -0.30223   -0.28872    9
   30      0.138D-09      0.229D-10      -267.37564862    561.771790   -0.89719   -0.30223   -0.28872    9
   31      0.617D-10      0.181D-10      -267.37564862    561.771790   -0.89719   -0.30223   -0.28872    0

 Final alpha occupancy:  21
 Final beta  occupancy:  20

 !RHF STATE 1.1 Energy               -267.375648616208
 Nuclear energy                       186.62246053
 One-electron energy                 -734.88400428
 Two-electron energy                  280.88589514
 Virial quotient                       -1.00117022
 !RHF STATE 1.1 Dipole moment          -0.89719480    -0.30222692    -0.28871886
 Dipole moment /Debye                  -2.28029237    -0.76813390    -0.73380209

 Orbital energies:

         1.1          2.1          3.1          4.1          5.1          6.1          7.1          8.1          9.1         10.1
    -20.648656   -20.640361   -11.297554   -11.229178   -11.225510    -1.523511    -1.170815    -1.034762    -0.952747    -0.819526

        11.1         12.1         13.1         14.1         15.1         16.1         17.1         18.1         19.1         20.1
     -0.695383    -0.667882    -0.652050    -0.594771    -0.563195    -0.558744    -0.544593    -0.501052    -0.489166    -0.465225

        21.1         22.1         23.1
     -0.562853     0.137556     0.174812


 **********************************************************************************************************************************
 DATASETS  * FILE   NREC   LENGTH (MB)   RECORD NAMES
              1      18        5.04       500      610      700      900      950      970     1000      129      960     1100   
                                          VAR    BASINP    GEOM    SYMINP    ZMAT    AOBASIS   BASIS     P2S    ABASIS      S 
                                         1400     1410     1200     1210     1080     1600     1650     1700   
                                           T        V       H0       H01     AOSYM     SMH    MOLCAS    OPER   

              2       3        2.21       700     1000     2100   
                                         GEOM     BASIS     RHF  

 PROGRAMS   *        TOTAL       RHF       INT
 CPU TIMES  *        79.03     49.61     29.33
 REAL TIME  *       110.41 SEC
 DISK USED  *         8.87 GB      
 SF USED    *         0.25 MB      
 GA USED    *         0.01 MB       (max)       0.00 MB       (current)
 **********************************************************************************************************************************


1PROGRAM * CCSD (Unrestricted open-shell coupled cluster)     Authors: C. Hampel, H.-J. Werner, 1991, M. Deegan, P.J. Knowles, 1992


 Convergence thresholds:  THRVAR = 1.00D-08  THRDEN = 1.00D-10

 CCSD(T)     terms to be evaluated (factor= 1.000)


 Number of core orbitals:           5 (   5 )
 Number of closed-shell orbitals:  15 (  15 )
 Number of active  orbitals:        1 (   1 )
 Number of external orbitals:     227 ( 227 )

 Memory could be reduced to 332.02 Mwords without degradation in triples

 Number of N-1 electron functions:              31
 Number of N-2 electron functions:             465
 Number of singly external CSFs:              7068
 Number of doubly external CSFs:          18353430
 Total number of CSFs:                    18360498

 Molecular orbitals read from record     2100.2  Type=RHF/CANONICAL (state 1.1)

 Integral transformation finished. Total CPU:  33.87 sec, npass=  1  Memory used: 145.25 MW

 Starting RMP2 calculation

 ITER.      SQ.NORM     CORR.ENERGY   TOTAL ENERGY   ENERGY CHANGE        DEN1      VAR(S)    VAR(P)  DIIS     TIME
   1      1.26540184    -0.96763988  -268.34328849    -0.96763988    -0.00323745  0.26D-04  0.11D-02  1  1    38.52
   2      1.26818800    -0.97113064  -268.34677925    -0.00349076    -0.00000666  0.10D-05  0.23D-05  2  2    42.07
   3      1.26826798    -0.97118356  -268.34683218    -0.00005293    -0.00000008  0.54D-07  0.11D-07  3  3    45.85
   4      1.26826969    -0.97118337  -268.34683199     0.00000019    -0.00000000  0.16D-08  0.12D-09  4  4    51.05
   5      1.26826995    -0.97118346  -268.34683207    -0.00000009    -0.00000000  0.19D-10  0.46D-11  5  5    55.27
   6      1.26827000    -0.97118349  -268.34683211    -0.00000003    -0.00000000  0.50D-13  0.56D-13  6  6    60.25
   7      1.26827000    -0.97118349  -268.34683210     0.00000000    -0.00000000  0.15D-14  0.85D-15  6  1    64.82
   8      1.26827000    -0.97118349  -268.34683210     0.00000000    -0.00000000  0.16D-16  0.79D-17  6  2    71.06
   9      1.26827000    -0.97118349  -268.34683210    -0.00000000    -0.00000000  0.32D-18  0.10D-18  6  3    76.94

 Norm of t1 vector:      0.04589539      S-energy:    -0.00446797      T1 diagnostic:  0.00074414
 Norm of t2 vector:      0.51591047      P-energy:    -0.96671552
                                         Alpha-Beta:  -0.73710926
                                         Alpha-Alpha: -0.11899310
                                         Beta-Beta:   -0.11061316

 Spin contamination <S**2-Sz**2-Sz>     0.00145409
  Reference energy                   -267.375648616211
  RHF-RMP2 correlation energy          -0.971183488580
 !RHF-RMP2 energy                    -268.346832104791

 Starting UCCSD calculation

 ITER.      SQ.NORM     CORR.ENERGY   TOTAL ENERGY   ENERGY CHANGE        DEN1      VAR(S)    VAR(P)  DIIS     TIME
   1      1.27987530    -0.97929192  -268.35494054    -0.97929192    -0.02933766  0.65D-02  0.54D-02  1  1   186.02
   2      1.30628995    -1.00592183  -268.38157044    -0.02662991    -0.00363620  0.62D-03  0.97D-03  2  2   294.49
   3      1.32294810    -1.01274853  -268.38839715    -0.00682670    -0.00091236  0.75D-03  0.76D-04  3  3   403.76
   4      1.33419110    -1.01540875  -268.39105737    -0.00266022    -0.00038531  0.31D-03  0.33D-04  4  4   513.00
   5      1.34926660    -1.01740613  -268.39305474    -0.00199737    -0.00011804  0.10D-03  0.90D-05  5  5   622.40
   6      1.36080197    -1.01842929  -268.39407791    -0.00102317    -0.00001816  0.93D-05  0.32D-05  6  6   732.30
   7      1.36449895    -1.01867031  -268.39431893    -0.00024102    -0.00000317  0.16D-05  0.61D-06  6  1   842.96
   8      1.36510395    -1.01871250  -268.39436112    -0.00004219    -0.00000067  0.27D-06  0.15D-06  6  2   952.38
   9      1.36542540    -1.01873104  -268.39437966    -0.00001854    -0.00000015  0.66D-07  0.32D-07  6  4  1062.15
  10      1.36541166    -1.01872976  -268.39437838     0.00000128    -0.00000002  0.11D-07  0.43D-08  6  3  1173.09
  11      1.36547430    -1.01873486  -268.39438348    -0.00000510    -0.00000000  0.25D-08  0.95D-09  6  5  1282.81
  12      1.36546683    -1.01873237  -268.39438099     0.00000249    -0.00000000  0.11D-08  0.22D-09  6  6  1394.09
  13      1.36546249    -1.01873122  -268.39437983     0.00000115    -0.00000000  0.70D-09  0.59D-10  6  1  1503.53
  14      1.36544954    -1.01872971  -268.39437832     0.00000151    -0.00000000  0.48D-09  0.24D-10  6  2  1614.59
  15      1.36544332    -1.01872896  -268.39437758     0.00000075    -0.00000000  0.39D-09  0.19D-10  6  3  1724.96
  16      1.36544016    -1.01872879  -268.39437741     0.00000017    -0.00000000  0.28D-09  0.15D-10  6  4  1834.29
  17      1.36543964    -1.01872881  -268.39437743    -0.00000002    -0.00000000  0.14D-09  0.15D-10  6  5  1943.84
  18      1.36544264    -1.01872900  -268.39437762    -0.00000019    -0.00000000  0.29D-10  0.60D-11  6  6  2054.20
  19      1.36544596    -1.01872934  -268.39437796    -0.00000033    -0.00000000  0.27D-11  0.17D-11  6  2  2165.05
  20      1.36544541    -1.01872920  -268.39437782     0.00000013    -0.00000000  0.66D-12  0.18D-12  6  1  2276.21
  21      1.36544572    -1.01872925  -268.39437787    -0.00000005    -0.00000000  0.23D-12  0.64D-13  6  4  2387.61
  22      1.36544564    -1.01872924  -268.39437786     0.00000001    -0.00000000  0.66D-13  0.15D-13  6  3  2498.19
  23      1.36544565    -1.01872925  -268.39437786    -0.00000001    -0.00000000  0.18D-13  0.63D-14  6  6  2607.59
  24      1.36544564    -1.01872924  -268.39437786     0.00000000    -0.00000000  0.17D-14  0.61D-15  6  1  2716.94
  25      1.36544564    -1.01872924  -268.39437786     0.00000000    -0.00000000  0.65D-15  0.17D-15  6  5  2826.28
  26      1.36544565    -1.01872924  -268.39437786    -0.00000000    -0.00000000  0.18D-15  0.71D-16  6  2  2935.82
  27      1.36544567    -1.01872924  -268.39437786    -0.00000000    -0.00000000  0.48D-16  0.95D-17  6  4  3078.92
  28      1.36544567    -1.01872924  -268.39437786    -0.00000000    -0.00000000  0.12D-16  0.40D-17  6  3  3233.19
  29      1.36544567    -1.01872924  -268.39437786    -0.00000000    -0.00000000  0.48D-17  0.77D-18  6  6  3369.67
  30      1.36544567    -1.01872924  -268.39437786     0.00000000    -0.00000000  0.33D-17  0.29D-18  6  1  3511.70

 Norm of t1 vector:      0.23124578      S-energy:    -0.00501525      T1 diagnostic:  0.02849549
                                                                       D1 diagnostic:  0.14603075
 Norm of t2 vector:      0.55854370      P-energy:    -1.01371399
                                         Alpha-Beta:  -0.80141022
                                         Alpha-Alpha: -0.10868336
                                         Beta-Beta:   -0.10362041

 Singles amplitudes (print threshold =  0.500E-01):

         I         SYM. A    A   T(IA) [Beta-Beta]

         8         1         1     -0.09710708
         9         1         1      0.09752720
        12         1         1     -0.08154383
        14         1         1     -0.11066771

 Spin contamination <S**2-Sz**2-Sz>     0.00176098

 Memory could be reduced to 360.52 Mwords without degradation in triples
 

 RESULTS
 =======

  Reference energy                   -267.375648616211
  UCCSD singles energy                 -0.005015253546
  UCCSD pair energy                    -1.013713990114
  UCCSD correlation energy             -1.018729243660
  Triples (T) contribution             -0.040840434862
  Total correlation energy             -1.059569678522
 
  RHF-UCCSD energy                   -268.394377859871
  RHF-UCCSD[T] energy                -268.438541518014
  RHF-UCCSD-T energy                 -268.434720385703
 !RHF-UCCSD(T) energy                -268.435218294733

 Program statistics:

 Available memory in ccsd:               999997692
 Min. memory needed in ccsd:              51505734
 Max. memory used in ccsd:                74803578
 Max. memory used in cckext:              59475747 (30 integral passes)
 Max. memory used in cckint:             145249478 ( 1 integral passes)



 **********************************************************************************************************************************
 DATASETS  * FILE   NREC   LENGTH (MB)   RECORD NAMES
              1      18        5.04       500      610      700      900      950      970     1000      129      960     1100   
                                          VAR    BASINP    GEOM    SYMINP    ZMAT    AOBASIS   BASIS     P2S    ABASIS      S 
                                         1400     1410     1200     1210     1080     1600     1650     1700   
                                           T        V       H0       H01     AOSYM     SMH    MOLCAS    OPER   

              2       3        2.21       700     1000     2100   
                                         GEOM     BASIS     RHF  

 PROGRAMS   *        TOTAL  UCCSD(T)       RHF       INT
 CPU TIMES  *      5752.48   5673.45     49.61     29.33
 REAL TIME  *      5907.05 SEC
 DISK USED  *        15.85 GB      
 SF USED    *         6.57 GB      
 GA USED    *         0.01 MB       (max)       0.00 MB       (current)
 **********************************************************************************************************************************

        UCCSD(T)        RHF-SCF 
   -268.43521829   -267.37564862
 **********************************************************************************************************************************
 Variable memory released
