
 Working directory              : /scratch/mel64643/tmp/40073146/
 Global scratch directory       : /scratch/mel64643/tmp/40073146/
 Wavefunction directory         : /home/mel64643/wfu/
 Main file repository           : /scratch/mel64643/tmp/40073146/

 id        : ccgc

 Nodes     nprocs
 a1-8         3
 Distribution of processes:   nprocs(total)=    4   nprocs(compute)=    3   nprocs(helper)=    1
 GA implementation: MPI file
 GA implementation (serial work in mppx): MPI file

 Using customized tuning parameters: mindgm=1; mindgv=20; mindgc=4; mindgr=1; noblas=0; minvec=7
 default implementation of scratch files=sf  


 Variables initialized (1015), CPU time= 0.01 sec
 ***,Optimization of min3
 memory,1000,m
 gthresh,energy=1.0d-12,orbital=1.0d-10,oneint=1.0d-16,twoint=1.0d-16,optgrad=1.0d-6,compress=1.0d-13
 geomtyp=xyz
 
  bohr
  geometry = {
  6
  arbitrary comment
  C   -1.3750525628   -0.0220052135    0.0053922967
  O    1.3023002299    0.1298840542   -0.0018553135
  H   -2.0754333440    1.9086567414   -0.0018510477
  H   -2.1096552747   -0.9813291400    1.6809536374
  H   -2.1091744432   -0.9801225284   -1.6830510220
  H    1.9432912347   -1.5852160337    0.0004030391
 }
 
 basis=cc-pvdz
 {rhf;maxit,200}
 {ccsd(t);maxit,200}
 Commands initialized (818), CPU time= 0.01 sec, 672 directives.
 Default parameters read. Elapsed time= 0.10 sec

 Checking input...
 Passed
1


                                         ***  PROGRAM SYSTEM MOLPRO  ***
                                       Copyright, TTI GmbH Stuttgart, 2015
                                    Version 2022.1 linked Mar  4 2022 00:40:14


 **********************************************************************************************************************************
 LABEL *   Optimization of min3                                                          
  64 bit mpp version                                                                     DATE: 07-Aug-25          TIME: 21:23:55  
 **********************************************************************************************************************************

 SHA1:             31073afc4d8441e10870424e0d77336a33bc4286
 **********************************************************************************************************************************

 Memory per process:      1000 MW
 Total memory per node:   3000 MW

 GA preallocation disabled
 GA check disabled

 Variable memory set to 1000.0 MW


 THRESHOLDS:

 ZERO    =  1.00D-12  ONEINT  =  1.00D-16  TWOINT  =  1.00D-16  PREFAC  =  1.00D-14  XXXXXX  =  1.00D-09  EORDER  =  1.00D-04
 ENERGY  =  1.00D-12  ETEST   =  0.00D+00  EDENS   =  0.00D+00  THRDEDEF=  1.00D-06  GRADIENT=  1.00D-05  STEP    =  1.00D-03
 ORBITAL =  1.00D-10  CIVEC   =  1.00D-05  COEFF   =  1.00D-04  PRINTCI =  5.00D-02  PUNCHCI =  9.90D+01  OPTGRAD =  1.00D-06
 OPTENERG=  1.00D-06  OPTSTEP =  3.00D-04  THRGRAD =  1.00D-10  COMPRESS=  1.00D-13  VARMIN  =  1.00D-07  VARMAX  =  1.00D-03
 THRDOUB =  0.00D+00  THRDIV  =  1.00D-05  THRRED  =  1.00D-07  THRPSP  =  1.00D+00  THRDC   =  1.00D-10  THRCS   =  1.00D-10
 THRNRM  =  1.00D-08  THREQ   =  0.00D+00  THRDE   =  1.00D+00  THRREF  =  1.00D-05  SPARFAC =  1.00D+00  THRDLP  =  1.00D-07
 THRDIA  =  1.00D-10  THRDLS  =  1.00D-07  THRGPS  =  0.00D+00  THRKEX  =  0.00D+00  THRDIS  =  2.00D-01  THRVAR  =  1.00D-10
 THRLOC  =  1.00D-06  THRGAP  =  1.00D-06  THRLOCT = -1.00D+00  THRGAPT = -1.00D+00  THRORB  =  1.00D-06  THRMLTP =  0.00D+00
 THRCPQCI=  1.00D-10  KEXTA   =  0.00D+00  THRCOARS=  0.00D+00  SYMTOL  =  1.00D-06  GRADTOL =  1.00D-06  THROVL  =  1.00D-08
 THRORTH =  1.00D-08  THRDLOVL= -1.00D+00  GRID    =  1.00D-06  GRIDMAX =  1.00D-03  DTMAX   =  0.00D+00  THROCCDE=  1.00D-01
 THROCCDE=  1.00D-01  THRPRINT=  2.50D-01

 SETTING GEOMTYP        =    XYZ
 ZUNIT=BOHR

 SETTING BASIS          =    CC-PVDZ


 Recomputing integrals since basis changed


 Using spherical harmonics

 Library entry C      S cc-pVDZ              selected for orbital group  1
 Library entry C      P cc-pVDZ              selected for orbital group  1
 Library entry C      D cc-pVDZ              selected for orbital group  1
 Library entry O      S cc-pVDZ              selected for orbital group  2
 Library entry O      P cc-pVDZ              selected for orbital group  2
 Library entry O      D cc-pVDZ              selected for orbital group  2
 Library entry H      S cc-pVDZ              selected for orbital group  3
 Library entry H      P cc-pVDZ              selected for orbital group  3


 PROGRAM * SEWARD (Integral evaluation for generally contracted gaussian basis sets)     Author: Roland Lindh, 1990

 Geometry written to block  1 of record 700


 Point group  C1  



 ATOMIC COORDINATES

 NR  ATOM    CHARGE       X              Y              Z

   1  C       6.00   -1.375052563   -0.022005213    0.005392297
   2  O       8.00    1.302300230    0.129884054   -0.001855314
   3  H       1.00   -2.075433344    1.908656741   -0.001851048
   4  H       1.00   -2.109655275   -0.981329140    1.680953637
   5  H       1.00   -2.109174443   -0.980122528   -1.683051022
   6  H       1.00    1.943291235   -1.585216034    0.000403039

 Bond lengths in Bohr (Angstrom)

 1-2  2.681667551  1-3  2.053787060  1-4  2.065780566  1-5  2.075515494  2-6  1.830967744
     ( 1.419077355)     ( 1.086817308)     ( 1.093163998)     ( 1.098315500)     ( 0.968906404)

 Bond angles

  1-2-6  107.24516617   2-1-3  106.69139544   2-1-4  112.55240168   2-1-5  112.15321605

  3-1-4  108.55049344   3-1-5  108.08721262   4-1-5  108.64372209

 NUCLEAR CHARGE:                   18
 NUMBER OF PRIMITIVE AOS:          82
 NUMBER OF SYMMETRY AOS:           80
 NUMBER OF CONTRACTIONS:           48   (   48A   )
 NUMBER OF INNER CORE ORBITALS:     0   (    0A   )
 NUMBER OF OUTER CORE ORBITALS:     2   (    2A   )
 NUMBER OF VALENCE ORBITALS:       12   (   12A   )


 NUCLEAR REPULSION ENERGY   40.28917756

 Eigenvalues of metric

         1 0.966E-02 0.177E-01 0.368E-01 0.375E-01 0.387E-01 0.474E-01 0.480E-01 0.520E-01


 Contracted 2-electron integrals neglected if value below      1.0D-16
 AO integral compression algorithm  1   Integral accuracy      1.0D-16

     7.078 MB (compressed) written to integral file (100.0%)

     Node minimum: 2.359 MB, node maximum: 2.359 MB


 NUMBER OF SORTED TWO-ELECTRON INTEGRALS:     231084.     BUFFER LENGTH:  32768
 NUMBER OF SEGMENTS:   1  SEGMENT LENGTH:     231084      RECORD LENGTH: 524288

 Memory used in sort:       0.79 MW

 SORT1 READ      832256. AND WROTE      227683. INTEGRALS IN      1 RECORDS. CPU TIME:     0.01 SEC, REAL TIME:     0.02 SEC
 SORT2 READ      682150. AND WROTE      692076. INTEGRALS IN     27 RECORDS. CPU TIME:     0.01 SEC, REAL TIME:     0.02 SEC

 Node minimum:      230300.  Node maximum:      231084. integrals

 OPERATOR DM      FOR CENTER  0  COORDINATES:    0.000000    0.000000    0.000000


 **********************************************************************************************************************************
 DATASETS  * FILE   NREC   LENGTH (MB)   RECORD NAMES
              1      18       28.73       500      610      700      900      950      970     1000      129      960     1100   
                                          VAR    BASINP    GEOM    SYMINP    ZMAT    AOBASIS   BASIS     P2S    ABASIS      S 
                                         1400     1410     1200     1210     1080     1600     1650     1700   
                                           T        V       H0       H01     AOSYM     SMH    MOLCAS    OPER   

 PROGRAMS   *        TOTAL       INT
 CPU TIMES  *         0.44      0.30
 REAL TIME  *         1.42 SEC
 DISK USED  *        29.07 MB (local),      104.68 MB (total)
 GA USED    *         0.00 MB       (max)       0.00 MB       (current)
 **********************************************************************************************************************************


 Program * Restricted Hartree-Fock

 Orbital guess generated from atomic densities. Full valence occupancy:   14

 Initial occupancy:   9

 NELEC=   18   SYM=1   MS2= 0   THRE=1.0D-12   THRD=1.0D-10   THRG=1.0D-10  HFMA2=F  DIIS_START=2   DIIS_MAX=10   DIIS_INCORE=F

 Level shifts:    0.00 (CLOSED)    0.00 (OPEN)    0.30 (GAP_MIN)

 ITER           ETOT              DE          GRAD        DDIFF     DIIS  NEXP   TIME(IT)  TIME(TOT)  DIAG
   1     -115.01369996    -115.01369996     0.00D+00     0.16D+00     0     0       0.00      0.00    start
   2     -115.04217869      -0.02847873     0.10D-01     0.20D-01     1     0       0.01      0.01    diag
   3     -115.04826188      -0.00608319     0.49D-02     0.64D-02     2     0       0.00      0.01    diag
   4     -115.04873298      -0.00047110     0.10D-02     0.20D-02     3     0       0.00      0.01    diag
   5     -115.04875492      -0.00002195     0.19D-03     0.44D-03     4     0       0.00      0.01    diag
   6     -115.04875578      -0.00000086     0.34D-04     0.95D-04     5     0       0.01      0.02    diag
   7     -115.04875582      -0.00000003     0.71D-05     0.16D-04     6     0       0.01      0.03    diag
   8     -115.04875582      -0.00000000     0.23D-05     0.53D-05     7     0       0.00      0.03    fixocc
   9     -115.04875582      -0.00000000     0.48D-06     0.15D-05     8     0       0.00      0.03    diag
  10     -115.04875582      -0.00000000     0.82D-07     0.26D-06     9     0       0.00      0.03    diag/orth
  11     -115.04875582      -0.00000000     0.20D-07     0.57D-07     9     0       0.01      0.04    diag
  12     -115.04875582      -0.00000000     0.49D-08     0.16D-07     9     0       0.00      0.04    diag
  13     -115.04875582       0.00000000     0.72D-09     0.20D-08     9     0       0.00      0.04    diag
  14     -115.04875582      -0.00000000     0.16D-09     0.42D-09     9     0       0.00      0.04    diag
  15     -115.04875582       0.00000000     0.68D-10     0.13D-09     9     0       0.00      0.04    diag
  16     -115.04875582      -0.00000000     0.17D-10     0.41D-10     9     0       0.00      0.04    diag
  17     -115.04875582      -0.00000000     0.43D-11     0.72D-11     0     0       0.01      0.05    diag

 Final occupancy:   9

 !RHF STATE 1.1 Energy               -115.048755821092
  RHF One-electron energy            -236.848586392644
  RHF Two-electron energy              81.510653014174
  RHF Kinetic energy                  114.929401812646
  RHF Nuclear energy                   40.289177557378
  RHF Virial quotient                  -1.001038498474

 !RHF STATE 1.1 Dipole moment          -0.38865221    -0.59852188     0.00394458
 Dipole moment /Debye                  -0.98785538    -1.52129088     0.01002611

 Orbital energies:

           1.1          2.1          3.1          4.1          5.1          6.1          7.1          8.1          9.1         10.1
    -20.550947   -11.274434    -1.348595    -0.920293    -0.681552    -0.613427    -0.584943    -0.496859    -0.442591     0.183854

          11.1
      0.223720


 HOMO      9.1    -0.442591 =     -12.0435eV
 LUMO     10.1     0.183854 =       5.0029eV
 LUMO-HOMO         0.626445 =      17.0465eV

 Orbitals saved in record  2100.2


 **********************************************************************************************************************************
 DATASETS  * FILE   NREC   LENGTH (MB)   RECORD NAMES
              1      18       28.73       500      610      700      900      950      970     1000      129      960     1100   
                                          VAR    BASINP    GEOM    SYMINP    ZMAT    AOBASIS   BASIS     P2S    ABASIS      S 
                                         1400     1410     1200     1210     1080     1600     1650     1700   
                                           T        V       H0       H01     AOSYM     SMH    MOLCAS    OPER   

              2       4        0.47       700     1000      520     2100   
                                         GEOM     BASIS   MCVARS     RHF  

 PROGRAMS   *        TOTAL   RHF-SCF       INT
 CPU TIMES  *         0.49      0.05      0.30
 REAL TIME  *         1.62 SEC
 DISK USED  *        29.40 MB (local),      105.67 MB (total)
 GA USED    *         0.00 MB       (max)       0.00 MB       (current)
 **********************************************************************************************************************************


 PROGRAM * CCSD (Closed-shell coupled cluster)     Authors: C. Hampel, H.-J. Werner, 1991, M. Deegan, P.J. Knowles, 1992


 Convergence thresholds:  THRVAR = 1.00D-08  THRDEN = 1.00D-12

 CCSD(T)     terms to be evaluated (factor= 1.000)


 Number of core orbitals:           2 (   2 )
 Number of closed-shell orbitals:   7 (   7 )
 Number of external orbitals:      39 (  39 )

 Molecular orbitals read from record     2100.2  Type=RHF/CANONICAL  

 Number of N-1 electron functions:               7
 Number of N-2 electron functions:              28
 Number of singly external CSFs:               273
 Number of doubly external CSFs:             37401
 Total number of CSFs:                       37675

 Length of J-op  integral file:               0.00 MB
 Length of K-op  integral file:               0.16 MB
 Length of 3-ext integral record:             0.00 MB

 Memory could be reduced to 0.73 Mwords without degradation in triples

 Integral transformation finished. Total CPU:   0.02 sec, npass=  1  Memory used:   0.66 MW

 Reference energy:                   -115.04875582

 MP2 singlet pair energy:              -0.21889732
 MP2 triplet pair energy:              -0.11996285
 MP2 correlation energy:               -0.33886017
 MP2 total energy:                   -115.38761599

 SCS-MP2 correlation energy:           -0.33732033   (PS=  1.200000  PT=  0.333333)
 SCS-MP2 total energy:               -115.38607615

 ITER.      SQ.NORM     CORR.ENERGY   TOTAL ENERGY   ENERGY CHANGE        DEN1      VAR(S)    VAR(P)  DIIS     TIME  TIME/IT
   1      1.10758132    -0.36162650  -115.41038232    -0.02276633    -0.01404869  0.92D-03  0.18D-02  1  1     0.05     0.04
   2      1.11615433    -0.36358301  -115.41233883    -0.00195651    -0.00928342  0.20D-04  0.16D-03  2  2     0.06     0.03
   3      1.11806092    -0.36371147  -115.41246729    -0.00012846    -0.00121794  0.96D-05  0.87D-05  3  3     0.08     0.03
   4      1.11858370    -0.36371038  -115.41246620     0.00000109    -0.00025787  0.35D-06  0.69D-06  4  4     0.10     0.03
   5      1.11868366    -0.36371083  -115.41246665    -0.00000045    -0.00003653  0.10D-06  0.50D-07  5  5     0.12     0.03
   6      1.11870332    -0.36370944  -115.41246526     0.00000139    -0.00000445  0.17D-07  0.42D-08  6  6     0.14     0.03
   7      1.11870829    -0.36370901  -115.41246483     0.00000043    -0.00000037  0.21D-08  0.76D-09  6  1     0.16     0.03
   8      1.11870961    -0.36370912  -115.41246494    -0.00000010     0.00000077  0.26D-09  0.76D-10  6  3     0.18     0.03
   9      1.11871071    -0.36370899  -115.41246481     0.00000013    -0.00000039  0.13D-10  0.11D-10  6  2     0.20     0.03
  10      1.11871076    -0.36370899  -115.41246481     0.00000000     0.00000000  0.14D-11  0.13D-11  6  4     0.22     0.03
  11      1.11871072    -0.36370899  -115.41246481     0.00000000     0.00000003  0.35D-12  0.87D-13  6  5     0.24     0.03
  12      1.11871067    -0.36370899  -115.41246481    -0.00000000     0.00000003  0.35D-13  0.13D-13  6  6     0.26     0.03
  13      1.11871065    -0.36370899  -115.41246482    -0.00000000     0.00000001  0.40D-14  0.16D-14  6  3     0.28     0.03
  14      1.11871065    -0.36370899  -115.41246482    -0.00000000     0.00000000  0.30D-15  0.15D-15  6  1     0.30     0.03
  15      1.11871065    -0.36370899  -115.41246482     0.00000000    -0.00000000  0.38D-16  0.33D-16  6  2     0.32     0.03
  16      1.11871065    -0.36370899  -115.41246482     0.00000000    -0.00000000  0.35D-17  0.17D-17  6  5     0.34     0.04
  17      1.11871065    -0.36370899  -115.41246482    -0.00000000     0.00000000  0.22D-18  0.14D-18  6  4     0.36     0.04
  18      1.11871065    -0.36370899  -115.41246482     0.00000000    -0.00000000  0.54D-19  0.16D-19  6  3     0.38     0.04
  19      1.11871065    -0.36370899  -115.41246482     0.00000000    -0.00000000  0.94D-20  0.20D-20  6  6     0.40     0.04
  20      1.11871065    -0.36370899  -115.41246482     0.00000000    -0.00000000  0.20D-20  0.42D-21  6  1     0.42     0.04

 Norm of t1 vector:      0.04189592      S-energy:     0.00000000      T1 diagnostic:  0.00791758
                                                                       D1 diagnostic:  0.01752848
                                                                       D2 diagnostic:  0.13448128 (internal)


 Total CPU time for triples:      0.09 sec


 RESULTS
 =======

  Reference energy                   -115.048755821092
  CCSD singlet pair energy             -0.254915068129
  CCSD triplet pair energy             -0.108793925869
  CCSD correlation energy              -0.363708993998

  Triples (T) contribution             -0.007766294005
  Total correlation energy             -0.371475288003

  CCSD total energy                  -115.412464815090
  CCSD[T] energy                     -115.420522848802
  CCSD-T energy                      -115.420080373117
 !CCSD(T) total energy               -115.420231109095

 Timing summary (sec):

 STEP                 CPU(USER)    SYS     CPU(TOT)    WALL
 Transformation          0.02      0.01      0.03      0.04
 CCSD iterations         0.40      0.07      0.47      0.76
 Triples                 0.09      0.00      0.09      0.09

 Program statistics:

 Available memory in ccsd:               999999795
 Min. memory needed in ccsd:                136177
 Max. memory used in ccsd:                  162910
 Max. memory used in cckext:                178997 (20 integral passes)



 **********************************************************************************************************************************
 DATASETS  * FILE   NREC   LENGTH (MB)   RECORD NAMES
              1      19       31.13       500      610      700      900      950      970     1000      129      960     1100   
                                          VAR    BASINP    GEOM    SYMINP    ZMAT    AOBASIS   BASIS     P2S    ABASIS      S 
                                         1400     1410     1200     1210     1080     1600     1650     1700     1380   
                                           T        V       H0       H01     AOSYM     SMH    MOLCAS    OPER     JKOP   

              2       4        0.47       700     1000      520     2100   
                                         GEOM     BASIS   MCVARS     RHF  

 PROGRAMS   *        TOTAL   CCSD(T)   RHF-SCF       INT
 CPU TIMES  *         1.03      0.54      0.05      0.30
 REAL TIME  *         2.58 SEC
 DISK USED  *        35.56 MB (local),      116.32 MB (total)
 SF USED    *         5.97 MB
 GA USED    *         0.00 MB       (max)       0.00 MB       (current)
 **********************************************************************************************************************************

 CCSD(T)/cc-pVDZ energy=   -115.420231109095

         CCSD(T)         RHF-SCF
   -115.42023111   -115.04875582
 **********************************************************************************************************************************
 Molpro calculation terminated
