
 Primary working directories    : /tmp/1225782.7.gen6.q
 Secondary working directories  : /tmp/1225782.7.gen6.q
 Wavefunction directory         : /home/vulcan/nlk36701/wfu/
 Main file repository           : /tmp/1225782.7.gen6.q/

 ARCHNAME  : Linux/x86_64
 FC        : /opt/intel/compilers_and_libraries_2016.1.150/linux/bin/intel64/ifort
 FCVERSION : 16.0.1
 BLASLIB   : -mkl
 id        : ccgc

 Nodes     nprocs
 n085         1
 ga_uses_ma=false, calling ma_init with nominal heap.
 GA-space will be limited to   8.0 MW (determined by -G option)

 Using customized tuning parameters: mindgm=10; mindgv=16; mindgc=4; mindgr=1; noblas=0; mincuda=1000; minvec=7
 default implementation of scratch files=df  

 ***,Optimization of min3
 memory,1000,m
 gthresh,energy=1.0d-12,orbital=1.0d-10,oneint=1.0d-16,twoint=1.0d-16,optgrad=1.0d-6,compress=1.0d-13
 geomtyp=xyz
 
  bohr
  geometry = {
  N   -0.0033951433   -0.0000000000    0.1333582274
  H    0.8850023404   -1.5228359443   -0.6181025378
  H    0.8850023404    1.5228359443   -0.6181025378
  H   -1.7666095474    0.0000000000   -0.6166564119
 }
 
 basis=cc-pvtz
 {rhf;maxit,200}
 {ccsd(t);maxit,200}

 Variables initialized (661), CPU time= 0.00 sec
 Commands  initialized (458), CPU time= 0.01 sec, 486 directives.
 Default parameters read. Elapsed time= 0.04 sec

 Checking input...
 Passed
1


                                         ***  PROGRAM SYSTEM MOLPRO  ***
                         Copyright, University College Cardiff Consultants Limited, 2008

                                    Version 2010.1 linked May 16 2016 07:17:05


 **********************************************************************************************************************************
 LABEL *   Optimization of min3                                                          
 Linux-4.4.3/n085(x86_64) 64 bit mpp version                                             DATE: 26-Mar-25          TIME: 14:45:37  
 **********************************************************************************************************************************

 SHA1:             9e8077add272b0f3cad6f7df79ec5211205f459d
 **********************************************************************************************************************************

 THRESHOLDS:

 ZERO    =  1.00D-12  ONEINT  =  1.00D-16  TWOINT  =  1.00D-16  PREFAC  =  1.00D-14  LOCALI  =  1.00D-09  EORDER  =  1.00D-04
 ENERGY  =  1.00D-12  ETEST   =  0.00D+00  EDENS   =  0.00D+00  THRDEDEF=  1.00D-06  GRADIENT=  1.00D-02  STEP    =  1.00D-03
 ORBITAL =  1.00D-10  CIVEC   =  1.00D-05  COEFF   =  1.00D-04  PRINTCI =  5.00D-02  PUNCHCI =  9.90D+01  OPTGRAD =  1.00D-06
 OPTENERG=  1.00D-06  OPTSTEP =  3.00D-04  THRGRAD =  1.00D-10  COMPRESS=  1.00D-13  VARMIN  =  1.00D-07  VARMAX  =  1.00D-03
 THRDOUB =  0.00D+00  THRDIV  =  1.00D-05  THRRED  =  1.00D-07  THRPSP  =  1.00D+00  THRDC   =  1.00D-10  THRCS   =  1.00D-10
 THRNRM  =  1.00D-08  THREQ   =  0.00D+00  THRDE   =  1.00D+00  THRREF  =  1.00D-05  SPARFAC =  1.00D+00  THRDLP  =  1.00D-07
 THRDIA  =  1.00D-10  THRDLS  =  1.00D-07  THRGPS  =  0.00D+00  THRKEX  =  0.00D+00  THRDIS  =  2.00D-01  THRVAR  =  1.00D-10
 THRLOC  =  1.00D-06  THRGAP  =  1.00D-06  THRLOCT = -1.00D+00  THRGAPT = -1.00D+00  THRORB  =  1.00D-06  THRMLTP =  0.00D+00
 THRCPQCI=  1.00D-10  KEXTA   =  0.00D+00  THRCOARS=  0.00D+00  SYMTOL  =  1.00D-06  GRADTOL =  1.00D-06  THROVL  =  1.00D-08
 THRORTH =  1.00D-08  GRID    =  1.00D-06  GRIDMAX =  1.00D-03  DTMAX   =  0.00D+00

 SETTING GEOMTYP        =    XYZ
 ZUNIT=BOHR
 

 Variable memory set to 1000000000 words,  buffer space   230000 words

 SETTING BASIS          =    CC-PVTZ


 Recomputing integrals since basis changed


 Using spherical harmonics

 Library entry N      S cc-pVTZ              selected for orbital group  1
 Library entry N      P cc-pVTZ              selected for orbital group  1
 Library entry N      D cc-pVTZ              selected for orbital group  1
 Library entry N      F cc-pVTZ              selected for orbital group  1
 Library entry H      S cc-pVTZ              selected for orbital group  2
 Library entry H      P cc-pVTZ              selected for orbital group  2
 Library entry H      D cc-pVTZ              selected for orbital group  2

1PROGRAM * SEWARD (Integral evaluation for generally contracted gaussian basis sets)     Author: Roland Lindh, 1990

 Geometry written to block  1 of record 700


 Point group  Cs  



 ATOMIC COORDINATES

 NR  ATOM    CHARGE       X              Y              Z

   1  N       7.00   -0.003395143    0.000000000    0.133358227
   2  H       1.00    0.885002340   -1.522835944   -0.618102538
   3  H       1.00    0.885002340    1.522835944   -0.618102538
   4  H       1.00   -1.766609547    0.000000000   -0.616656412

 Bond lengths in Bohr (Angstrom)

 1-2  1.916500113  1-3  1.916500113  1-4  1.916102031
     ( 1.014168181)     ( 1.014168181)     ( 1.013957525)

 Bond angles

  2-1-3  105.23350018   2-1-4  105.84797804   3-1-4  105.84797804

 NUCLEAR CHARGE:                   10
 NUMBER OF PRIMITIVE AOS:          98
 NUMBER OF SYMMETRY AOS:           90
 NUMBER OF CONTRACTIONS:           72   (  44A'  +  28A"  )
 NUMBER OF CORE ORBITALS:           1   (   1A'  +   0A"  )
 NUMBER OF VALENCE ORBITALS:        7   (   5A'  +   2A"  )


 NUCLEAR REPULSION ENERGY   11.94063477


 Eigenvalues of metric

         1 0.163E-02 0.396E-02 0.400E-02 0.856E-02 0.129E-01 0.324E-01 0.388E-01 0.426E-01
         2 0.399E-02 0.853E-02 0.389E-01 0.426E-01 0.717E-01 0.878E-01 0.140E+00 0.168E+00


 Contracted 2-electron integrals neglected if value below      1.0D-16
 AO integral compression algorithm  1   Integral accuracy      1.0D-16

     18.350 MB (compressed) written to integral file ( 99.3%)

     Node minimum: 18.350 MB, node maximum: 18.350 MB


 NUMBER OF SORTED TWO-ELECTRON INTEGRALS:    1778986.     BUFFER LENGTH:  32768
 NUMBER OF SEGMENTS:   1  SEGMENT LENGTH:    1778986      RECORD LENGTH: 524288

 Memory used in sort:       2.34 MW

 SORT1 READ     2325248. AND WROTE     1699146. INTEGRALS IN      5 RECORDS. CPU TIME:     0.02 SEC, REAL TIME:     0.03 SEC
 SORT2 READ     1699146. AND WROTE     1778986. INTEGRALS IN     70 RECORDS. CPU TIME:     0.03 SEC, REAL TIME:     0.04 SEC

 FILE SIZES:   FILE 1:    16.7 MBYTE,  FILE 4:    21.0 MBYTE,   TOTAL:     37.7 MBYTE

 OPERATOR DM      FOR CENTER  0  COORDINATES:    0.000000    0.000000    0.000000


 **********************************************************************************************************************************
 DATASETS  * FILE   NREC   LENGTH (MB)   RECORD NAMES
              1      19       16.71       500      610      700      900      950      970     1000      129      960     1100   
                                          VAR    BASINP    GEOM    SYMINP    ZMAT    AOBASIS   BASIS     P2S    ABASIS      S 
                                         1400     1410     1200     1210     1080     1600     1650     1300     1700   
                                           T        V       H0       H01     AOSYM     SMH    MOLCAS    ERIS     OPER   

 PROGRAMS   *        TOTAL       INT
 CPU TIMES  *         0.26      0.22
 REAL TIME  *         0.58 SEC
 DISK USED  *        56.60 MB      
 GA USED    *         0.00 MB       (max)       0.00 MB       (current)
 **********************************************************************************************************************************

1PROGRAM * RHF-SCF (CLOSED SHELL)       Authors: W. Meyer, H.-J. Werner


 NUMBER OF ELECTRONS:       5+    5-
 CONVERGENCE THRESHOLDS:    1.00E-10 (Density)    1.00E-13 (Energy)
 MAX. NUMBER OF ITERATIONS:      200
 INTERPOLATION TYPE:            DIIS
 INTERPOLATION STEPS:              2 (START)      1 (STEP)
 LEVEL SHIFTS:                  0.00 (CLOSED)  0.00 (OPEN) 



 Orbital guess generated from atomic densities. Full valence occupancy:    6   2

 Molecular orbital dump at record        2100.2

 Initial alpha occupancy:   4   1
 Initial beta  occupancy:   4   1
 Wave function symmetry:    1

 ITERATION    DDIFF          GRAD             ENERGY        2-EL.EN.            DIPOLE MOMENTS         DIIS
    1      0.000D+00      0.000D+00       -56.19177388     64.221322    0.00379    0.00000   -0.92992    0
    2      0.000D+00      0.869D-02       -56.21266443     62.114159    0.00148    0.00000   -0.59238    1
    3      0.161D-01      0.425D-02       -56.21737723     63.009317    0.00213    0.00000   -0.67088    2
    4      0.516D-02      0.648D-03       -56.21759994     62.922412    0.00206    0.00000   -0.67006    3
    5      0.103D-02      0.151D-03       -56.21761436     62.932929    0.00205    0.00000   -0.66963    4
    6      0.270D-03      0.258D-04       -56.21761497     62.932606    0.00205    0.00000   -0.66984    5
    7      0.664D-04      0.498D-05       -56.21761499     62.932718    0.00205    0.00000   -0.66988    6
    8      0.166D-04      0.111D-05       -56.21761500     62.932692    0.00205    0.00000   -0.66990    6
    9      0.334D-05      0.208D-06       -56.21761500     62.932689    0.00205    0.00000   -0.66991    6
   10      0.735D-06      0.522D-07       -56.21761500     62.932687    0.00205    0.00000   -0.66991    6
   11      0.228D-06      0.771D-08       -56.21761500     62.932688    0.00205    0.00000   -0.66991    6
   12      0.199D-07      0.187D-08       -56.21761500     62.932688    0.00205    0.00000   -0.66991    6
   13      0.392D-08      0.377D-09       -56.21761500     62.932688    0.00205    0.00000   -0.66991    6
   14      0.811D-09      0.605D-10       -56.21761500     62.932688    0.00205    0.00000   -0.66991    6
   15      0.117D-09      0.107D-10       -56.21761500     62.932688    0.00205    0.00000   -0.66991    6
   16      0.207D-10      0.334D-11       -56.21761500     62.932688    0.00205    0.00000   -0.66991    0

 Final occupancy:   4   1

 !RHF STATE 1.1 Energy                -56.217614995122
 Nuclear energy                        11.94063477
 One-electron energy                  -99.62459374
 Two-electron energy                   31.46634398
 Virial quotient                       -1.00114498
 !RHF STATE 1.1 Dipole moment           0.00204961     0.00000000    -0.66991007
 Dipole moment /Debye                   0.00520924     0.00000000    -1.70263003

 Orbital energies:

         1.1          2.1          3.1          4.1          5.1          6.1
    -15.535282    -1.138477    -0.622352    -0.429355     0.136676     0.216782

         1.2          2.2          3.2
     -0.620488     0.217091     0.476244


 **********************************************************************************************************************************
 DATASETS  * FILE   NREC   LENGTH (MB)   RECORD NAMES
              1      19       16.71       500      610      700      900      950      970     1000      129      960     1100   
                                          VAR    BASINP    GEOM    SYMINP    ZMAT    AOBASIS   BASIS     P2S    ABASIS      S 
                                         1400     1410     1200     1210     1080     1600     1650     1300     1700   
                                           T        V       H0       H01     AOSYM     SMH    MOLCAS    ERIS     OPER   

              2       3        0.37       700     1000     2100   
                                         GEOM     BASIS     RHF  

 PROGRAMS   *        TOTAL       RHF       INT
 CPU TIMES  *         0.37      0.11      0.22
 REAL TIME  *         1.60 SEC
 DISK USED  *        56.60 MB      
 GA USED    *         0.00 MB       (max)       0.00 MB       (current)
 **********************************************************************************************************************************


1PROGRAM * CCSD (Closed-shell coupled cluster)     Authors: C. Hampel, H.-J. Werner, 1991, M. Deegan, P.J. Knowles, 1992


 Convergence thresholds:  THRVAR = 1.00D-08  THRDEN = 1.00D-12

 CCSD(T)     terms to be evaluated (factor= 1.000)


 Number of core orbitals:           1 (   1   0 )
 Number of closed-shell orbitals:   4 (   3   1 )
 Number of external orbitals:      67 (  40  27 )

 Molecular orbitals read from record     2100.2  Type=RHF/CANONICAL (state 1.1)

 Number of N-1 electron functions:               4
 Number of N-2 electron functions:              10
 Number of singly external CSFs:               147
 Number of doubly external CSFs:             18259
 Total number of CSFs:                       18407

 Length of J-op  integral file:               0.00 MB
 Length of K-op  integral file:               0.22 MB
 Length of 3-ext integral record:             0.00 MB

 Memory could be reduced to 1.32 Mwords without degradation in triples

 Integral transformation finished. Total CPU:   0.01 sec, npass=  1  Memory used:   0.41 MW

 Reference energy:                    -56.21761500

 MP2 singlet pair energy:              -0.15730087
 MP2 triplet pair energy:              -0.07805288
 MP2 correlation energy:               -0.23535376
 MP2 total energy:                    -56.45296875

 SCS-MP2 correlation energy:           -0.23732729   (PS=  1.200000  PT=  0.333333)
 SCS-MP2 total energy:                -56.45494228

 ITER.      SQ.NORM     CORR.ENERGY   TOTAL ENERGY   ENERGY CHANGE        DEN1      VAR(S)    VAR(P)  DIIS     TIME
   1      1.06935280    -0.24706154   -56.46467653    -0.01170778    -0.00658174  0.40D-03  0.90D-03  1  1     0.05
   2      1.07337038    -0.24780563   -56.46542063    -0.00074409    -0.00489476  0.14D-04  0.89D-04  2  2     0.07
   3      1.07460862    -0.24788730   -56.46550230    -0.00008167    -0.00088258  0.11D-05  0.53D-05  3  3     0.09
   4      1.07492503    -0.24790233   -56.46551733    -0.00001503    -0.00016912  0.22D-06  0.24D-06  4  4     0.12
   5      1.07496978    -0.24790189   -56.46551689     0.00000044    -0.00001700  0.50D-07  0.17D-07  5  5     0.14
   6      1.07497596    -0.24790145   -56.46551644     0.00000044    -0.00000261  0.13D-07  0.18D-08  6  6     0.16
   7      1.07497908    -0.24790166   -56.46551666    -0.00000022    -0.00000012  0.16D-08  0.44D-09  6  1     0.19
   8      1.07498006    -0.24790165   -56.46551665     0.00000001     0.00000018  0.11D-09  0.33D-10  6  2     0.21
   9      1.07498053    -0.24790162   -56.46551662     0.00000003    -0.00000009  0.77D-12  0.22D-11  6  3     0.24
  10      1.07498057    -0.24790162   -56.46551661     0.00000000    -0.00000001  0.77D-13  0.11D-12  6  4     0.26
  11      1.07498059    -0.24790162   -56.46551661    -0.00000000    -0.00000001  0.64D-14  0.51D-14  6  5     0.29
  12      1.07498059    -0.24790162   -56.46551661    -0.00000000    -0.00000000  0.44D-15  0.35D-15  6  6     0.31
  13      1.07498059    -0.24790162   -56.46551661     0.00000000    -0.00000000  0.62D-16  0.22D-16  6  1     0.33
  14      1.07498059    -0.24790162   -56.46551661    -0.00000000    -0.00000000  0.37D-17  0.18D-17  6  2     0.36
  15      1.07498059    -0.24790162   -56.46551661    -0.00000000     0.00000000  0.81D-18  0.19D-18  6  3     0.38
  16      1.07498059    -0.24790162   -56.46551661    -0.00000000     0.00000000  0.26D-18  0.33D-19  6  4     0.41
  17      1.07498059    -0.24790162   -56.46551661    -0.00000000     0.00000000  0.33D-19  0.64D-20  6  5     0.43
  18      1.07498059    -0.24790162   -56.46551661    -0.00000000    -0.00000000  0.25D-20  0.69D-21  6  6     0.45

 Norm of t1 vector:      0.02460036      S-energy:    -0.00000000      T1 diagnostic:  0.00615009
                                                                       D1 diagnostic:  0.01003832


 Total CPU time for triples:      0.07 sec


 RESULTS
 =======

  Reference energy                    -56.217614995122
  CCSD singlet pair energy             -0.176589327568
  CCSD triplet pair energy             -0.071312290490
  CCSD correlation energy              -0.247901618058

  Triples (T) contribution             -0.007674561036
  Total correlation energy             -0.255576179094

  CCSD total energy                   -56.465516613180
  CCSD[T] energy                      -56.473370492667
  CCSD-T energy                       -56.473096274441
 !CCSD(T) total energy                -56.473191174216

 Timing summary (sec):

 STEP                 CPU(USER)    SYS     CPU(TOT)    WALL
 Transformation          0.01      0.01      0.02      0.04
 CCSD iterations         0.44      0.04      0.48      0.81
 Triples                 0.07      0.01      0.08      0.09

 Program statistics:

 Available memory in ccsd:               999999836
 Min. memory needed in ccsd:                 91215
 Max. memory used in ccsd:                  103594
 Max. memory used in cckext:                158354 (18 integral passes)



 **********************************************************************************************************************************
 DATASETS  * FILE   NREC   LENGTH (MB)   RECORD NAMES
              1      20       19.54       500      610      700      900      950      970     1000      129      960     1100   
                                          VAR    BASINP    GEOM    SYMINP    ZMAT    AOBASIS   BASIS     P2S    ABASIS      S 
                                         1400     1410     1200     1210     1080     1600     1650     1300     1700     1380   
                                           T        V       H0       H01     AOSYM     SMH    MOLCAS    ERIS     OPER     JKOP   

              2       3        0.37       700     1000     2100   
                                         GEOM     BASIS     RHF  

 PROGRAMS   *        TOTAL   CCSD(T)       RHF       INT
 CPU TIMES  *         0.90      0.53      0.11      0.22
 REAL TIME  *         2.61 SEC
 DISK USED  *        56.60 MB      
 GA USED    *         0.00 MB       (max)       0.00 MB       (current)
 **********************************************************************************************************************************

        CCSD(T)         RHF-SCF 
    -56.47319117    -56.21761500
 **********************************************************************************************************************************
 Variable memory released
