
 Primary working directories    : /tmp/795519.67.gen4.q
 Secondary working directories  : /tmp/795519.67.gen4.q
 Wavefunction directory         : /home/vulcan/mel64643/wfu/
 Main file repository           : /tmp/795519.67.gen4.q/

 ARCHNAME  : Linux/x86_64
 FC        : /opt/intel/compilers_and_libraries_2016.1.150/linux/bin/intel64/ifort
 FCVERSION : 16.0.1
 BLASLIB   : -mkl
 id        : ccgc

 Nodes     nprocs
 n040         1
 ga_uses_ma=false, calling ma_init with nominal heap.
 GA-space will be limited to   8.0 MW (determined by -G option)

 Using customized tuning parameters: mindgm=10; mindgv=16; mindgc=4; mindgr=1; noblas=0; mincuda=1000; minvec=7
 default implementation of scratch files=df  

 ***,Optimization of min3
 memory,1000,m
 gthresh,energy=1.0d-12,orbital=1.0d-10,oneint=1.0d-16,twoint=1.0d-16,optgrad=1.0d-6,compress=1.0d-13
 geomtyp=xyz
 
  bohr
  geometry = {
  6
  arbitrary comment
  C   -1.3785558275   -0.0244603867    0.0027269599
  O    1.3078936498    0.1179113084   -0.0008955142
  H   -2.0777560947    1.9112678139   -0.0010101669
  H   -2.1153535842   -0.9790016133    1.6814665758
  H   -2.1151433018   -0.9784320484   -1.6824788287
  H    1.9551909984   -1.5774171939    0.0001825641
 }
 
 basis=cc-pvdz
 {rhf;maxit,200}
 {ccsd(t);maxit,200}

 Variables initialized (661), CPU time= 0.00 sec
 Commands  initialized (458), CPU time= 0.00 sec, 486 directives.
 Default parameters read. Elapsed time= 0.05 sec

 Checking input...
 Passed
1


                                         ***  PROGRAM SYSTEM MOLPRO  ***
                         Copyright, University College Cardiff Consultants Limited, 2008

                                    Version 2010.1 linked May 16 2016 07:17:05


 **********************************************************************************************************************************
 LABEL *   Optimization of min3                                                          
 Linux-4.4.3/n040(x86_64) 64 bit mpp version                                             DATE: 24-Oct-22          TIME: 15:42:06  
 **********************************************************************************************************************************

 SHA1:             9e8077add272b0f3cad6f7df79ec5211205f459d
 **********************************************************************************************************************************

 THRESHOLDS:

 ZERO    =  1.00D-12  ONEINT  =  1.00D-16  TWOINT  =  1.00D-16  PREFAC  =  1.00D-14  LOCALI  =  1.00D-09  EORDER  =  1.00D-04
 ENERGY  =  1.00D-12  ETEST   =  0.00D+00  EDENS   =  0.00D+00  THRDEDEF=  1.00D-06  GRADIENT=  1.00D-02  STEP    =  1.00D-03
 ORBITAL =  1.00D-10  CIVEC   =  1.00D-05  COEFF   =  1.00D-04  PRINTCI =  5.00D-02  PUNCHCI =  9.90D+01  OPTGRAD =  1.00D-06
 OPTENERG=  1.00D-06  OPTSTEP =  3.00D-04  THRGRAD =  1.00D-10  COMPRESS=  1.00D-13  VARMIN  =  1.00D-07  VARMAX  =  1.00D-03
 THRDOUB =  0.00D+00  THRDIV  =  1.00D-05  THRRED  =  1.00D-07  THRPSP  =  1.00D+00  THRDC   =  1.00D-10  THRCS   =  1.00D-10
 THRNRM  =  1.00D-08  THREQ   =  0.00D+00  THRDE   =  1.00D+00  THRREF  =  1.00D-05  SPARFAC =  1.00D+00  THRDLP  =  1.00D-07
 THRDIA  =  1.00D-10  THRDLS  =  1.00D-07  THRGPS  =  0.00D+00  THRKEX  =  0.00D+00  THRDIS  =  2.00D-01  THRVAR  =  1.00D-10
 THRLOC  =  1.00D-06  THRGAP  =  1.00D-06  THRLOCT = -1.00D+00  THRGAPT = -1.00D+00  THRORB  =  1.00D-06  THRMLTP =  0.00D+00
 THRCPQCI=  1.00D-10  KEXTA   =  0.00D+00  THRCOARS=  0.00D+00  SYMTOL  =  1.00D-06  GRADTOL =  1.00D-06  THROVL  =  1.00D-08
 THRORTH =  1.00D-08  GRID    =  1.00D-06  GRIDMAX =  1.00D-03  DTMAX   =  0.00D+00

 SETTING GEOMTYP        =    XYZ
 ZUNIT=BOHR
 

 Variable memory set to 1000000000 words,  buffer space   230000 words

 SETTING BASIS          =    CC-PVDZ


 Recomputing integrals since basis changed


 Using spherical harmonics

 Library entry C      S cc-pVDZ              selected for orbital group  1
 Library entry C      P cc-pVDZ              selected for orbital group  1
 Library entry C      D cc-pVDZ              selected for orbital group  1
 Library entry O      S cc-pVDZ              selected for orbital group  2
 Library entry O      P cc-pVDZ              selected for orbital group  2
 Library entry O      D cc-pVDZ              selected for orbital group  2
 Library entry H      S cc-pVDZ              selected for orbital group  3
 Library entry H      P cc-pVDZ              selected for orbital group  3

1PROGRAM * SEWARD (Integral evaluation for generally contracted gaussian basis sets)     Author: Roland Lindh, 1990

 Geometry written to block  1 of record 700


 Point group  C1  



 ATOMIC COORDINATES

 NR  ATOM    CHARGE       X              Y              Z

   1  C       6.00   -1.378555828   -0.024460387    0.002726960
   2  O       8.00    1.307893650    0.117911308   -0.000895514
   3  H       1.00   -2.077756095    1.911267814   -0.001010167
   4  H       1.00   -2.115353584   -0.979001613    1.681466576
   5  H       1.00   -2.115143302   -0.978432048   -1.682478829
   6  H       1.00    1.955190998   -1.577417194    0.000182564

 Bond lengths in Bohr (Angstrom)

 1-2  2.690221853  1-3  2.058139608  1-4  2.066926846  1-5  2.071844972  2-6  1.814699355
     ( 1.423604092)     ( 1.089120574)     ( 1.093770579)     ( 1.096373140)     ( 0.960297540)

 Bond angles

  1-2-6  107.86378303   2-1-3  106.82630574   2-1-4  112.42688552   2-1-5  112.22819519

  3-1-4  108.34405899   3-1-5  108.10763574   4-1-5  108.73846384

 NUCLEAR CHARGE:                   18
 NUMBER OF PRIMITIVE AOS:          82
 NUMBER OF SYMMETRY AOS:           80
 NUMBER OF CONTRACTIONS:           48   (  48A   )
 NUMBER OF CORE ORBITALS:           2   (   2A   )
 NUMBER OF VALENCE ORBITALS:       12   (  12A   )


 NUCLEAR REPULSION ENERGY   40.24897556


 Eigenvalues of metric

         1 0.968E-02 0.177E-01 0.369E-01 0.375E-01 0.382E-01 0.474E-01 0.479E-01 0.519E-01


 Contracted 2-electron integrals neglected if value below      1.0D-16
 AO integral compression algorithm  1   Integral accuracy      1.0D-16

     6.816 MB (compressed) written to integral file (100.0%)

     Node minimum: 6.816 MB, node maximum: 6.816 MB


 NUMBER OF SORTED TWO-ELECTRON INTEGRALS:     692076.     BUFFER LENGTH:  32768
 NUMBER OF SEGMENTS:   1  SEGMENT LENGTH:     692076      RECORD LENGTH: 524288

 Memory used in sort:       1.25 MW

 SORT1 READ      832256. AND WROTE      682150. INTEGRALS IN      2 RECORDS. CPU TIME:     0.00 SEC, REAL TIME:     0.01 SEC
 SORT2 READ      682150. AND WROTE      692076. INTEGRALS IN     26 RECORDS. CPU TIME:     0.02 SEC, REAL TIME:     0.03 SEC

 FILE SIZES:   FILE 1:     8.4 MBYTE,  FILE 4:     8.4 MBYTE,   TOTAL:     16.8 MBYTE

 OPERATOR DM      FOR CENTER  0  COORDINATES:    0.000000    0.000000    0.000000


 **********************************************************************************************************************************
 DATASETS  * FILE   NREC   LENGTH (MB)   RECORD NAMES
              1      19        8.40       500      610      700      900      950      970     1000      129      960     1100   
                                          VAR    BASINP    GEOM    SYMINP    ZMAT    AOBASIS   BASIS     P2S    ABASIS      S 
                                         1400     1410     1200     1210     1080     1600     1650     1300     1700   
                                           T        V       H0       H01     AOSYM     SMH    MOLCAS    ERIS     OPER   

 PROGRAMS   *        TOTAL       INT
 CPU TIMES  *         0.34      0.29
 REAL TIME  *         0.53 SEC
 DISK USED  *        24.23 MB      
 GA USED    *         0.00 MB       (max)       0.00 MB       (current)
 **********************************************************************************************************************************

1PROGRAM * RHF-SCF (CLOSED SHELL)       Authors: W. Meyer, H.-J. Werner


 NUMBER OF ELECTRONS:       9+    9-    SPACE SYMMETRY=1    SPIN SYMMETRY: Singlet 
 CONVERGENCE THRESHOLDS:    1.00E-10 (Density)    1.00E-13 (Energy)
 MAX. NUMBER OF ITERATIONS:      200
 INTERPOLATION TYPE:            DIIS
 INTERPOLATION STEPS:              2 (START)      1 (STEP)
 LEVEL SHIFTS:                  0.00 (CLOSED)  0.00 (OPEN) 



 Orbital guess generated from atomic densities. Full valence occupancy:   14

 Molecular orbital dump at record        2100.2

 ITERATION    DDIFF          GRAD             ENERGY        2-EL.EN.            DIPOLE MOMENTS         DIIS
    1      0.000D+00      0.000D+00      -115.01415977    164.283012   -0.49486   -0.89971    0.00088    0
    2      0.000D+00      0.110D-01      -115.04247849    162.063976   -0.31661   -0.53556    0.00129    1
    3      0.205D-01      0.531D-02      -115.04852942    163.089943   -0.40049   -0.61033    0.00171    2
    4      0.640D-02      0.112D-02      -115.04899310    162.933951   -0.39038   -0.59922    0.00186    3
    5      0.204D-02      0.202D-03      -115.04901407    162.940277   -0.39320   -0.59492    0.00193    4
    6      0.433D-03      0.354D-04      -115.04901487    162.940446   -0.39350   -0.59471    0.00194    5
    7      0.929D-04      0.735D-05      -115.04901490    162.939253   -0.39363   -0.59454    0.00194    6
    8      0.150D-04      0.237D-05      -115.04901490    162.939633   -0.39366   -0.59451    0.00195    7
    9      0.506D-05      0.488D-06      -115.04901490    162.939593   -0.39367   -0.59451    0.00195    6
   10      0.141D-05      0.867D-07      -115.04901490    162.939592   -0.39368   -0.59451    0.00194    6
   11      0.234D-06      0.325D-07      -115.04901490    162.939597   -0.39368   -0.59451    0.00194    6
   12      0.592D-07      0.135D-07      -115.04901490    162.939595   -0.39368   -0.59451    0.00194    7
   13      0.249D-07      0.306D-08      -115.04901490    162.939595   -0.39368   -0.59451    0.00194    7
   14      0.758D-08      0.647D-09      -115.04901490    162.939595   -0.39368   -0.59451    0.00194    7
   15      0.165D-08      0.151D-09      -115.04901490    162.939595   -0.39368   -0.59451    0.00194    7
   16      0.335D-09      0.452D-10      -115.04901490    162.939595   -0.39368   -0.59451    0.00194    7
   17      0.869D-10      0.150D-10      -115.04901490    162.939595   -0.39368   -0.59451    0.00194    0

 Final occupancy:   9

 !RHF STATE 1.1 Energy               -115.049014899943
 Nuclear energy                        40.24897556
 One-electron energy                 -236.76778820
 Two-electron energy                   81.46979774
 Virial quotient                       -1.00101314
 !RHF STATE 1.1 Dipole moment          -0.39367772    -0.59451373     0.00194495
 Dipole moment /Debye                  -1.00056342    -1.51100421     0.00494324

 Orbital energies:

         1.1          2.1          3.1          4.1          5.1          6.1          7.1          8.1          9.1         10.1
    -20.549847   -11.275106    -1.348355    -0.921431    -0.681983    -0.612984    -0.584370    -0.496817    -0.443205     0.184666

        11.1
      0.223991


 **********************************************************************************************************************************
 DATASETS  * FILE   NREC   LENGTH (MB)   RECORD NAMES
              1      19        8.40       500      610      700      900      950      970     1000      129      960     1100   
                                          VAR    BASINP    GEOM    SYMINP    ZMAT    AOBASIS   BASIS     P2S    ABASIS      S 
                                         1400     1410     1200     1210     1080     1600     1650     1300     1700   
                                           T        V       H0       H01     AOSYM     SMH    MOLCAS    ERIS     OPER   

              2       3        0.39       700     1000     2100   
                                         GEOM     BASIS     RHF  

 PROGRAMS   *        TOTAL       RHF       INT
 CPU TIMES  *         0.43      0.09      0.29
 REAL TIME  *         0.66 SEC
 DISK USED  *        24.23 MB      
 GA USED    *         0.00 MB       (max)       0.00 MB       (current)
 **********************************************************************************************************************************


1PROGRAM * CCSD (Closed-shell coupled cluster)     Authors: C. Hampel, H.-J. Werner, 1991, M. Deegan, P.J. Knowles, 1992


 Convergence thresholds:  THRVAR = 1.00D-08  THRDEN = 1.00D-12

 CCSD(T)     terms to be evaluated (factor= 1.000)


 Number of core orbitals:           2 (   2 )
 Number of closed-shell orbitals:   7 (   7 )
 Number of external orbitals:      39 (  39 )

 Molecular orbitals read from record     2100.2  Type=RHF/CANONICAL (state 1.1)

 Number of N-1 electron functions:               7
 Number of N-2 electron functions:              28
 Number of singly external CSFs:               273
 Number of doubly external CSFs:             37401
 Total number of CSFs:                       37675

 Length of J-op  integral file:               0.00 MB
 Length of K-op  integral file:               0.19 MB
 Length of 3-ext integral record:             0.00 MB

 Memory could be reduced to 0.96 Mwords without degradation in triples

 Integral transformation finished. Total CPU:   0.02 sec, npass=  1  Memory used:   0.66 MW

 Reference energy:                   -115.04901490

 MP2 singlet pair energy:              -0.21872256
 MP2 triplet pair energy:              -0.11983202
 MP2 correlation energy:               -0.33855458
 MP2 total energy:                   -115.38756948

 SCS-MP2 correlation energy:           -0.33702921   (PS=  1.200000  PT=  0.333333)
 SCS-MP2 total energy:               -115.38604411

 ITER.      SQ.NORM     CORR.ENERGY   TOTAL ENERGY   ENERGY CHANGE        DEN1      VAR(S)    VAR(P)  DIIS     TIME
   1      1.10744286    -0.36135816  -115.41037306    -0.02280358    -0.01410595  0.92D-03  0.17D-02  1  1     0.07
   2      1.11599448    -0.36330882  -115.41232372    -0.00195066    -0.00926578  0.20D-04  0.16D-03  2  2     0.12
   3      1.11788928    -0.36343726  -115.41245216    -0.00012844    -0.00121080  0.96D-05  0.87D-05  3  3     0.17
   4      1.11840908    -0.36343594  -115.41245084     0.00000132    -0.00025658  0.35D-06  0.68D-06  4  4     0.22
   5      1.11850878    -0.36343634  -115.41245124    -0.00000040    -0.00003648  0.10D-06  0.50D-07  5  5     0.27
   6      1.11852833    -0.36343496  -115.41244986     0.00000138    -0.00000444  0.16D-07  0.42D-08  6  6     0.32
   7      1.11853323    -0.36343453  -115.41244943     0.00000043    -0.00000036  0.21D-08  0.74D-09  6  1     0.37
   8      1.11853453    -0.36343463  -115.41244953    -0.00000010     0.00000076  0.26D-09  0.75D-10  6  3     0.42
   9      1.11853562    -0.36343451  -115.41244941     0.00000013    -0.00000039  0.13D-10  0.11D-10  6  2     0.47
  10      1.11853554    -0.36343451  -115.41244941    -0.00000000     0.00000007  0.11D-11  0.91D-12  6  5     0.52
  11      1.11853557    -0.36343451  -115.41244941     0.00000000    -0.00000000  0.20D-12  0.52D-13  6  4     0.57
  12      1.11853556    -0.36343451  -115.41244941    -0.00000000     0.00000001  0.20D-13  0.11D-13  6  1     0.62
  13      1.11853556    -0.36343451  -115.41244941    -0.00000000    -0.00000000  0.24D-14  0.99D-15  6  6     0.67
  14      1.11853556    -0.36343451  -115.41244941     0.00000000    -0.00000000  0.23D-15  0.13D-15  6  3     0.72
  15      1.11853556    -0.36343451  -115.41244941    -0.00000000    -0.00000000  0.26D-16  0.17D-16  6  2     0.77
  16      1.11853556    -0.36343451  -115.41244941    -0.00000000    -0.00000000  0.59D-17  0.17D-17  6  5     0.82
  17      1.11853556    -0.36343451  -115.41244941    -0.00000000    -0.00000000  0.58D-18  0.26D-18  6  4     0.87
  18      1.11853556    -0.36343451  -115.41244941     0.00000000    -0.00000000  0.90D-19  0.45D-19  6  1     0.91
  19      1.11853556    -0.36343451  -115.41244941    -0.00000000    -0.00000000  0.11D-19  0.46D-20  6  6     0.97
  20      1.11853556    -0.36343451  -115.41244941     0.00000000     0.00000000  0.16D-20  0.62D-21  6  3     1.01

 Norm of t1 vector:      0.04179962      S-energy:    -0.00000000      T1 diagnostic:  0.00789939
                                                                       D1 diagnostic:  0.01766325


 Total CPU time for triples:      0.25 sec


 RESULTS
 =======

  Reference energy                   -115.049014899943
  CCSD singlet pair energy             -0.254715655310
  CCSD triplet pair energy             -0.108718853724
  CCSD correlation energy              -0.363434509035

  Triples (T) contribution             -0.007749217867
  Total correlation energy             -0.371183726902

  CCSD total energy                  -115.412449408978
  CCSD[T] energy                     -115.420490003907
  CCSD-T energy                      -115.420047960701
 !CCSD(T) total energy               -115.420198626845

 Timing summary (sec):

 STEP                 CPU(USER)    SYS     CPU(TOT)    WALL
 Transformation          0.02      0.01      0.03      0.03
 CCSD iterations         0.99      0.05      1.04      1.07
 Triples                 0.25      0.00      0.25      0.25

 Program statistics:

 Available memory in ccsd:               999999704
 Min. memory needed in ccsd:                136801
 Max. memory used in ccsd:                  163198
 Max. memory used in cckext:                182024 (20 integral passes)



 **********************************************************************************************************************************
 DATASETS  * FILE   NREC   LENGTH (MB)   RECORD NAMES
              1      20       10.93       500      610      700      900      950      970     1000      129      960     1100   
                                          VAR    BASINP    GEOM    SYMINP    ZMAT    AOBASIS   BASIS     P2S    ABASIS      S 
                                         1400     1410     1200     1210     1080     1600     1650     1300     1700     1380   
                                           T        V       H0       H01     AOSYM     SMH    MOLCAS    ERIS     OPER     JKOP   

              2       3        0.39       700     1000     2100   
                                         GEOM     BASIS     RHF  

 PROGRAMS   *        TOTAL   CCSD(T)       RHF       INT
 CPU TIMES  *         1.70      1.27      0.09      0.29
 REAL TIME  *         2.04 SEC
 DISK USED  *        25.66 MB      
 GA USED    *         0.00 MB       (max)       0.00 MB       (current)
 **********************************************************************************************************************************

        CCSD(T)         RHF-SCF 
   -115.42019863   -115.04901490
 **********************************************************************************************************************************
 Variable memory released
