
 Working directory              : /scratch/mel64643/tmp/40073203/
 Global scratch directory       : /scratch/mel64643/tmp/40073203/
 Wavefunction directory         : /home/mel64643/wfu/
 Main file repository           : /scratch/mel64643/tmp/40073203/

 id        : ccgc

 Nodes     nprocs
 a1-8         3
 Distribution of processes:   nprocs(total)=    4   nprocs(compute)=    3   nprocs(helper)=    1
 GA implementation: MPI file
 GA implementation (serial work in mppx): MPI file

 Using customized tuning parameters: mindgm=1; mindgv=20; mindgc=4; mindgr=1; noblas=0; minvec=7
 default implementation of scratch files=sf  


 Variables initialized (1015), CPU time= 0.00 sec
 ***,Optimization of min3
 memory,1000,m
 gthresh,energy=1.0d-12,orbital=1.0d-10,oneint=1.0d-16,twoint=1.0d-16,optgrad=1.0d-6,compress=1.0d-13
 geomtyp=xyz
 
  bohr
  geometry = {
  6
  arbitrary comment
  C   -1.3708510871   -0.0184292488    0.0000000567
  O    1.3017952330    0.1287865385    0.0000003333
  H   -2.0768224993    1.9079447637   -0.0000798225
  H   -2.1106178734   -0.9816094905    1.6813832242
  H   -2.1106107171   -0.9817407307   -1.6813108122
  H    1.9433827839   -1.5850839523   -0.0000013895
 }
 
 basis=cc-pvdz
 {rhf;maxit,200}
 {ccsd(t);maxit,200}
 Commands initialized (818), CPU time= 0.01 sec, 672 directives.
 Default parameters read. Elapsed time= 0.10 sec

 Checking input...
 Passed
1


                                         ***  PROGRAM SYSTEM MOLPRO  ***
                                       Copyright, TTI GmbH Stuttgart, 2015
                                    Version 2022.1 linked Mar  4 2022 00:40:14


 **********************************************************************************************************************************
 LABEL *   Optimization of min3                                                          
  64 bit mpp version                                                                     DATE: 07-Aug-25          TIME: 21:24:35  
 **********************************************************************************************************************************

 SHA1:             31073afc4d8441e10870424e0d77336a33bc4286
 **********************************************************************************************************************************

 Memory per process:      1000 MW
 Total memory per node:   3000 MW

 GA preallocation disabled
 GA check disabled

 Variable memory set to 1000.0 MW


 THRESHOLDS:

 ZERO    =  1.00D-12  ONEINT  =  1.00D-16  TWOINT  =  1.00D-16  PREFAC  =  1.00D-14  XXXXXX  =  1.00D-09  EORDER  =  1.00D-04
 ENERGY  =  1.00D-12  ETEST   =  0.00D+00  EDENS   =  0.00D+00  THRDEDEF=  1.00D-06  GRADIENT=  1.00D-05  STEP    =  1.00D-03
 ORBITAL =  1.00D-10  CIVEC   =  1.00D-05  COEFF   =  1.00D-04  PRINTCI =  5.00D-02  PUNCHCI =  9.90D+01  OPTGRAD =  1.00D-06
 OPTENERG=  1.00D-06  OPTSTEP =  3.00D-04  THRGRAD =  1.00D-10  COMPRESS=  1.00D-13  VARMIN  =  1.00D-07  VARMAX  =  1.00D-03
 THRDOUB =  0.00D+00  THRDIV  =  1.00D-05  THRRED  =  1.00D-07  THRPSP  =  1.00D+00  THRDC   =  1.00D-10  THRCS   =  1.00D-10
 THRNRM  =  1.00D-08  THREQ   =  0.00D+00  THRDE   =  1.00D+00  THRREF  =  1.00D-05  SPARFAC =  1.00D+00  THRDLP  =  1.00D-07
 THRDIA  =  1.00D-10  THRDLS  =  1.00D-07  THRGPS  =  0.00D+00  THRKEX  =  0.00D+00  THRDIS  =  2.00D-01  THRVAR  =  1.00D-10
 THRLOC  =  1.00D-06  THRGAP  =  1.00D-06  THRLOCT = -1.00D+00  THRGAPT = -1.00D+00  THRORB  =  1.00D-06  THRMLTP =  0.00D+00
 THRCPQCI=  1.00D-10  KEXTA   =  0.00D+00  THRCOARS=  0.00D+00  SYMTOL  =  1.00D-06  GRADTOL =  1.00D-06  THROVL  =  1.00D-08
 THRORTH =  1.00D-08  THRDLOVL= -1.00D+00  GRID    =  1.00D-06  GRIDMAX =  1.00D-03  DTMAX   =  0.00D+00  THROCCDE=  1.00D-01
 THROCCDE=  1.00D-01  THRPRINT=  2.50D-01

 SETTING GEOMTYP        =    XYZ
 ZUNIT=BOHR

 SETTING BASIS          =    CC-PVDZ


 Recomputing integrals since basis changed


 Using spherical harmonics

 Library entry C      S cc-pVDZ              selected for orbital group  1
 Library entry C      P cc-pVDZ              selected for orbital group  1
 Library entry C      D cc-pVDZ              selected for orbital group  1
 Library entry O      S cc-pVDZ              selected for orbital group  2
 Library entry O      P cc-pVDZ              selected for orbital group  2
 Library entry O      D cc-pVDZ              selected for orbital group  2
 Library entry H      S cc-pVDZ              selected for orbital group  3
 Library entry H      P cc-pVDZ              selected for orbital group  3


 PROGRAM * SEWARD (Integral evaluation for generally contracted gaussian basis sets)     Author: Roland Lindh, 1990

 Geometry written to block  1 of record 700


 Point group  C1  



 ATOMIC COORDINATES

 NR  ATOM    CHARGE       X              Y              Z

   1  C       6.00   -1.370851087   -0.018429249    0.000000057
   2  O       8.00    1.301795233    0.128786538    0.000000333
   3  H       1.00   -2.076822499    1.907944764   -0.000079823
   4  H       1.00   -2.110617873   -0.981609491    1.681383224
   5  H       1.00   -2.110610717   -0.981740731   -1.681310812
   6  H       1.00    1.943382784   -1.585083952   -0.000001389

 Bond lengths in Bohr (Angstrom)

 1-2  2.676697749  1-3  2.051660907  1-4  2.074131248  1-5  2.074131037  2-6  1.830023673
     ( 1.416447449)     ( 1.085692196)     ( 1.097582989)     ( 1.097582877)     ( 0.968406823)

 Bond angles

  1-2-6  107.37058809   2-1-3  106.97391094   2-1-4  112.43678265   2-1-5  112.43679760

  3-1-4  108.25969539   3-1-5  108.25954505   4-1-5  108.31450226

 NUCLEAR CHARGE:                   18
 NUMBER OF PRIMITIVE AOS:          82
 NUMBER OF SYMMETRY AOS:           80
 NUMBER OF CONTRACTIONS:           48   (   48A   )
 NUMBER OF INNER CORE ORBITALS:     0   (    0A   )
 NUMBER OF OUTER CORE ORBITALS:     2   (    2A   )
 NUMBER OF VALENCE ORBITALS:       12   (   12A   )


 NUCLEAR REPULSION ENERGY   40.31815971

 Eigenvalues of metric

         1 0.967E-02 0.176E-01 0.368E-01 0.377E-01 0.385E-01 0.478E-01 0.480E-01 0.519E-01


 Contracted 2-electron integrals neglected if value below      1.0D-16
 AO integral compression algorithm  1   Integral accuracy      1.0D-16

     6.816 MB (compressed) written to integral file ( 98.6%)

     Node minimum: 2.097 MB, node maximum: 2.359 MB


 NUMBER OF SORTED TWO-ELECTRON INTEGRALS:     231084.     BUFFER LENGTH:  32768
 NUMBER OF SEGMENTS:   1  SEGMENT LENGTH:     231084      RECORD LENGTH: 524288

 Memory used in sort:       0.79 MW

 SORT1 READ      832256. AND WROTE      227682. INTEGRALS IN      1 RECORDS. CPU TIME:     0.01 SEC, REAL TIME:     0.07 SEC
 SORT2 READ      682149. AND WROTE      692076. INTEGRALS IN     24 RECORDS. CPU TIME:     0.01 SEC, REAL TIME:     0.02 SEC

 Node minimum:      230300.  Node maximum:      231084. integrals

 OPERATOR DM      FOR CENTER  0  COORDINATES:    0.000000    0.000000    0.000000


 **********************************************************************************************************************************
 DATASETS  * FILE   NREC   LENGTH (MB)   RECORD NAMES
              1      18       28.73       500      610      700      900      950      970     1000      129      960     1100   
                                          VAR    BASINP    GEOM    SYMINP    ZMAT    AOBASIS   BASIS     P2S    ABASIS      S 
                                         1400     1410     1200     1210     1080     1600     1650     1700   
                                           T        V       H0       H01     AOSYM     SMH    MOLCAS    OPER   

 PROGRAMS   *        TOTAL       INT
 CPU TIMES  *         0.47      0.32
 REAL TIME  *         1.54 SEC
 DISK USED  *        29.07 MB (local),      104.32 MB (total)
 GA USED    *         0.00 MB       (max)       0.00 MB       (current)
 **********************************************************************************************************************************


 Program * Restricted Hartree-Fock

 Orbital guess generated from atomic densities. Full valence occupancy:   14

 Initial occupancy:   9

 NELEC=   18   SYM=1   MS2= 0   THRE=1.0D-12   THRD=1.0D-10   THRG=1.0D-10  HFMA2=F  DIIS_START=2   DIIS_MAX=10   DIIS_INCORE=F

 Level shifts:    0.00 (CLOSED)    0.00 (OPEN)    0.30 (GAP_MIN)

 ITER           ETOT              DE          GRAD        DDIFF     DIIS  NEXP   TIME(IT)  TIME(TOT)  DIAG
   1     -115.01384400    -115.01384400     0.00D+00     0.16D+00     0     0       0.00      0.00    start
   2     -115.04230871      -0.02846471     0.10D-01     0.20D-01     1     0       0.01      0.01    diag
   3     -115.04835759      -0.00604888     0.49D-02     0.64D-02     2     0       0.00      0.01    diag
   4     -115.04882798      -0.00047039     0.10D-02     0.20D-02     3     0       0.00      0.01    diag
   5     -115.04884981      -0.00002182     0.19D-03     0.44D-03     4     0       0.01      0.02    diag
   6     -115.04885066      -0.00000085     0.33D-04     0.95D-04     5     0       0.01      0.03    diag
   7     -115.04885069      -0.00000003     0.70D-05     0.16D-04     6     0       0.00      0.03    diag
   8     -115.04885070      -0.00000000     0.23D-05     0.53D-05     7     0       0.00      0.03    fixocc
   9     -115.04885070      -0.00000000     0.47D-06     0.15D-05     8     0       0.01      0.04    diag
  10     -115.04885070      -0.00000000     0.81D-07     0.26D-06     9     0       0.00      0.04    diag/orth
  11     -115.04885070      -0.00000000     0.20D-07     0.56D-07     9     0       0.00      0.04    diag
  12     -115.04885070       0.00000000     0.49D-08     0.16D-07     9     0       0.00      0.04    diag
  13     -115.04885070      -0.00000000     0.70D-09     0.20D-08     9     0       0.01      0.05    diag
  14     -115.04885070      -0.00000000     0.15D-09     0.41D-09     9     0       0.00      0.05    diag
  15     -115.04885070       0.00000000     0.64D-10     0.12D-09     9     0       0.00      0.05    diag
  16     -115.04885070       0.00000000     0.14D-10     0.34D-10     9     0       0.00      0.05    diag
  17     -115.04885070       0.00000000     0.24D-11     0.49D-11     0     0       0.00      0.05    diag

 Final occupancy:   9

 !RHF STATE 1.1 Energy               -115.048850696056
  RHF One-electron energy            -236.902379336195
  RHF Two-electron energy              81.535368933264
  RHF Kinetic energy                  114.931019899794
  RHF Nuclear energy                   40.318159706875
  RHF Virial quotient                  -1.001025230581

 !RHF STATE 1.1 Dipole moment          -0.38406680    -0.59668168    -0.00000303
 Dipole moment /Debye                  -0.97620044    -1.51661356    -0.00000770

 Orbital energies:

           1.1          2.1          3.1          4.1          5.1          6.1          7.1          8.1          9.1         10.1
    -20.551103   -11.274553    -1.349710    -0.920141    -0.682258    -0.613009    -0.586218    -0.496731    -0.442099     0.183822

          11.1
      0.223572


 HOMO      9.1    -0.442099 =     -12.0301eV
 LUMO     10.1     0.183822 =       5.0021eV
 LUMO-HOMO         0.625921 =      17.0322eV

 Orbitals saved in record  2100.2


 **********************************************************************************************************************************
 DATASETS  * FILE   NREC   LENGTH (MB)   RECORD NAMES
              1      18       28.73       500      610      700      900      950      970     1000      129      960     1100   
                                          VAR    BASINP    GEOM    SYMINP    ZMAT    AOBASIS   BASIS     P2S    ABASIS      S 
                                         1400     1410     1200     1210     1080     1600     1650     1700   
                                           T        V       H0       H01     AOSYM     SMH    MOLCAS    OPER   

              2       4        0.47       700     1000      520     2100   
                                         GEOM     BASIS   MCVARS     RHF  

 PROGRAMS   *        TOTAL   RHF-SCF       INT
 CPU TIMES  *         0.53      0.06      0.32
 REAL TIME  *         1.82 SEC
 DISK USED  *        29.40 MB (local),      105.31 MB (total)
 GA USED    *         0.00 MB       (max)       0.00 MB       (current)
 **********************************************************************************************************************************


 PROGRAM * CCSD (Closed-shell coupled cluster)     Authors: C. Hampel, H.-J. Werner, 1991, M. Deegan, P.J. Knowles, 1992


 Convergence thresholds:  THRVAR = 1.00D-08  THRDEN = 1.00D-12

 CCSD(T)     terms to be evaluated (factor= 1.000)


 Number of core orbitals:           2 (   2 )
 Number of closed-shell orbitals:   7 (   7 )
 Number of external orbitals:      39 (  39 )

 Molecular orbitals read from record     2100.2  Type=RHF/CANONICAL  

 Number of N-1 electron functions:               7
 Number of N-2 electron functions:              28
 Number of singly external CSFs:               273
 Number of doubly external CSFs:             37401
 Total number of CSFs:                       37675

 Length of J-op  integral file:               0.00 MB
 Length of K-op  integral file:               0.16 MB
 Length of 3-ext integral record:             0.00 MB

 Memory could be reduced to 0.73 Mwords without degradation in triples

 Integral transformation finished. Total CPU:   0.02 sec, npass=  1  Memory used:   0.66 MW

 Reference energy:                   -115.04885070

 MP2 singlet pair energy:              -0.21885107
 MP2 triplet pair energy:              -0.11995447
 MP2 correlation energy:               -0.33880553
 MP2 total energy:                   -115.38765623

 SCS-MP2 correlation energy:           -0.33725962   (PS=  1.200000  PT=  0.333333)
 SCS-MP2 total energy:               -115.38611031

 ITER.      SQ.NORM     CORR.ENERGY   TOTAL ENERGY   ENERGY CHANGE        DEN1      VAR(S)    VAR(P)  DIIS     TIME  TIME/IT
   1      1.10754116    -0.36158116  -115.41043186    -0.02277562    -0.01406717  0.92D-03  0.17D-02  1  1     0.04     0.06
   2      1.11610678    -0.36353635  -115.41238705    -0.00195520    -0.00927689  0.20D-04  0.16D-03  2  2     0.06     0.05
   3      1.11800760    -0.36366448  -115.41251518    -0.00012813    -0.00121434  0.96D-05  0.87D-05  3  3     0.08     0.04
   4      1.11852866    -0.36366338  -115.41251408     0.00000110    -0.00025730  0.35D-06  0.68D-06  4  4     0.10     0.04
   5      1.11862819    -0.36366382  -115.41251452    -0.00000045    -0.00003639  0.10D-06  0.50D-07  5  5     0.13     0.04
   6      1.11864776    -0.36366245  -115.41251314     0.00000138    -0.00000445  0.17D-07  0.42D-08  6  6     0.14     0.04
   7      1.11865269    -0.36366202  -115.41251272     0.00000043    -0.00000037  0.21D-08  0.75D-09  6  1     0.17     0.04
   8      1.11865400    -0.36366213  -115.41251282    -0.00000010     0.00000077  0.26D-09  0.75D-10  6  3     0.19     0.04
   9      1.11865509    -0.36366200  -115.41251270     0.00000013    -0.00000039  0.13D-10  0.11D-10  6  2     0.21     0.04
  10      1.11865514    -0.36366200  -115.41251270     0.00000000     0.00000000  0.14D-11  0.13D-11  6  4     0.23     0.04
  11      1.11865510    -0.36366200  -115.41251269     0.00000000     0.00000003  0.35D-12  0.86D-13  6  5     0.25     0.04
  12      1.11865505    -0.36366200  -115.41251270    -0.00000000     0.00000003  0.34D-13  0.13D-13  6  6     0.27     0.04
  13      1.11865503    -0.36366200  -115.41251270    -0.00000000     0.00000001  0.40D-14  0.16D-14  6  3     0.29     0.04
  14      1.11865503    -0.36366200  -115.41251270    -0.00000000     0.00000000  0.30D-15  0.15D-15  6  1     0.31     0.03
  15      1.11865503    -0.36366200  -115.41251270     0.00000000    -0.00000000  0.37D-16  0.33D-16  6  2     0.33     0.03
  16      1.11865503    -0.36366200  -115.41251270     0.00000000    -0.00000000  0.33D-17  0.17D-17  6  5     0.35     0.03
  17      1.11865503    -0.36366200  -115.41251270    -0.00000000     0.00000000  0.14D-18  0.13D-18  6  4     0.37     0.03
  18      1.11865503    -0.36366200  -115.41251270     0.00000000    -0.00000000  0.28D-19  0.13D-19  6  3     0.39     0.04
  19      1.11865503    -0.36366200  -115.41251270     0.00000000    -0.00000000  0.28D-20  0.11D-20  6  6     0.41     0.04
  20      1.11865503    -0.36366200  -115.41251270     0.00000000    -0.00000000  0.44D-21  0.18D-21  6  1     0.43     0.03

 Norm of t1 vector:      0.04182746      S-energy:    -0.00000000      T1 diagnostic:  0.00790465
                                                                       D1 diagnostic:  0.01737090
                                                                       D2 diagnostic:  0.13427788 (internal)


 Total CPU time for triples:      0.09 sec


 RESULTS
 =======

  Reference energy                   -115.048850696056
  CCSD singlet pair energy             -0.254856796074
  CCSD triplet pair energy             -0.108805208299
  CCSD correlation energy              -0.363662004373

  Triples (T) contribution             -0.007759064000
  Total correlation energy             -0.371421068373

  CCSD total energy                  -115.412512700429
  CCSD[T] energy                     -115.420562898870
  CCSD-T energy                      -115.420121381250
 !CCSD(T) total energy               -115.420271764429

 Timing summary (sec):

 STEP                 CPU(USER)    SYS     CPU(TOT)    WALL
 Transformation          0.02      0.01      0.03      0.04
 CCSD iterations         0.41      0.08      0.49      0.82
 Triples                 0.09      0.00      0.09      0.09

 Program statistics:

 Available memory in ccsd:               999999795
 Min. memory needed in ccsd:                136177
 Max. memory used in ccsd:                  162910
 Max. memory used in cckext:                178997 (20 integral passes)



 **********************************************************************************************************************************
 DATASETS  * FILE   NREC   LENGTH (MB)   RECORD NAMES
              1      19       31.13       500      610      700      900      950      970     1000      129      960     1100   
                                          VAR    BASINP    GEOM    SYMINP    ZMAT    AOBASIS   BASIS     P2S    ABASIS      S 
                                         1400     1410     1200     1210     1080     1600     1650     1700     1380   
                                           T        V       H0       H01     AOSYM     SMH    MOLCAS    OPER     JKOP   

              2       4        0.47       700     1000      520     2100   
                                         GEOM     BASIS   MCVARS     RHF  

 PROGRAMS   *        TOTAL   CCSD(T)   RHF-SCF       INT
 CPU TIMES  *         1.08      0.55      0.06      0.32
 REAL TIME  *         2.91 SEC
 DISK USED  *        35.56 MB (local),      115.96 MB (total)
 SF USED    *         5.97 MB
 GA USED    *         0.00 MB       (max)       0.00 MB       (current)
 **********************************************************************************************************************************

 CCSD(T)/cc-pVDZ energy=   -115.420271764429

         CCSD(T)         RHF-SCF
   -115.42027176   -115.04885070
 **********************************************************************************************************************************
 Molpro calculation terminated
