[Molden Format]
[ATOMS] AU
N        1    7        0.0000000000        0.0000000000        0.1333532300
H        2    1        0.8815476500       -1.5268853200       -0.6176188300
H        3    1        0.8815476500        1.5268853200       -0.6176188300
H        4    1       -1.7630953100        0.0000000000       -0.6176188300
[Molden Format]
 [FREQ]
     1109.5190822833
     3471.8585797908
     1688.0196454079
     3597.5864944800
 [FR-COORD]
N            0.0000000000        0.0000000000        0.1333532300
H            0.8815476500       -1.5268853200       -0.6176188300
H            0.8815476500        1.5268853200       -0.6176188300
H           -1.7630953100        0.0000000000       -0.6176188300
 [FR-NORM-COORD]
  vibration                      1
        0.0000000002        0.0000000000        0.0901854085
       -0.0203207526        0.0351965757       -0.0300618028
       -0.0203207526       -0.0351965757       -0.0300618028
        0.0406415050       -0.0000000000       -0.0300618028
  vibration                      2
        0.0000000000       -0.0000000000        0.0492448626
        0.0801971817       -0.1389055934       -0.0164149542
        0.0801971817        0.1389055934       -0.0164149542
       -0.1603943635        0.0000000000       -0.0164149541
  vibration                      3
        0.1017925039        0.0000000000        0.0001448414
       -0.1036663083       -0.1200184990        0.0144042047
       -0.1036663083        0.1200184990        0.0144042047
        0.1055401126       -0.0000000000       -0.0289532508
  vibration                      4
        0.1095979714        0.0000000000       -0.0001216686
        0.0171465413        0.0929086590        0.0156012605
        0.0171465413       -0.0929086590        0.0156012605
       -0.1438910541        0.0000000000       -0.0310808525
