
 Primary working directories    : /tmp/601556.23.gen4.q
 Secondary working directories  : /tmp/601556.23.gen4.q
 Wavefunction directory         : /home/vulcan/mel64643/wfu/
 Main file repository           : /tmp/601556.23.gen4.q/

 ARCHNAME  : Linux/x86_64
 FC        : /opt/intel/compilers_and_libraries_2016.1.150/linux/bin/intel64/ifort
 FCVERSION : 16.0.1
 BLASLIB   : -mkl
 id        : ccgc

 Nodes     nprocs
 n056         1
 ga_uses_ma=false, calling ma_init with nominal heap.
 GA-space will be limited to   8.0 MW (determined by -G option)

 Using customized tuning parameters: mindgm=10; mindgv=16; mindgc=4; mindgr=1; noblas=0; mincuda=1000; minvec=7
 default implementation of scratch files=df  

 ***,Optimization of min3
 memory,1000,m
 gthresh,energy=1.0d-12,orbital=1.0d-10,oneint=1.0d-16,twoint=1.0d-16,optgrad=1.0d-6,compress=1.0d-13
 geomtyp=xyz
 
  bohr
  geometry = {
  6
  arbitrary comment
  C   -1.3753715377   -0.0218286708    0.0000008171
  O    1.3058854622    0.1216765193    0.0000005451
  H   -2.0747494432    1.9032836408   -0.0000805514
  H   -2.1100716859   -0.9783117824    1.6837287735
  H   -2.1100664094   -0.9784420120   -1.6836570484
  H    1.9406494540   -1.5765098149   -0.0000009460
 }
 
 basis=cc-pvtz
 {rhf;maxit,200}
 {ccsd(t);maxit,200}

 Variables initialized (661), CPU time= 0.00 sec
 Commands  initialized (458), CPU time= 0.00 sec, 486 directives.
 Default parameters read. Elapsed time= 0.05 sec

 Checking input...
 Passed
1


                                         ***  PROGRAM SYSTEM MOLPRO  ***
                         Copyright, University College Cardiff Consultants Limited, 2008

                                    Version 2010.1 linked May 16 2016 07:17:05


 **********************************************************************************************************************************
 LABEL *   Optimization of min3                                                          
 Linux-4.4.3/n056(x86_64) 64 bit mpp version                                             DATE: 06-Nov-21          TIME: 15:42:01  
 **********************************************************************************************************************************

 SHA1:             9e8077add272b0f3cad6f7df79ec5211205f459d
 **********************************************************************************************************************************

 THRESHOLDS:

 ZERO    =  1.00D-12  ONEINT  =  1.00D-16  TWOINT  =  1.00D-16  PREFAC  =  1.00D-14  LOCALI  =  1.00D-09  EORDER  =  1.00D-04
 ENERGY  =  1.00D-12  ETEST   =  0.00D+00  EDENS   =  0.00D+00  THRDEDEF=  1.00D-06  GRADIENT=  1.00D-02  STEP    =  1.00D-03
 ORBITAL =  1.00D-10  CIVEC   =  1.00D-05  COEFF   =  1.00D-04  PRINTCI =  5.00D-02  PUNCHCI =  9.90D+01  OPTGRAD =  1.00D-06
 OPTENERG=  1.00D-06  OPTSTEP =  3.00D-04  THRGRAD =  1.00D-10  COMPRESS=  1.00D-13  VARMIN  =  1.00D-07  VARMAX  =  1.00D-03
 THRDOUB =  0.00D+00  THRDIV  =  1.00D-05  THRRED  =  1.00D-07  THRPSP  =  1.00D+00  THRDC   =  1.00D-10  THRCS   =  1.00D-10
 THRNRM  =  1.00D-08  THREQ   =  0.00D+00  THRDE   =  1.00D+00  THRREF  =  1.00D-05  SPARFAC =  1.00D+00  THRDLP  =  1.00D-07
 THRDIA  =  1.00D-10  THRDLS  =  1.00D-07  THRGPS  =  0.00D+00  THRKEX  =  0.00D+00  THRDIS  =  2.00D-01  THRVAR  =  1.00D-10
 THRLOC  =  1.00D-06  THRGAP  =  1.00D-06  THRLOCT = -1.00D+00  THRGAPT = -1.00D+00  THRORB  =  1.00D-06  THRMLTP =  0.00D+00
 THRCPQCI=  1.00D-10  KEXTA   =  0.00D+00  THRCOARS=  0.00D+00  SYMTOL  =  1.00D-06  GRADTOL =  1.00D-06  THROVL  =  1.00D-08
 THRORTH =  1.00D-08  GRID    =  1.00D-06  GRIDMAX =  1.00D-03  DTMAX   =  0.00D+00

 SETTING GEOMTYP        =    XYZ
 ZUNIT=BOHR
 

 Variable memory set to 1000000000 words,  buffer space   230000 words

 SETTING BASIS          =    CC-PVTZ


 Recomputing integrals since basis changed


 Using spherical harmonics

 Library entry C      S cc-pVTZ              selected for orbital group  1
 Library entry C      P cc-pVTZ              selected for orbital group  1
 Library entry C      D cc-pVTZ              selected for orbital group  1
 Library entry C      F cc-pVTZ              selected for orbital group  1
 Library entry O      S cc-pVTZ              selected for orbital group  2
 Library entry O      P cc-pVTZ              selected for orbital group  2
 Library entry O      D cc-pVTZ              selected for orbital group  2
 Library entry O      F cc-pVTZ              selected for orbital group  2
 Library entry H      S cc-pVTZ              selected for orbital group  3
 Library entry H      P cc-pVTZ              selected for orbital group  3
 Library entry H      D cc-pVTZ              selected for orbital group  3

1PROGRAM * SEWARD (Integral evaluation for generally contracted gaussian basis sets)     Author: Roland Lindh, 1990

 Geometry written to block  1 of record 700


 Point group  C1  



 ATOMIC COORDINATES

 NR  ATOM    CHARGE       X              Y              Z

   1  C       6.00   -1.375371538   -0.021828671    0.000000817
   2  O       8.00    1.305885462    0.121676519    0.000000545
   3  H       1.00   -2.074749443    1.903283641   -0.000080551
   4  H       1.00   -2.110071686   -0.978311782    1.683728773
   5  H       1.00   -2.110066409   -0.978442012   -1.683657048
   6  H       1.00    1.940649454   -1.576509815   -0.000000946

 Bond lengths in Bohr (Angstrom)

 1-2  2.685094568  1-3  2.048215534  1-4  2.071131112  1-5  2.071132407  2-6  1.812942953
     ( 1.420890849)     ( 1.083868980)     ( 1.095995381)     ( 1.095996067)     ( 0.959368092)

 Bond angles

  1-2-6  107.43156928   2-1-3  106.90203916   2-1-4  112.26610231   2-1-5  112.26612799

  3-1-4  108.23808265   3-1-5  108.23779209   4-1-5  108.76713069

 NUCLEAR CHARGE:                   18
 NUMBER OF PRIMITIVE AOS:         162
 NUMBER OF SYMMETRY AOS:          148
 NUMBER OF CONTRACTIONS:          116   ( 116A   )
 NUMBER OF CORE ORBITALS:           2   (   2A   )
 NUMBER OF VALENCE ORBITALS:       12   (  12A   )


 NUCLEAR REPULSION ENERGY   40.31667573


 Eigenvalues of metric

         1 0.133E-02 0.179E-02 0.192E-02 0.235E-02 0.329E-02 0.461E-02 0.737E-02 0.100E-01


 Contracted 2-electron integrals neglected if value below      1.0D-16
 AO integral compression algorithm  1   Integral accuracy      1.0D-16

     196.346 MB (compressed) written to integral file ( 92.2%)

     Node minimum: 196.346 MB, node maximum: 196.346 MB


 NUMBER OF SORTED TWO-ELECTRON INTEGRALS:   23028291.     BUFFER LENGTH:  32768
 NUMBER OF SEGMENTS:   2  SEGMENT LENGTH:   15997996      RECORD LENGTH: 524288

 Memory used in sort:      16.56 MW

 SORT1 READ    26631627. AND WROTE    22813280. INTEGRALS IN     67 RECORDS. CPU TIME:     0.24 SEC, REAL TIME:     0.39 SEC
 SORT2 READ    22813280. AND WROTE    23028291. INTEGRALS IN    749 RECORDS. CPU TIME:     0.22 SEC, REAL TIME:     0.32 SEC

 FILE SIZES:   FILE 1:   175.9 MBYTE,  FILE 4:   281.1 MBYTE,   TOTAL:    457.0 MBYTE

 OPERATOR DM      FOR CENTER  0  COORDINATES:    0.000000    0.000000    0.000000


 **********************************************************************************************************************************
 DATASETS  * FILE   NREC   LENGTH (MB)   RECORD NAMES
              1      19      176.09       500      610      700      900      950      970     1000      129      960     1100   
                                          VAR    BASINP    GEOM    SYMINP    ZMAT    AOBASIS   BASIS     P2S    ABASIS      S 
                                         1400     1410     1200     1210     1080     1600     1650     1300     1700   
                                           T        V       H0       H01     AOSYM     SMH    MOLCAS    ERIS     OPER   

 PROGRAMS   *        TOTAL       INT
 CPU TIMES  *         1.60      1.56
 REAL TIME  *         2.12 SEC
 DISK USED  *       653.97 MB      
 GA USED    *         0.00 MB       (max)       0.00 MB       (current)
 **********************************************************************************************************************************

1PROGRAM * RHF-SCF (CLOSED SHELL)       Authors: W. Meyer, H.-J. Werner


 NUMBER OF ELECTRONS:       9+    9-    SPACE SYMMETRY=1    SPIN SYMMETRY: Singlet 
 CONVERGENCE THRESHOLDS:    1.00E-10 (Density)    1.00E-13 (Energy)
 MAX. NUMBER OF ITERATIONS:      200
 INTERPOLATION TYPE:            DIIS
 INTERPOLATION STEPS:              2 (START)      1 (STEP)
 LEVEL SHIFTS:                  0.00 (CLOSED)  0.00 (OPEN) 



 Orbital guess generated from atomic densities. Full valence occupancy:   14

 Molecular orbital dump at record        2100.2

 ITERATION    DDIFF          GRAD             ENERGY        2-EL.EN.            DIPOLE MOMENTS         DIIS
    1      0.000D+00      0.000D+00      -115.05318570    164.455652   -0.48629   -0.90598   -0.00000    0
    2      0.000D+00      0.474D-02      -115.08151214    162.003882   -0.29860   -0.50005   -0.00000    1
    3      0.784D-02      0.254D-02      -115.08859007    163.175036   -0.39036   -0.59747   -0.00000    2
    4      0.257D-02      0.497D-03      -115.08909696    163.019507   -0.38346   -0.59120   -0.00000    3
    5      0.687D-03      0.981D-04      -115.08912789    163.026540   -0.38709   -0.58635   -0.00000    4
    6      0.186D-03      0.186D-04      -115.08912924    163.025180   -0.38749   -0.58632   -0.00000    5
    7      0.480D-04      0.394D-05      -115.08912930    163.024238   -0.38768   -0.58610   -0.00000    6
    8      0.909D-05      0.120D-05      -115.08912931    163.024709   -0.38771   -0.58607   -0.00000    7
    9      0.235D-05      0.323D-06      -115.08912931    163.024605   -0.38772   -0.58606   -0.00000    6
   10      0.769D-06      0.594D-07      -115.08912931    163.024616   -0.38773   -0.58606   -0.00000    6
   11      0.158D-06      0.149D-07      -115.08912931    163.024619   -0.38773   -0.58606   -0.00000    6
   12      0.298D-07      0.626D-08      -115.08912931    163.024617   -0.38773   -0.58606   -0.00000    7
   13      0.110D-07      0.170D-08      -115.08912931    163.024618   -0.38773   -0.58606   -0.00000    7
   14      0.346D-08      0.352D-09      -115.08912931    163.024618   -0.38773   -0.58606   -0.00000    7
   15      0.847D-09      0.901D-10      -115.08912931    163.024618   -0.38773   -0.58606   -0.00000    7
   16      0.183D-09      0.225D-10      -115.08912931    163.024618   -0.38773   -0.58606   -0.00000    7
   17      0.514D-10      0.737D-11      -115.08912931    163.024618   -0.38773   -0.58606   -0.00000    7
   18      0.147D-10      0.156D-11      -115.08912931    163.024618   -0.38773   -0.58606   -0.00000    7
   19      0.301D-11      0.495D-12      -115.08912931    163.024618   -0.38773   -0.58606   -0.00000    7
   20      0.115D-11      0.122D-12      -115.08912931    163.024618   -0.38773   -0.58606   -0.00000    7
   21      0.267D-12      0.492D-13      -115.08912931    163.024618   -0.38773   -0.58606   -0.00000    7
   22      0.109D-12      0.247D-13      -115.08912931    163.024618   -0.38773   -0.58606   -0.00000    7
   23      0.927D-13      0.237D-13      -115.08912931    163.024618   -0.38773   -0.58606   -0.00000    8
   24      0.508D-13      0.174D-13      -115.08912931    163.024618   -0.38773   -0.58606   -0.00000    9
   25      0.405D-13      0.181D-13      -115.08912931    163.024618   -0.38773   -0.58606   -0.00000    9
   26      0.224D-13      0.189D-13      -115.08912931    163.024618   -0.38773   -0.58606   -0.00000    9
   27      0.230D-13      0.143D-13      -115.08912931    163.024618   -0.38773   -0.58606   -0.00000    0

 Final occupancy:   9

 !RHF STATE 1.1 Energy               -115.089129305413
 Nuclear energy                        40.31667573
 One-electron energy                 -236.91811387
 Two-electron energy                   81.51230884
 Virial quotient                       -1.00125578
 !RHF STATE 1.1 Dipole moment          -0.38772667    -0.58606141    -0.00000238
 Dipole moment /Debye                  -0.98543835    -1.48952195    -0.00000605

 Orbital energies:

         1.1          2.1          3.1          4.1          5.1          6.1          7.1          8.1          9.1         10.1
    -20.552567   -11.269467    -1.354064    -0.923424    -0.687789    -0.617298    -0.590724    -0.502464    -0.448952     0.138437

        11.1
      0.178660


 **********************************************************************************************************************************
 DATASETS  * FILE   NREC   LENGTH (MB)   RECORD NAMES
              1      19      176.09       500      610      700      900      950      970     1000      129      960     1100   
                                          VAR    BASINP    GEOM    SYMINP    ZMAT    AOBASIS   BASIS     P2S    ABASIS      S 
                                         1400     1410     1200     1210     1080     1600     1650     1300     1700   
                                           T        V       H0       H01     AOSYM     SMH    MOLCAS    ERIS     OPER   

              2       3        0.63       700     1000     2100   
                                         GEOM     BASIS     RHF  

 PROGRAMS   *        TOTAL       RHF       INT
 CPU TIMES  *         5.98      4.38      1.56
 REAL TIME  *         7.09 SEC
 DISK USED  *       653.97 MB      
 GA USED    *         0.00 MB       (max)       0.00 MB       (current)
 **********************************************************************************************************************************


1PROGRAM * CCSD (Closed-shell coupled cluster)     Authors: C. Hampel, H.-J. Werner, 1991, M. Deegan, P.J. Knowles, 1992


 Convergence thresholds:  THRVAR = 1.00D-08  THRDEN = 1.00D-12

 CCSD(T)     terms to be evaluated (factor= 1.000)


 Number of core orbitals:           2 (   2 )
 Number of closed-shell orbitals:   7 (   7 )
 Number of external orbitals:     107 ( 107 )

 Molecular orbitals read from record     2100.2  Type=RHF/CANONICAL (state 1.1)

 Number of N-1 electron functions:               7
 Number of N-2 electron functions:              28
 Number of singly external CSFs:               749
 Number of doubly external CSFs:            280875
 Total number of CSFs:                      281625

 Length of J-op  integral file:               0.00 MB
 Length of K-op  integral file:               0.96 MB
 Length of 3-ext integral record:             0.00 MB

 Memory could be reduced to 12.77 Mwords without degradation in triples

 Integral transformation finished. Total CPU:   0.60 sec, npass=  1  Memory used:   7.23 MW

 Reference energy:                   -115.08912931

 MP2 singlet pair energy:              -0.28101099
 MP2 triplet pair energy:              -0.14730186
 MP2 correlation energy:               -0.42831285
 MP2 total energy:                   -115.51744216

 SCS-MP2 correlation energy:           -0.42886768   (PS=  1.200000  PT=  0.333333)
 SCS-MP2 total energy:               -115.51799699

 ITER.      SQ.NORM     CORR.ENERGY   TOTAL ENERGY   ENERGY CHANGE        DEN1      VAR(S)    VAR(P)  DIIS     TIME
   1      1.11798235    -0.44559442  -115.53472373    -0.01728157    -0.00693674  0.12D-02  0.18D-02  1  1     1.24
   2      1.12585552    -0.44677770  -115.53590701    -0.00118328    -0.00944409  0.16D-04  0.22D-03  2  2     1.92
   3      1.12844216    -0.44685394  -115.53598325    -0.00007624    -0.00178112  0.75D-05  0.10D-04  3  3     2.60
   4      1.12908121    -0.44685532  -115.53598463    -0.00000138    -0.00033251  0.35D-06  0.84D-06  4  4     3.29
   5      1.12918660    -0.44685713  -115.53598644    -0.00000181    -0.00003993  0.11D-06  0.65D-07  5  5     3.97
   6      1.12921159    -0.44685496  -115.53598427     0.00000217    -0.00000746  0.18D-07  0.50D-08  6  6     4.66
   7      1.12921518    -0.44685487  -115.53598417     0.00000009    -0.00000027  0.26D-08  0.90D-09  6  2     5.33
   8      1.12921653    -0.44685482  -115.53598412     0.00000005     0.00000002  0.42D-09  0.11D-09  6  1     6.01
   9      1.12921727    -0.44685477  -115.53598407     0.00000005    -0.00000003  0.28D-10  0.17D-10  6  3     6.71
  10      1.12921734    -0.44685478  -115.53598409    -0.00000002     0.00000007  0.25D-11  0.19D-11  6  4     7.41
  11      1.12921721    -0.44685479  -115.53598409    -0.00000001     0.00000011  0.23D-12  0.12D-12  6  6     8.10
  12      1.12921719    -0.44685479  -115.53598410    -0.00000000     0.00000001  0.26D-13  0.11D-13  6  5     8.79
  13      1.12921719    -0.44685479  -115.53598410    -0.00000000    -0.00000000  0.55D-14  0.17D-14  6  2     9.47
  14      1.12921719    -0.44685479  -115.53598410     0.00000000    -0.00000000  0.43D-15  0.14D-15  6  1    10.16
  15      1.12921719    -0.44685479  -115.53598410    -0.00000000    -0.00000000  0.62D-16  0.28D-16  6  3    10.85
  16      1.12921719    -0.44685479  -115.53598410     0.00000000     0.00000000  0.18D-16  0.33D-17  6  4    11.53
  17      1.12921719    -0.44685479  -115.53598410    -0.00000000     0.00000000  0.12D-17  0.72D-18  6  5    12.22
  18      1.12921719    -0.44685479  -115.53598410    -0.00000000     0.00000000  0.93D-19  0.45D-19  6  6    12.91
  19      1.12921719    -0.44685479  -115.53598410     0.00000000    -0.00000000  0.19D-19  0.98D-20  6  2    13.60
  20      1.12921719    -0.44685479  -115.53598410     0.00000000    -0.00000000  0.13D-20  0.74D-21  6  1    14.29

 Norm of t1 vector:      0.04467670      S-energy:    -0.00000000      T1 diagnostic:  0.00844310
                                                                       D1 diagnostic:  0.01721346


 Total CPU time for triples:      7.26 sec


 RESULTS
 =======

  Reference energy                   -115.089129305413
  CCSD singlet pair energy             -0.313105460766
  CCSD triplet pair energy             -0.133749331464
  CCSD correlation energy              -0.446854792230

  Triples (T) contribution             -0.014785410911
  Total correlation energy             -0.461640203141

  CCSD total energy                  -115.535984097643
  CCSD[T] energy                     -115.551235230992
  CCSD-T energy                      -115.550504063604
 !CCSD(T) total energy               -115.550769508554

 Timing summary (sec):

 STEP                 CPU(USER)    SYS     CPU(TOT)    WALL
 Transformation          0.61      0.07      0.68      0.67
 CCSD iterations        13.68      0.70     14.38     14.43
 Triples                 7.26      0.13      7.39      7.40

 Program statistics:

 Available memory in ccsd:               999999704
 Min. memory needed in ccsd:                915605
 Max. memory used in ccsd:                 1141922
 Max. memory used in cckext:                874802 (20 integral passes)



 **********************************************************************************************************************************
 DATASETS  * FILE   NREC   LENGTH (MB)   RECORD NAMES
              1      20      215.49       500      610      700      900      950      970     1000      129      960     1100   
                                          VAR    BASINP    GEOM    SYMINP    ZMAT    AOBASIS   BASIS     P2S    ABASIS      S 
                                         1400     1410     1200     1210     1080     1600     1650     1300     1700     1380   
                                           T        V       H0       H01     AOSYM     SMH    MOLCAS    ERIS     OPER     JKOP   

              2       3        0.63       700     1000     2100   
                                         GEOM     BASIS     RHF  

 PROGRAMS   *        TOTAL   CCSD(T)       RHF       INT
 CPU TIMES  *        27.53     21.55      4.38      1.56
 REAL TIME  *        29.62 SEC
 DISK USED  *       653.97 MB      
 GA USED    *         0.00 MB       (max)       0.00 MB       (current)
 **********************************************************************************************************************************

        CCSD(T)         RHF-SCF 
   -115.55076951   -115.08912931
 **********************************************************************************************************************************
 Variable memory released
