
 Primary working directories    : /tmp/667821.4.gen6.q
 Secondary working directories  : /tmp/667821.4.gen6.q
 Wavefunction directory         : /home/vulcan/nlk36701/wfu/
 Main file repository           : /tmp/667821.4.gen6.q/

 ARCHNAME  : Linux/x86_64
 FC        : /opt/intel/compilers_and_libraries_2016.1.150/linux/bin/intel64/ifort
 FCVERSION : 16.0.1
 BLASLIB   : -mkl
 id        : ccgc

 Nodes     nprocs
 n085         1
 ga_uses_ma=false, calling ma_init with nominal heap.
 GA-space will be limited to   8.0 MW (determined by -G option)

 Using customized tuning parameters: mindgm=10; mindgv=16; mindgc=4; mindgr=1; noblas=0; mincuda=1000; minvec=7
 default implementation of scratch files=df  

 ***,Optimization of min3
 memory,1000,m
 gthresh,energy=1.0d-12,orbital=1.0d-10,oneint=1.0d-16,twoint=1.0d-16,optgrad=1.0d-6,compress=1.0d-13
 geomtyp=xyz
 
  bohr
  geometry = {
  3
  arbitrary comment
  H    0.0000000000   -1.4261040262    0.9952752989
  O    0.0000000000    0.0049657576   -0.1202980606
  H    0.0000000000    1.4211382686    0.9913663817
 }
 
 basis=cc-pvdz
 {rhf;maxit,200}
 {ccsd(t);maxit,200}

 Variables initialized (661), CPU time= 0.00 sec
 Commands  initialized (458), CPU time= 0.01 sec, 486 directives.
 Default parameters read. Elapsed time= 0.04 sec

 Checking input...
 Passed
1


                                         ***  PROGRAM SYSTEM MOLPRO  ***
                         Copyright, University College Cardiff Consultants Limited, 2008

                                    Version 2010.1 linked May 16 2016 07:17:05


 **********************************************************************************************************************************
 LABEL *   Optimization of min3                                                          
 Linux-4.4.3/n085(x86_64) 64 bit mpp version                                             DATE: 28-Mar-22          TIME: 11:15:16  
 **********************************************************************************************************************************

 SHA1:             9e8077add272b0f3cad6f7df79ec5211205f459d
 **********************************************************************************************************************************

 THRESHOLDS:

 ZERO    =  1.00D-12  ONEINT  =  1.00D-16  TWOINT  =  1.00D-16  PREFAC  =  1.00D-14  LOCALI  =  1.00D-09  EORDER  =  1.00D-04
 ENERGY  =  1.00D-12  ETEST   =  0.00D+00  EDENS   =  0.00D+00  THRDEDEF=  1.00D-06  GRADIENT=  1.00D-02  STEP    =  1.00D-03
 ORBITAL =  1.00D-10  CIVEC   =  1.00D-05  COEFF   =  1.00D-04  PRINTCI =  5.00D-02  PUNCHCI =  9.90D+01  OPTGRAD =  1.00D-06
 OPTENERG=  1.00D-06  OPTSTEP =  3.00D-04  THRGRAD =  1.00D-10  COMPRESS=  1.00D-13  VARMIN  =  1.00D-07  VARMAX  =  1.00D-03
 THRDOUB =  0.00D+00  THRDIV  =  1.00D-05  THRRED  =  1.00D-07  THRPSP  =  1.00D+00  THRDC   =  1.00D-10  THRCS   =  1.00D-10
 THRNRM  =  1.00D-08  THREQ   =  0.00D+00  THRDE   =  1.00D+00  THRREF  =  1.00D-05  SPARFAC =  1.00D+00  THRDLP  =  1.00D-07
 THRDIA  =  1.00D-10  THRDLS  =  1.00D-07  THRGPS  =  0.00D+00  THRKEX  =  0.00D+00  THRDIS  =  2.00D-01  THRVAR  =  1.00D-10
 THRLOC  =  1.00D-06  THRGAP  =  1.00D-06  THRLOCT = -1.00D+00  THRGAPT = -1.00D+00  THRORB  =  1.00D-06  THRMLTP =  0.00D+00
 THRCPQCI=  1.00D-10  KEXTA   =  0.00D+00  THRCOARS=  0.00D+00  SYMTOL  =  1.00D-06  GRADTOL =  1.00D-06  THROVL  =  1.00D-08
 THRORTH =  1.00D-08  GRID    =  1.00D-06  GRIDMAX =  1.00D-03  DTMAX   =  0.00D+00

 SETTING GEOMTYP        =    XYZ
 ZUNIT=BOHR
 

 Variable memory set to 1000000000 words,  buffer space   230000 words

 SETTING BASIS          =    CC-PVDZ


 Recomputing integrals since basis changed


 Using spherical harmonics

 Library entry H      S cc-pVDZ              selected for orbital group  1
 Library entry H      P cc-pVDZ              selected for orbital group  1
 Library entry O      S cc-pVDZ              selected for orbital group  2
 Library entry O      P cc-pVDZ              selected for orbital group  2
 Library entry O      D cc-pVDZ              selected for orbital group  2

1PROGRAM * SEWARD (Integral evaluation for generally contracted gaussian basis sets)     Author: Roland Lindh, 1990

 Geometry written to block  1 of record 700


 Point group  Cs  



 ATOMIC COORDINATES

 NR  ATOM    CHARGE       X              Y              Z

   1  H       1.00    0.000000000   -1.426104026    0.995275299
   2  O       8.00    0.000000000    0.004965758   -0.120298061
   3  H       1.00    0.000000000    1.421138269    0.991366382

 Bond lengths in Bohr (Angstrom)

 1-2  1.814514989  2-3  1.800372854
     ( 0.960199978)     ( 0.952716282)

 Bond angles

  1-2-3  103.93109033

 NUCLEAR CHARGE:                   10
 NUMBER OF PRIMITIVE AOS:          41
 NUMBER OF SYMMETRY AOS:           40
 NUMBER OF CONTRACTIONS:           24   (  18A'  +   6A"  )
 NUMBER OF CORE ORBITALS:           1   (   1A'  +   0A"  )
 NUMBER OF VALENCE ORBITALS:        6   (   5A'  +   1A"  )


 NUCLEAR REPULSION ENERGY    9.20363237


 Eigenvalues of metric

         1 0.175E-01 0.443E-01 0.505E-01 0.984E-01 0.159E+00 0.170E+00 0.222E+00 0.511E+00
         2 0.183E+00 0.520E+00 0.618E+00 0.110E+01 0.133E+01 0.225E+01


 Contracted 2-electron integrals neglected if value below      1.0D-16
 AO integral compression algorithm  1   Integral accuracy      1.0D-16

     0.524 MB (compressed) written to integral file (100.0%)

     Node minimum: 0.524 MB, node maximum: 0.524 MB


 NUMBER OF SORTED TWO-ELECTRON INTEGRALS:      25710.     BUFFER LENGTH:  32768
 NUMBER OF SEGMENTS:   1  SEGMENT LENGTH:      25710      RECORD LENGTH: 524288

 Memory used in sort:       0.58 MW

 SORT1 READ       33005. AND WROTE       23239. INTEGRALS IN      1 RECORDS. CPU TIME:     0.00 SEC, REAL TIME:     0.00 SEC
 SORT2 READ       23239. AND WROTE       25710. INTEGRALS IN      2 RECORDS. CPU TIME:     0.00 SEC, REAL TIME:     0.00 SEC

 FILE SIZES:   FILE 1:     2.8 MBYTE,  FILE 4:     4.2 MBYTE,   TOTAL:      7.0 MBYTE

 OPERATOR DM      FOR CENTER  0  COORDINATES:    0.000000    0.000000    0.000000


 **********************************************************************************************************************************
 DATASETS  * FILE   NREC   LENGTH (MB)   RECORD NAMES
              1      19        2.79       500      610      700      900      950      970     1000      129      960     1100   
                                          VAR    BASINP    GEOM    SYMINP    ZMAT    AOBASIS   BASIS     P2S    ABASIS      S 
                                         1400     1410     1200     1210     1080     1600     1650     1300     1700   
                                           T        V       H0       H01     AOSYM     SMH    MOLCAS    ERIS     OPER   

 PROGRAMS   *        TOTAL       INT
 CPU TIMES  *         0.10      0.06
 REAL TIME  *         0.29 SEC
 DISK USED  *         8.05 MB      
 GA USED    *         0.00 MB       (max)       0.00 MB       (current)
 **********************************************************************************************************************************

1PROGRAM * RHF-SCF (CLOSED SHELL)       Authors: W. Meyer, H.-J. Werner


 NUMBER OF ELECTRONS:       5+    5-
 CONVERGENCE THRESHOLDS:    1.00E-10 (Density)    1.00E-13 (Energy)
 MAX. NUMBER OF ITERATIONS:      200
 INTERPOLATION TYPE:            DIIS
 INTERPOLATION STEPS:              2 (START)      1 (STEP)
 LEVEL SHIFTS:                  0.00 (CLOSED)  0.00 (OPEN) 



 Orbital guess generated from atomic densities. Full valence occupancy:    6   1

 Molecular orbital dump at record        2100.2

 Initial alpha occupancy:   4   1
 Initial beta  occupancy:   4   1
 Wave function symmetry:    1

 ITERATION    DDIFF          GRAD             ENERGY        2-EL.EN.            DIPOLE MOMENTS         DIIS
    1      0.000D+00      0.000D+00       -75.98856008     77.880711    0.00000   -0.01010    1.14657    0
    2      0.000D+00      0.309D-01       -76.01818488     74.638536    0.00000   -0.00376    0.75448    1
    3      0.577D-01      0.161D-01       -76.02656953     75.953283    0.00000   -0.00445    0.82851    2
    4      0.189D-01      0.183D-02       -76.02678414     75.856584    0.00000   -0.00381    0.81651    3
    5      0.354D-02      0.484D-03       -76.02680129     75.868486    0.00000   -0.00357    0.81294    4
    6      0.109D-02      0.762D-04       -76.02680185     75.868456    0.00000   -0.00351    0.81232    5
    7      0.172D-03      0.111D-04       -76.02680186     75.868395    0.00000   -0.00349    0.81220    6
    8      0.309D-04      0.917D-06       -76.02680186     75.868383    0.00000   -0.00349    0.81220    5
    9      0.205D-05      0.127D-06       -76.02680186     75.868389    0.00000   -0.00349    0.81220    5
   10      0.284D-06      0.405D-07       -76.02680186     75.868386    0.00000   -0.00349    0.81220    5
   11      0.676D-07      0.127D-07       -76.02680186     75.868387    0.00000   -0.00349    0.81220    5
   12      0.250D-07      0.217D-08       -76.02680186     75.868387    0.00000   -0.00349    0.81220    5
   13      0.515D-08      0.440D-09       -76.02680186     75.868387    0.00000   -0.00349    0.81220    6
   14      0.108D-08      0.643D-10       -76.02680186     75.868387    0.00000   -0.00349    0.81220    6
   15      0.160D-09      0.124D-10       -76.02680186     75.868387    0.00000   -0.00349    0.81220    6
   16      0.277D-10      0.305D-11       -76.02680186     75.868387    0.00000   -0.00349    0.81220    0

 Final occupancy:   4   1

 !RHF STATE 1.1 Energy                -76.026801858012
 Nuclear energy                         9.20363237
 One-electron energy                 -123.16462751
 Two-electron energy                   37.93419328
 Virial quotient                       -1.00044789
 !RHF STATE 1.1 Dipole moment           0.00000000    -0.00349094     0.81219902
 Dipole moment /Debye                   0.00000000    -0.00887250     2.06426877

 Orbital energies:

         1.1          2.1          3.1          4.1          5.1          6.1
    -20.550604    -1.337575    -0.698613    -0.567911     0.185572     0.256442

         1.2          2.2          3.2
     -0.493417     1.200224     1.478416


 **********************************************************************************************************************************
 DATASETS  * FILE   NREC   LENGTH (MB)   RECORD NAMES
              1      19        2.79       500      610      700      900      950      970     1000      129      960     1100   
                                          VAR    BASINP    GEOM    SYMINP    ZMAT    AOBASIS   BASIS     P2S    ABASIS      S 
                                         1400     1410     1200     1210     1080     1600     1650     1300     1700   
                                           T        V       H0       H01     AOSYM     SMH    MOLCAS    ERIS     OPER   

              2       3        0.30       700     1000     2100   
                                         GEOM     BASIS     RHF  

 PROGRAMS   *        TOTAL       RHF       INT
 CPU TIMES  *         0.11      0.01      0.06
 REAL TIME  *         0.31 SEC
 DISK USED  *         8.05 MB      
 GA USED    *         0.00 MB       (max)       0.00 MB       (current)
 **********************************************************************************************************************************


1PROGRAM * CCSD (Closed-shell coupled cluster)     Authors: C. Hampel, H.-J. Werner, 1991, M. Deegan, P.J. Knowles, 1992


 Convergence thresholds:  THRVAR = 1.00D-08  THRDEN = 1.00D-12

 CCSD(T)     terms to be evaluated (factor= 1.000)


 Number of core orbitals:           1 (   1   0 )
 Number of closed-shell orbitals:   4 (   3   1 )
 Number of external orbitals:      19 (  14   5 )

 Molecular orbitals read from record     2100.2  Type=RHF/CANONICAL (state 1.1)

 Number of N-1 electron functions:               4
 Number of N-2 electron functions:              10
 Number of singly external CSFs:                47
 Number of doubly external CSFs:              1563
 Total number of CSFs:                        1611

 Length of J-op  integral file:               0.00 MB
 Length of K-op  integral file:               0.06 MB
 Length of 3-ext integral record:             0.00 MB

 Memory could be reduced to 0.31 Mwords without degradation in triples

 Integral transformation finished. Total CPU:   0.00 sec, npass=  1  Memory used:   0.09 MW

 Reference energy:                    -76.02680186

 MP2 singlet pair energy:              -0.12555192
 MP2 triplet pair energy:              -0.07607581
 MP2 correlation energy:               -0.20162773
 MP2 total energy:                    -76.22842959

 SCS-MP2 correlation energy:           -0.19799836   (PS=  1.200000  PT=  0.333333)
 SCS-MP2 total energy:                -76.22480022

 ITER.      SQ.NORM     CORR.ENERGY   TOTAL ENERGY   ENERGY CHANGE        DEN1      VAR(S)    VAR(P)  DIIS     TIME
   1      1.05274967    -0.21019302   -76.23699488    -0.00856529    -0.00501210  0.27D-03  0.67D-03  1  1     0.00
   2      1.05587112    -0.21111375   -76.23791561    -0.00092073    -0.00385685  0.51D-05  0.56D-04  2  2     0.00
   3      1.05663424    -0.21118655   -76.23798841    -0.00007280    -0.00058203  0.19D-05  0.22D-05  3  3     0.00
   4      1.05680504    -0.21118912   -76.23799098    -0.00000257    -0.00009410  0.12D-06  0.12D-06  4  4     0.00
   5      1.05683654    -0.21118771   -76.23798957     0.00000141    -0.00001484  0.31D-07  0.70D-08  5  5     0.00
   6      1.05684080    -0.21118766   -76.23798951     0.00000005     0.00000039  0.40D-08  0.75D-09  6  6     0.01
   7      1.05684333    -0.21118760   -76.23798946     0.00000005    -0.00000025  0.15D-09  0.63D-10  6  1     0.01
   8      1.05684369    -0.21118756   -76.23798941     0.00000005     0.00000005  0.36D-11  0.43D-11  6  2     0.01
   9      1.05684379    -0.21118755   -76.23798940     0.00000001    -0.00000005  0.83D-13  0.26D-12  6  3     0.01
  10      1.05684381    -0.21118754   -76.23798940     0.00000000    -0.00000002  0.17D-14  0.73D-14  6  4     0.01
  11      1.05684382    -0.21118754   -76.23798940     0.00000000    -0.00000000  0.13D-15  0.34D-15  6  5     0.01
  12      1.05684382    -0.21118754   -76.23798940     0.00000000    -0.00000000  0.71D-17  0.22D-16  6  6     0.01
  13      1.05684382    -0.21118754   -76.23798940    -0.00000000    -0.00000000  0.21D-17  0.11D-17  6  1     0.01
  14      1.05684382    -0.21118754   -76.23798940     0.00000000    -0.00000000  0.52D-18  0.13D-18  6  2     0.02
  15      1.05684382    -0.21118754   -76.23798940     0.00000000    -0.00000000  0.89D-19  0.13D-19  6  3     0.02
  16      1.05684382    -0.21118754   -76.23798940     0.00000000    -0.00000000  0.52D-20  0.19D-20  6  4     0.02
  17      1.05684382    -0.21118754   -76.23798940     0.00000000     0.00000000  0.29D-21  0.19D-21  6  5     0.02

 Norm of t1 vector:      0.02350333      S-energy:    -0.00000000      T1 diagnostic:  0.00587583
                                                                       D1 diagnostic:  0.01107570

 Doubles amplitudes (print threshold =  0.500E-01):

         I         J         SYM. A    SYM. B    A         B      T(IJ, AB)

         4         4         2         2         1         1     -0.05139221


 Total CPU time for triples:      0.00 sec


 RESULTS
 =======

  Reference energy                    -76.026801858012
  CCSD singlet pair energy             -0.143213783764
  CCSD triplet pair energy             -0.067973760879
  CCSD correlation energy              -0.211187544643

  Triples (T) contribution             -0.003036053831
  Total correlation energy             -0.214223598475

  CCSD total energy                   -76.237989402656
  CCSD[T] energy                      -76.241110416688
  CCSD-T energy                       -76.240970780164
 !CCSD(T) total energy                -76.241025456487

 Timing summary (sec):

 STEP                 CPU(USER)    SYS     CPU(TOT)    WALL
 CCSD iterations         0.02      0.00      0.02      0.05

 Program statistics:

 Available memory in ccsd:               999999836
 Min. memory needed in ccsd:                 10413
 Max. memory used in ccsd:                   11148
 Max. memory used in cckext:                 44198 (17 integral passes)



 **********************************************************************************************************************************
 DATASETS  * FILE   NREC   LENGTH (MB)   RECORD NAMES
              1      20        2.90       500      610      700      900      950      970     1000      129      960     1100   
                                          VAR    BASINP    GEOM    SYMINP    ZMAT    AOBASIS   BASIS     P2S    ABASIS      S 
                                         1400     1410     1200     1210     1080     1600     1650     1300     1700     1380   
                                           T        V       H0       H01     AOSYM     SMH    MOLCAS    ERIS     OPER     JKOP   

              2       3        0.30       700     1000     2100   
                                         GEOM     BASIS     RHF  

 PROGRAMS   *        TOTAL   CCSD(T)       RHF       INT
 CPU TIMES  *         0.14      0.03      0.01      0.06
 REAL TIME  *         0.39 SEC
 DISK USED  *         8.05 MB      
 GA USED    *         0.00 MB       (max)       0.00 MB       (current)
 **********************************************************************************************************************************

        CCSD(T)         RHF-SCF 
    -76.24102546    -76.02680186
 **********************************************************************************************************************************
 Variable memory released
