
    -----------------------------------------------------------------------
          Psi4: An Open-Source Ab Initio Electronic Structure Package
                               Psi4 1.4a2.dev629 

                         Git: Rev {master} 2938fc2 dirty


    D. G. A. Smith, L. A. Burns, A. C. Simmonett, R. M. Parrish,
    M. C. Schieber, R. Galvelis, P. Kraus, H. Kruse, R. Di Remigio,
    A. Alenaizan, A. M. James, S. Lehtola, J. P. Misiewicz, M. Scheurer,
    R. A. Shaw, J. B. Schriber, Y. Xie, Z. L. Glick, D. A. Sirianni,
    J. S. O'Brien, J. M. Waldrop, A. Kumar, E. G. Hohenstein,
    B. P. Pritchard, B. R. Brooks, H. F. Schaefer III, A. Yu. Sokolov,
    K. Patkowski, A. E. DePrince III, U. Bozkaya, R. A. King,
    F. A. Evangelista, J. M. Turney, T. D. Crawford, C. D. Sherrill,
    J. Chem. Phys. 152(18) 184108 (2020). https://doi.org/10.1063/5.0006002

                            Additional Code Authors
    E. T. Seidl, C. L. Janssen, E. F. Valeev, M. L. Leininger,
    J. F. Gonthier, R. M. Richard, H. R. McAlexander, M. Saitow, X. Wang,
    P. Verma, and M. H. Lechner

             Previous Authors, Complete List of Code Contributors,
                       and Citations for Specific Modules
    https://github.com/psi4/psi4/blob/master/codemeta.json
    https://github.com/psi4/psi4/graphs/contributors
    http://psicode.org/psi4manual/master/introduction.html#citing-psifour

    -----------------------------------------------------------------------


    Psi4 started on: Wednesday, 26 August 2020 12:56PM

    Process ID: 16897
    Host:       n016
    PSIDATADIR: /opt/psi/4/master/share/psi4
    Memory:     500.0 MiB
    Threads:    4
    
  ==> Input File <==

--------------------------------------------------------------------------
# o-Benzyne preliminary computations

memory 30 gb

molecule {
  0 1
  H          0.0000000000         -1.4210937217          0.9959619353  
  O          0.0000000000          0.0000000000         -0.1255093096  
  H          0.0000000000          1.4210937217          0.9959619353  
  units bohr
}

set {
  basis=cc-pVTZ
  reference rhf
  e_convergence 10 
  d_convergence 10
  r_convergence 8
  maxiter 300
  geom_maxiter 300
  normal_modes_write true 
}

energy('ccsd(t)')
--------------------------------------------------------------------------

  Memory set to  27.940 GiB by Python driver.

Scratch directory: /tmp/

*** tstart() called on n016
*** at Wed Aug 26 12:56:12 2020

   => Loading Basis Set <=

    Name: CC-PVTZ
    Role: ORBITAL
    Keyword: BASIS
    atoms 1, 3 entry H          line    23 file /opt/psi/4/master/share/psi4/basis/cc-pvtz.gbs 
    atoms 2    entry O          line   262 file /opt/psi/4/master/share/psi4/basis/cc-pvtz.gbs 


         ---------------------------------------------------------
                                   SCF
               by Justin Turney, Rob Parrish, Andy Simmonett
                          and Daniel G. A. Smith
                              RHF Reference
                        4 Threads,  28610 MiB Core
         ---------------------------------------------------------

  ==> Geometry <==

    Molecular point group: c2v
    Full point group: C2v

    Geometry (in Bohr), charge = 0, multiplicity = 1:

       Center              X                  Y                   Z               Mass       
    ------------   -----------------  -----------------  -----------------  -----------------
         H            0.000000000000    -1.421093721700     0.995961932631     1.007825032230
         O            0.000000000000     0.000000000000    -0.125509312269    15.994914619570
         H           -0.000000000000     1.421093721700     0.995961932631     1.007825032230

  Running in c2v symmetry.

  Rotational constants: A =     26.73919  B =     14.78882  C =      9.52228 [cm^-1]
  Rotational constants: A = 801620.68508  B = 443357.80212  C = 285470.62357 [MHz]
  Nuclear repulsion =    9.190130110102235

  Charge       = 0
  Multiplicity = 1
  Electrons    = 10
  Nalpha       = 5
  Nbeta        = 5

  ==> Algorithm <==

  SCF Algorithm Type is PK.
  DIIS enabled.
  MOM disabled.
  Fractional occupation disabled.
  Guess Type is SAD.
  Energy threshold   = 1.00e-10
  Density threshold  = 1.00e-10
  Integral threshold = 0.00e+00

  ==> Primary Basis <==

  Basis Set: CC-PVTZ
    Blend: CC-PVTZ
    Number of shells: 22
    Number of basis function: 58
    Number of Cartesian functions: 65
    Spherical Harmonics?: true
    Max angular momentum: 3

  ==> Integral Setup <==

  Using in-core PK algorithm.
   Calculation information:
      Number of atoms:                   3
      Number of AO shells:              22
      Number of primitives:             42
      Number of atomic orbitals:        65
      Number of basis functions:        58

      Integral cutoff                 1.00e-12
      Number of threads:                 4

  Performing in-core PK
  Using 2929232 doubles for integral storage.
  We computed 43467 shell quartets total.
  Whereas there are 32131 unique shell quartets.
    35.28 percent of shell quartets recomputed by reordering.

  ==> DiskJK: Disk-Based J/K Matrices <==

    J tasked:                  Yes
    K tasked:                  Yes
    wK tasked:                  No
    Memory [MiB]:            21457
    Schwarz Cutoff:          1E-12

    OpenMP threads:              4

  Minimum eigenvalue in the overlap matrix is 2.2399747627E-03.
  Reciprocal condition number of the overlap matrix is 5.1345850816E-04.
    Using symmetric orthogonalization.

  ==> Pre-Iterations <==

  SCF Guess: Superposition of Atomic Densities via on-the-fly atomic UHF (no occupation information).

   -------------------------
    Irrep   Nso     Nmo    
   -------------------------
     A1        23      23 
     A2         7       7 
     B1        11      11 
     B2        17      17 
   -------------------------
    Total      58      58
   -------------------------

  ==> Iterations <==

                        Total Energy        Delta E     RMS |[F,P]|

   @RHF iter SAD:   -75.50177781495907   -7.55018e+01   0.00000e+00 
   @RHF iter   1:   -75.97852078958640   -4.76743e-01   1.43693e-02 DIIS
   @RHF iter   2:   -76.03113191231107   -5.26111e-02   9.27990e-03 DIIS
   @RHF iter   3:   -76.05662198531623   -2.54901e-02   6.92600e-04 DIIS
   @RHF iter   4:   -76.05700953036519   -3.87545e-04   1.69039e-04 DIIS
   @RHF iter   5:   -76.05703396712708   -2.44368e-05   3.50175e-05 DIIS
   @RHF iter   6:   -76.05703550749662   -1.54037e-06   6.75749e-06 DIIS
   @RHF iter   7:   -76.05703556596740   -5.84708e-08   1.06958e-06 DIIS
   @RHF iter   8:   -76.05703556715977   -1.19238e-09   1.61694e-07 DIIS
   @RHF iter   9:   -76.05703556718748   -2.77112e-11   4.50746e-08 DIIS
   @RHF iter  10:   -76.05703556718991   -2.43006e-12   5.95040e-09 DIIS
   @RHF iter  11:   -76.05703556718998   -7.10543e-14   8.35268e-10 DIIS
   @RHF iter  12:   -76.05703556718996    2.84217e-14   1.35131e-10 DIIS
   @RHF iter  13:   -76.05703556719000   -4.26326e-14   1.62472e-11 DIIS
  Energy and wave function converged.


  ==> Post-Iterations <==

    Orbital Energies [Eh]
    ---------------------

    Doubly Occupied:                                                      

       1A1   -20.555394     2A1    -1.346101     1B2    -0.707323  
       3A1    -0.579713     1B1    -0.504771  

    Virtual:                                                              

       4A1     0.141986     2B2     0.204209     3B2     0.542117  
       5A1     0.605726     6A1     0.667617     2B1     0.787192  
       7A1     0.795385     4B2     0.805865     1A2     0.863256  
       3B1     0.950674     8A1     1.133536     5B2     1.199803  
       6B2     1.523731     9A1     1.567559     4B1     2.041551  
       7B2     2.052680     2A2     2.063411    10A1     2.173076  
      11A1     2.232942    12A1     2.584573     8B2     2.966443  
       5B1     3.345572    13A1     3.485437     3A2     3.590335  
       9B2     3.662006     6B1     3.798540    10B2     3.878073  
      14A1     3.887639     4A2     3.964908     7B1     4.016743  
      11B2     4.072875    15A1     4.193131     5A2     4.307492  
      16A1     4.375417    12B2     4.600359     8B1     4.683163  
      13B2     4.864981    17A1     5.163382    18A1     5.250926  
      14B2     5.524309     9B1     6.055046    19A1     6.581945  
      10B1     6.918528     6A2     6.939901    11B1     7.004886  
      20A1     7.021596    15B2     7.038752    21A1     7.178504  
       7A2     7.238658    22A1     7.449472    16B2     7.797503  
      17B2     8.294218    23A1    12.860118  

    Final Occupation by Irrep:
             A1    A2    B1    B2 
    DOCC [     3,    0,    1,    1 ]

  @RHF Final Energy:   -76.05703556719000

   => Energetics <=

    Nuclear Repulsion Energy =              9.1901301101022348
    One-Electron Energy =                -123.1077263514050344
    Two-Electron Energy =                  37.8605606741128113
    Total Energy =                        -76.0570355671899847

Computation Completed


Properties will be evaluated at   0.000000,   0.000000,   0.000000 [a0]

Properties computed using the SCF density matrix

  Nuclear Dipole Moment: [e a0]
     X:     0.0000      Y:     0.0000      Z:     0.9878

  Electronic Dipole Moment: [e a0]
     X:     0.0000      Y:     0.0000      Z:    -0.1842

  Dipole Moment: [e a0]
     X:     0.0000      Y:     0.0000      Z:     0.8036     Total:     0.8036

  Dipole Moment: [D]
     X:     0.0000      Y:     0.0000      Z:     2.0426     Total:     2.0426


*** tstop() called on n016 at Wed Aug 26 12:56:14 2020
Module time:
	user time   =       4.93 seconds =       0.08 minutes
	system time =       0.08 seconds =       0.00 minutes
	total time  =          2 seconds =       0.03 minutes
Total time:
	user time   =       4.93 seconds =       0.08 minutes
	system time =       0.08 seconds =       0.00 minutes
	total time  =          2 seconds =       0.03 minutes
 MINTS: Wrapper to libmints.
   by Justin Turney

   Calculation information:
      Number of threads:                 4
      Number of atoms:                   3
      Number of AO shells:              22
      Number of SO shells:              16
      Number of primitives:             42
      Number of atomic orbitals:        65
      Number of basis functions:        58

      Number of irreps:                  4
      Integral cutoff                 0.00e+00
      Number of functions per irrep: [  23    7   11   17 ]

 OEINTS: Overlap, kinetic, potential, dipole, and quadrupole integrals
         stored in file 35.

      Computing two-electron integrals...done
      Computed 359120 non-zero two-electron integrals.
        Stored in file 33.


*** tstart() called on n016
*** at Wed Aug 26 12:56:14 2020


	Wfn Parameters:
	--------------------
	Wavefunction         = CCSD_T
	Number of irreps     = 4
	Number of MOs        = 58
	Number of active MOs = 58
	AO-Basis             = NONE
	Semicanonical        = false
	Reference            = RHF
	Print Level          = 1

	IRREP	# MOs	# FZDC	# DOCC	# SOCC	# VIRT	# FZVR
	-----	-----	------	------	------	------	------
	 A1	   23	    0	    3	    0	    20	    0
	 A2	   7	    0	    0	    0	    7	    0
	 B1	   11	    0	    1	    0	    10	    0
	 B2	   17	    0	    1	    0	    16	    0
	Transforming integrals...
	IWL integrals will be deleted.
	(OO|OO)...
	Presorting SO-basis two-electron integrals.
	Sorting File: SO Ints (nn|nn) nbuckets = 1
	Transforming the one-electron integrals and constructing Fock matrices
	Starting first half-transformation.
	Sorting half-transformed integrals.
	First half integral transformation complete.
	Starting second half-transformation.
	Two-electron integral transformation complete.
	(OO|OV)...
	Starting second half-transformation.
	Two-electron integral transformation complete.
	(OO|VV)...
	Starting second half-transformation.
	Two-electron integral transformation complete.
	(OV|OO)...
	Starting first half-transformation.
	Sorting half-transformed integrals.
	First half integral transformation complete.
	Starting second half-transformation.
	Two-electron integral transformation complete.
	(OV|OV)...
	Starting second half-transformation.
	Two-electron integral transformation complete.
	(OV|VV)...
	Starting second half-transformation.
	Two-electron integral transformation complete.
	(VV|OO)...
	Starting first half-transformation.
	Sorting half-transformed integrals.
	First half integral transformation complete.
	Starting second half-transformation.
	Two-electron integral transformation complete.
	(VV|OV)...
	Starting second half-transformation.
	Two-electron integral transformation complete.
	(VV|VV)...
	Starting second half-transformation.
	Two-electron integral transformation complete.
	Frozen core energy     =      0.00000000000000

	Size of irrep 0 of <ab|cd> integrals:      0.648 (MW) /      5.184 (MB)
	Size of irrep 1 of <ab|cd> integrals:      0.360 (MW) /      2.880 (MB)
	Size of irrep 2 of <ab|cd> integrals:      0.389 (MW) /      3.115 (MB)
	Size of irrep 3 of <ab|cd> integrals:      0.608 (MW) /      4.867 (MB)
	Total:                                     2.006 (MW) /     16.046 (MB)

	Size of irrep 0 of <ia|bc> integrals:      0.069 (MW) /      0.554 (MB)
	Size of irrep 1 of <ia|bc> integrals:      0.028 (MW) /      0.226 (MB)
	Size of irrep 2 of <ia|bc> integrals:      0.036 (MW) /      0.285 (MB)
	Size of irrep 3 of <ia|bc> integrals:      0.059 (MW) /      0.468 (MB)
	Total:                                     0.191 (MW) /      1.532 (MB)

	Size of irrep 0 of tijab amplitudes:       0.009 (MW) /      0.071 (MB)
	Size of irrep 1 of tijab amplitudes:       0.001 (MW) /      0.010 (MB)
	Size of irrep 2 of tijab amplitudes:       0.004 (MW) /      0.030 (MB)
	Size of irrep 3 of tijab amplitudes:       0.005 (MW) /      0.037 (MB)
	Total:                                     0.018 (MW) /      0.148 (MB)

	Nuclear Rep. energy          =      9.19013011010223
	SCF energy                   =    -76.05703556719000
	One-electron energy          =   -123.10772635196444
	Two-electron energy          =     37.86056067467218
	Reference energy             =    -76.05703556719003

*** tstop() called on n016 at Wed Aug 26 12:56:15 2020
Module time:
	user time   =       0.88 seconds =       0.01 minutes
	system time =       0.17 seconds =       0.00 minutes
	total time  =          1 seconds =       0.02 minutes
Total time:
	user time   =       6.59 seconds =       0.11 minutes
	system time =       0.27 seconds =       0.00 minutes
	total time  =          3 seconds =       0.05 minutes
            **************************
            *                        *
            *        CCENERGY        *
            *                        *
            **************************

    Nuclear Rep. energy (wfn)     =    9.190130110102235
    SCF energy          (wfn)     =  -76.057035567189999
    Reference energy    (file100) =  -76.057035567190027

    Input parameters:
    -----------------
    Wave function   =     CCSD_T
    Reference wfn   =     RHF
    Brueckner       =     No
    Memory (Mbytes) =     30000.0
    Maxiter         =    300
    R_Convergence   =     1.0e-08
    E_Convergence   =     1.0e-10
    Restart         =     Yes
    DIIS            =     Yes
    AO Basis        =     NONE
    ABCD            =     NEW
    Cache Level     =     2
    Cache Type      =     LOW
    Print Level     =     1
    Num. of threads =     4
    # Amps to Print =     10
    Print MP2 Amps? =     No
    Analyze T2 Amps =     No
    Print Pair Ener =     No
    Local CC        =     No
    SCS-MP2         =     False
    SCSN-MP2        =     False
    SCS-CCSD        =     False

MP2 correlation energy -0.2752244879430366
                Solving CC Amplitude Equations
                ------------------------------
  Iter             Energy              RMS        T1Diag      D1Diag    New D1Diag    D2Diag
  ----     ---------------------    ---------   ----------  ----------  ----------   --------
     0        -0.275224487943037    0.000e+00    0.000000    0.000000    0.000000    0.116144
     1        -0.275339628103571    2.894e-02    0.005079    0.009210    0.009210    0.119652
     2        -0.280233363481686    9.983e-03    0.005237    0.009318    0.009318    0.124290
     3        -0.280945171139174    3.196e-03    0.005747    0.010382    0.010382    0.125939
     4        -0.280935107198236    6.392e-04    0.005777    0.010452    0.010452    0.126142
     5        -0.280956324346008    1.960e-04    0.005793    0.010525    0.010525    0.126189
     6        -0.280957582058045    5.675e-05    0.005797    0.010554    0.010554    0.126186
     7        -0.280957613730512    1.871e-05    0.005799    0.010567    0.010567    0.126185
     8        -0.280957327223284    5.174e-06    0.005799    0.010571    0.010571    0.126185
     9        -0.280957248683939    1.056e-06    0.005800    0.010572    0.010572    0.126184
    10        -0.280957261384037    2.354e-07    0.005800    0.010572    0.010572    0.126184
    11        -0.280957260576441    4.531e-08    0.005800    0.010572    0.010572    0.126184
    12        -0.280957262123147    1.033e-08    0.005800    0.010572    0.010572    0.126184
    13        -0.280957262208431    2.490e-09    0.005800    0.010572    0.010572    0.126184
    14        -0.280957262220672    6.301e-10    0.005800    0.010572    0.010572    0.126184

    Iterations converged.


    Largest TIA Amplitudes:
              3  27        -0.0070963563
              4  41        -0.0059423560
              2   0         0.0053408185
              3  28        -0.0049373138
              2   3        -0.0044751027
              2   5        -0.0043767945
              1   2        -0.0040338946
              4  46        -0.0039126135
              2  11        -0.0038711833
              2   2         0.0035590812

    Largest TIjAb Amplitudes:
      3   3  27  27        -0.0475937438
      2   2   2   2        -0.0295380697
      4   4  38  38        -0.0269678453
      2   3   2  27         0.0258736467
      3   2  27   2         0.0258736467
      4   4   1   1        -0.0251685196
      4   4  39  39        -0.0226861410
      3   4  27  39         0.0222432977
      4   3  39  27         0.0222432977
      2   2  38  38        -0.0220633308

    SCF energy       (wfn)                    =  -76.057035567189999
    Reference energy (file100)                =  -76.057035567190027

    Opposite-spin MP2 correlation energy      =   -0.208630422263059
    Same-spin MP2 correlation energy          =   -0.066594065679978
    Singles MP2 correlation energy            =   -0.000000000000000
    MP2 correlation energy                    =   -0.275224487943037
      * MP2 total energy                      =  -76.332260055133062

    Opposite-spin CCSD correlation energy     =   -0.221339084611254
    Same-spin CCSD correlation energy         =   -0.059618177609418
    Singles CCSD correlation energy           =    0.000000000000000
    CCSD correlation energy                   =   -0.280957262220672
      * CCSD total energy                     =  -76.337992829410695

            **************************
            *                        *
            *        CCTRIPLES       *
            *                        *
            **************************


    Wave function   =    CCSD_T
    Reference wfn   =      RHF

    Nuclear Rep. energy (wfn)                =    9.190130110102235
    SCF energy          (wfn)                =  -76.057035567189999
    Reference energy    (file100)            =  -76.057035567190027
    CCSD energy         (file100)            =   -0.280957262220672
    Total CCSD energy   (file100)            =  -76.337992829410695

    Number of ijk index combinations:               35
    Memory available in words        :      3750000000
    ~Words needed per explicit thread:           32000
    Number of threads for explicit ijk threading:    4

    MKL num_threads set to 1 for explicit threading.

    (T) energy                                =   -0.007787465167245
      * CCSD(T) total energy                  =  -76.345780294577949


    Psi4 stopped on: Wednesday, 26 August 2020 12:56PM
    Psi4 wall time for execution: 0:00:07.32

*** Psi4 exiting successfully. Buy a developer a beer!
