
 Primary working directories    : /tmp/333988.35.gen4.q
 Secondary working directories  : /tmp/333988.35.gen4.q
 Wavefunction directory         : /home/vulcan/mel64643/wfu/
 Main file repository           : /tmp/333988.35.gen4.q/

 ARCHNAME  : Linux/x86_64
 FC        : /opt/intel/compilers_and_libraries_2016.1.150/linux/bin/intel64/ifort
 FCVERSION : 16.0.1
 BLASLIB   : -mkl
 id        : ccgc

 Nodes     nprocs
 n024         3
 Number of processes for MPI-2 version of Molpro:   nprocs(total)=    4   nprocs(compute)=    3   nprocs(helper)=    1
 ga_uses_ma=false, calling ma_init with nominal heap.
 GA-space will be limited to   8.0 MW (determined by -G option)

 Using customized tuning parameters: mindgm=10; mindgv=16; mindgc=4; mindgr=1; noblas=0; mincuda=1000; minvec=7
 default implementation of scratch files=sf  

 ***,Optimization of min3
 memory,1000,m
 gthresh,energy=1.0d-10,orbital=1.0d-10,oneint=1.0d-16,twoint=1.0d-16,optgrad=1.0d-6,compress=1.0d-13
 geomtyp=xyz
 
  bohr
  geometry = {
  12
  arbitrary comment
  C         -3.0998434946          1.5864664426          0.0185610831
  C         -0.8624948840         -0.0761822311         -0.6563860391
  C         -1.1190997478         -2.7810384418          0.2487018790
  O          1.3114176842          1.1053510643          0.5888937382
  O          3.4491897977          0.1200070973         -0.2519010281
  H         -4.8111134004          0.8526560719         -0.8684620226
  H         -2.8171880098          3.5271789242         -0.6140931484
  H         -3.4008542447          1.5983299574          2.0601669154
  H         -0.4643980341          0.0239083411         -2.6772039173
  H         -2.6967068292         -3.6827058424         -0.7278344836
  H         -1.4694269388         -2.8172333343          2.2818452162
  H          0.6092052703         -3.8188044378         -0.1695156138
 }
 
 basis=cc-pvtz
 {rhf;maxit,200}
 {uccsd(t);maxit,200}

 Variables initialized (661), CPU time= 0.00 sec
 Commands  initialized (458), CPU time= 0.01 sec, 486 directives.
 Default parameters read. Elapsed time= 0.06 sec

 Checking input...
 Passed
1


                                         ***  PROGRAM SYSTEM MOLPRO  ***
                         Copyright, University College Cardiff Consultants Limited, 2008

                                    Version 2010.1 linked May 16 2016 07:17:05


 **********************************************************************************************************************************
 LABEL *   Optimization of min3                                                          
 Linux-4.4.3/n024(x86_64) 64 bit mpp version                                             DATE: 15-Jul-20          TIME: 13:23:53  
 **********************************************************************************************************************************

 SHA1:             9e8077add272b0f3cad6f7df79ec5211205f459d
 **********************************************************************************************************************************

 THRESHOLDS:

 ZERO    =  1.00D-12  ONEINT  =  1.00D-16  TWOINT  =  1.00D-16  PREFAC  =  1.00D-14  LOCALI  =  1.00D-09  EORDER  =  1.00D-04
 ENERGY  =  1.00D-10  ETEST   =  0.00D+00  EDENS   =  0.00D+00  THRDEDEF=  1.00D-06  GRADIENT=  1.00D-02  STEP    =  1.00D-03
 ORBITAL =  1.00D-10  CIVEC   =  1.00D-05  COEFF   =  1.00D-04  PRINTCI =  5.00D-02  PUNCHCI =  9.90D+01  OPTGRAD =  1.00D-06
 OPTENERG=  1.00D-06  OPTSTEP =  3.00D-04  THRGRAD =  1.00D-10  COMPRESS=  1.00D-13  VARMIN  =  1.00D-07  VARMAX  =  1.00D-03
 THRDOUB =  0.00D+00  THRDIV  =  1.00D-05  THRRED  =  1.00D-07  THRPSP  =  1.00D+00  THRDC   =  1.00D-10  THRCS   =  1.00D-10
 THRNRM  =  1.00D-08  THREQ   =  0.00D+00  THRDE   =  1.00D+00  THRREF  =  1.00D-05  SPARFAC =  1.00D+00  THRDLP  =  1.00D-07
 THRDIA  =  1.00D-10  THRDLS  =  1.00D-07  THRGPS  =  0.00D+00  THRKEX  =  0.00D+00  THRDIS  =  2.00D-01  THRVAR  =  1.00D-10
 THRLOC  =  1.00D-06  THRGAP  =  1.00D-06  THRLOCT = -1.00D+00  THRGAPT = -1.00D+00  THRORB  =  1.00D-06  THRMLTP =  0.00D+00
 THRCPQCI=  1.00D-10  KEXTA   =  0.00D+00  THRCOARS=  0.00D+00  SYMTOL  =  1.00D-06  GRADTOL =  1.00D-06  THROVL  =  1.00D-08
 THRORTH =  1.00D-08  GRID    =  1.00D-06  GRIDMAX =  1.00D-03  DTMAX   =  0.00D+00

 SETTING GEOMTYP        =    XYZ
 ZUNIT=BOHR
 

 Variable memory set to 1000000000 words,  buffer space   230000 words

 SETTING BASIS          =    CC-PVTZ


 Recomputing integrals since basis changed


 Using spherical harmonics

 Library entry C      S cc-pVTZ              selected for orbital group  1
 Library entry C      P cc-pVTZ              selected for orbital group  1
 Library entry C      D cc-pVTZ              selected for orbital group  1
 Library entry C      F cc-pVTZ              selected for orbital group  1
 Library entry O      S cc-pVTZ              selected for orbital group  2
 Library entry O      P cc-pVTZ              selected for orbital group  2
 Library entry O      D cc-pVTZ              selected for orbital group  2
 Library entry O      F cc-pVTZ              selected for orbital group  2
 Library entry H      S cc-pVTZ              selected for orbital group  3
 Library entry H      P cc-pVTZ              selected for orbital group  3
 Library entry H      D cc-pVTZ              selected for orbital group  3

1PROGRAM * SEWARD (Integral evaluation for generally contracted gaussian basis sets)     Author: Roland Lindh, 1990

 Geometry written to block  1 of record 700


 Point group  C1  



 ATOMIC COORDINATES

 NR  ATOM    CHARGE       X              Y              Z

   1  C       6.00   -3.099843495    1.586466443    0.018561083
   2  C       6.00   -0.862494884   -0.076182231   -0.656386039
   3  C       6.00   -1.119099748   -2.781038442    0.248701879
   4  O       8.00    1.311417684    1.105351064    0.588893738
   5  O       8.00    3.449189798    0.120007097   -0.251901028
   6  H       1.00   -4.811113400    0.852656072   -0.868462023
   7  H       1.00   -2.817188010    3.527178924   -0.614093148
   8  H       1.00   -3.400854245    1.598329957    2.060166915
   9  H       1.00   -0.464398034    0.023908341   -2.677203917
  10  H       1.00   -2.696706829   -3.682705842   -0.727834484
  11  H       1.00   -1.469426939   -2.817233334    2.281845216
  12  H       1.00    0.609205270   -3.818804438   -0.169515614

 Bond lengths in Bohr (Angstrom)

 1-2  2.868045159  1-6  2.062457840  1-7  2.060706295  1-8  2.063710878  2-3  2.863787233
     ( 1.517704133)     ( 1.091405683)     ( 1.090478806)     ( 1.092068763)     ( 1.515450935)

  2- 4  2.769952799   2- 9  2.062087321   3-10  2.062879413   3-11  2.063422167   3-12  2.058859483
       ( 1.465795891)       ( 1.091209613)       ( 1.091628770)       ( 1.091915983)       ( 1.089501515)

 4-5  2.499581601
     ( 1.322721615)

 Bond angles

  1-2-3  113.78259465   1-2-4  105.02000003   1-2-9  110.67622922   2-1-6  109.86419823

  2- 1- 7  111.51272207   2- 1- 8  110.48298758   2- 3-10  109.37491394   2- 3-11  110.07126373

  2- 3-12  109.67351074   2- 4- 5  110.60030155   3- 2- 4  109.33675958   3- 2- 9  111.89234254

  4-2-9  105.56622378   6-1-7  108.47232490   6-1-8  107.84822403   7-1-8  108.56091736

 10- 3-11  109.20389323  10- 3-12  108.99594378  11- 3-12  109.50137465

 NUCLEAR CHARGE:                   41
 NUMBER OF PRIMITIVE AOS:         354
 NUMBER OF SYMMETRY AOS:          322
 NUMBER OF CONTRACTIONS:          248   ( 248A   )
 NUMBER OF CORE ORBITALS:           5   (   5A   )
 NUMBER OF VALENCE ORBITALS:       27   (  27A   )


 NUCLEAR REPULSION ENERGY  186.62378728


 Eigenvalues of metric

         1 0.808E-03 0.958E-03 0.110E-02 0.124E-02 0.136E-02 0.150E-02 0.160E-02 0.164E-02


 Contracted 2-electron integrals neglected if value below      1.0D-16
 AO integral compression algorithm  1   Integral accuracy      1.0D-16

     3371.958 MB (compressed) written to integral file ( 82.1%)

     Node minimum: 1106.510 MB, node maximum: 1144.521 MB


 NUMBER OF SORTED TWO-ELECTRON INTEGRALS:  158903334.     BUFFER LENGTH:  32768
 NUMBER OF SEGMENTS:  10  SEGMENT LENGTH:   15997437      RECORD LENGTH: 524288

 Memory used in sort:      16.55 MW

 SORT1 READ   513517932. AND WROTE   152623707. INTEGRALS IN    442 RECORDS. CPU TIME:    15.99 SEC, REAL TIME:    21.77 SEC
 SORT2 READ   459372635. AND WROTE   476679126. INTEGRALS IN  13098 RECORDS. CPU TIME:     2.58 SEC, REAL TIME:    11.60 SEC

 Node minimum:   158882750.  Node maximum:   158903334. integrals

 OPERATOR DM      FOR CENTER  0  COORDINATES:    0.000000    0.000000    0.000000


 **********************************************************************************************************************************
 DATASETS  * FILE   NREC   LENGTH (MB)   RECORD NAMES
              1      18        5.04       500      610      700      900      950      970     1000      129      960     1100   
                                          VAR    BASINP    GEOM    SYMINP    ZMAT    AOBASIS   BASIS     P2S    ABASIS      S 
                                         1400     1410     1200     1210     1080     1600     1650     1700   
                                           T        V       H0       H01     AOSYM     SMH    MOLCAS    OPER   

 PROGRAMS   *        TOTAL       INT
 CPU TIMES  *        27.32     27.23
 REAL TIME  *        44.17 SEC
 DISK USED  *         8.83 GB      
 GA USED    *         0.01 MB       (max)       0.00 MB       (current)
 **********************************************************************************************************************************

1PROGRAM * RHF-SCF (OPEN SHELL)       Authors: W. Meyer, H.-J. Werner


 NUMBER OF ELECTRONS:      21+   20-    SPACE SYMMETRY=1    SPIN SYMMETRY: Doublet 
 CONVERGENCE THRESHOLDS:    1.00E-10 (Density)    1.00E-11 (Energy)
 MAX. NUMBER OF ITERATIONS:      200
 INTERPOLATION TYPE:            DIIS
 INTERPOLATION STEPS:              2 (START)      1 (STEP)
 LEVEL SHIFTS:                 -0.30 (CLOSED)  0.00 (OPEN) 



 Orbital guess generated from atomic densities. Full valence occupancy:   32

 Molecular orbital dump at record        2100.2

 ITERATION    DDIFF          GRAD             ENERGY        2-EL.EN.            DIPOLE MOMENTS         DIIS
    1      0.000D+00      0.000D+00      -267.26107228    559.796154   -1.77371   -0.06785   -0.09706    0
    2      0.000D+00      0.326D-02      -267.33454835    562.643812   -1.01691   -0.43079   -0.35883    1
    3      0.471D-02      0.229D-02      -267.36103758    561.597642   -1.18989   -0.24304   -0.21655    2
    4      0.211D-02      0.547D-03      -267.36927063    561.784574   -0.97847   -0.31683   -0.29748    3
    5      0.926D-03      0.484D-03      -267.37348956    561.827124   -0.92289   -0.31931   -0.30164    4
    6      0.583D-03      0.271D-03      -267.37541043    561.794607   -0.88168   -0.31304   -0.29954    5
    7      0.485D-03      0.133D-03      -267.37574637    561.780463   -0.89153   -0.30155   -0.29140    6
    8      0.258D-03      0.354D-04      -267.37576797    561.777752   -0.89115   -0.29833   -0.28994    7
    9      0.837D-04      0.187D-04      -267.37577860    561.777990   -0.89368   -0.29886   -0.28998    8
   10      0.443D-04      0.818D-05      -267.37578040    561.777887   -0.89484   -0.29822   -0.28968    9
   11      0.198D-04      0.319D-05      -267.37578065    561.777831   -0.89546   -0.29807   -0.28952    9
   12      0.782D-05      0.147D-05      -267.37578071    561.778055   -0.89560   -0.29816   -0.28956    9
   13      0.368D-05      0.524D-06      -267.37578071    561.778109   -0.89561   -0.29822   -0.28959    9
   14      0.148D-05      0.296D-06      -267.37578072    561.778108   -0.89560   -0.29823   -0.28959    9
   15      0.811D-06      0.145D-06      -267.37578072    561.778115   -0.89560   -0.29824   -0.28960    9
   16      0.409D-06      0.723D-07      -267.37578072    561.778118   -0.89559   -0.29825   -0.28960    9
   17      0.172D-06      0.335D-07      -267.37578072    561.778113   -0.89559   -0.29824   -0.28960    9
   18      0.113D-06      0.196D-07      -267.37578072    561.778111   -0.89559   -0.29824   -0.28960    9
   19      0.642D-07      0.112D-07      -267.37578072    561.778113   -0.89559   -0.29824   -0.28960    9
   20      0.530D-07      0.828D-08      -267.37578072    561.778112   -0.89559   -0.29824   -0.28960    9
   21      0.490D-07      0.698D-08      -267.37578072    561.778112   -0.89559   -0.29824   -0.28960    9
   22      0.635D-07      0.572D-08      -267.37578072    561.778113   -0.89559   -0.29824   -0.28960    9
   23      0.890D-07      0.370D-08      -267.37578072    561.778113   -0.89559   -0.29824   -0.28960    9
   24      0.751D-07      0.224D-08      -267.37578072    561.778113   -0.89559   -0.29824   -0.28960    9
   25      0.395D-07      0.988D-09      -267.37578072    561.778114   -0.89559   -0.29824   -0.28960    9
   26      0.161D-07      0.419D-09      -267.37578072    561.778114   -0.89559   -0.29824   -0.28960    9
   27      0.172D-08      0.201D-09      -267.37578072    561.778114   -0.89559   -0.29824   -0.28960    9
   28      0.820D-09      0.961D-10      -267.37578072    561.778114   -0.89559   -0.29824   -0.28960    9
   29      0.539D-09      0.513D-10      -267.37578072    561.778114   -0.89559   -0.29824   -0.28960    9
   30      0.178D-09      0.256D-10      -267.37578072    561.778114   -0.89559   -0.29824   -0.28960    9
   31      0.729D-10      0.216D-10      -267.37578072    561.778114   -0.89559   -0.29824   -0.28960    0

 Final alpha occupancy:  21
 Final beta  occupancy:  20

 !RHF STATE 1.1 Energy               -267.375780717755
 Nuclear energy                       186.62378728
 One-electron energy                 -734.88862489
 Two-electron energy                  280.88905689
 Virial quotient                       -1.00116671
 !RHF STATE 1.1 Dipole moment          -0.89558920    -0.29824226    -0.28959598
 Dipole moment /Debye                  -2.27621160    -0.75800657    -0.73603135

 Orbital energies:

         1.1          2.1          3.1          4.1          5.1          6.1          7.1          8.1          9.1         10.1
    -20.648520   -20.640234   -11.297476   -11.228824   -11.225875    -1.523369    -1.170643    -1.034590    -0.952874    -0.819460

        11.1         12.1         13.1         14.1         15.1         16.1         17.1         18.1         19.1         20.1
     -0.695053    -0.668241    -0.651998    -0.595497    -0.563338    -0.556850    -0.544641    -0.500741    -0.490667    -0.464979

        21.1         22.1         23.1
     -0.562771     0.137643     0.174672


 **********************************************************************************************************************************
 DATASETS  * FILE   NREC   LENGTH (MB)   RECORD NAMES
              1      18        5.04       500      610      700      900      950      970     1000      129      960     1100   
                                          VAR    BASINP    GEOM    SYMINP    ZMAT    AOBASIS   BASIS     P2S    ABASIS      S 
                                         1400     1410     1200     1210     1080     1600     1650     1700   
                                           T        V       H0       H01     AOSYM     SMH    MOLCAS    OPER   

              2       3        2.21       700     1000     2100   
                                         GEOM     BASIS     RHF  

 PROGRAMS   *        TOTAL       RHF       INT
 CPU TIMES  *        92.93     65.60     27.23
 REAL TIME  *       115.05 SEC
 DISK USED  *         8.87 GB      
 SF USED    *         0.25 MB      
 GA USED    *         0.01 MB       (max)       0.00 MB       (current)
 **********************************************************************************************************************************


1PROGRAM * CCSD (Unrestricted open-shell coupled cluster)     Authors: C. Hampel, H.-J. Werner, 1991, M. Deegan, P.J. Knowles, 1992


 Convergence thresholds:  THRVAR = 1.00D-08  THRDEN = 1.00D-10

 CCSD(T)     terms to be evaluated (factor= 1.000)


 Number of core orbitals:           5 (   5 )
 Number of closed-shell orbitals:  15 (  15 )
 Number of active  orbitals:        1 (   1 )
 Number of external orbitals:     227 ( 227 )

 Memory could be reduced to 332.02 Mwords without degradation in triples

 Number of N-1 electron functions:              31
 Number of N-2 electron functions:             465
 Number of singly external CSFs:              7068
 Number of doubly external CSFs:          18353430
 Total number of CSFs:                    18360498

 Molecular orbitals read from record     2100.2  Type=RHF/CANONICAL (state 1.1)

 Integral transformation finished. Total CPU:  33.46 sec, npass=  1  Memory used: 145.25 MW

 Starting RMP2 calculation

 ITER.      SQ.NORM     CORR.ENERGY   TOTAL ENERGY   ENERGY CHANGE        DEN1      VAR(S)    VAR(P)  DIIS     TIME
   1      1.26541306    -0.96767524  -268.34345596    -0.96767524    -0.00323821  0.26D-04  0.11D-02  1  1    38.06
   2      1.26820011    -0.97116691  -268.34694763    -0.00349167    -0.00000667  0.10D-05  0.23D-05  2  2    41.61
   3      1.26828015    -0.97121986  -268.34700058    -0.00005295    -0.00000008  0.54D-07  0.11D-07  3  3    45.32
   4      1.26828185    -0.97121966  -268.34700038     0.00000020    -0.00000000  0.16D-08  0.12D-09  4  4    49.04
   5      1.26828211    -0.97121975  -268.34700047    -0.00000009    -0.00000000  0.19D-10  0.46D-11  5  5    52.84
   6      1.26828217    -0.97121978  -268.34700050    -0.00000003    -0.00000000  0.49D-13  0.56D-13  6  6    57.34
   7      1.26828217    -0.97121978  -268.34700050     0.00000000    -0.00000000  0.15D-14  0.85D-15  6  1    61.99
   8      1.26828217    -0.97121978  -268.34700050     0.00000000    -0.00000000  0.15D-16  0.79D-17  6  2    66.44
   9      1.26828217    -0.97121978  -268.34700050    -0.00000000    -0.00000000  0.31D-18  0.10D-18  6  3    71.65

 Norm of t1 vector:      0.04589950      S-energy:    -0.00446823      T1 diagnostic:  0.00074402
 Norm of t2 vector:      0.51592190      P-energy:    -0.96675155
                                         Alpha-Beta:  -0.73713209
                                         Alpha-Alpha: -0.11899896
                                         Beta-Beta:   -0.11062050

 Spin contamination <S**2-Sz**2-Sz>     0.00145453
  Reference energy                   -267.375780717755
  RHF-RMP2 correlation energy          -0.971219783826
 !RHF-RMP2 energy                    -268.347000501581

 Starting UCCSD calculation

 ITER.      SQ.NORM     CORR.ENERGY   TOTAL ENERGY   ENERGY CHANGE        DEN1      VAR(S)    VAR(P)  DIIS     TIME
   1      1.27987461    -0.97931533  -268.35509605    -0.97931533    -0.02933838  0.65D-02  0.54D-02  1  1   239.40
   2      1.30629049    -1.00594572  -268.38172643    -0.02663039    -0.00363610  0.62D-03  0.97D-03  2  2   409.53
   3      1.32295061    -1.01277277  -268.38855349    -0.00682706    -0.00091247  0.75D-03  0.76D-04  3  3   579.84
   4      1.33420080    -1.01543414  -268.39121486    -0.00266137    -0.00038524  0.31D-03  0.33D-04  4  4   751.49
   5      1.34928283    -1.01743222  -268.39321293    -0.00199808    -0.00011786  0.10D-03  0.90D-05  5  5   912.35
   6      1.36081974    -1.01845574  -268.39423646    -0.00102353    -0.00001806  0.92D-05  0.32D-05  6  6  1026.53
   7      1.36449624    -1.01869534  -268.39447606    -0.00023960    -0.00000315  0.16D-05  0.61D-06  6  1  1135.90
   8      1.36509827    -1.01873731  -268.39451803    -0.00004198    -0.00000067  0.26D-06  0.15D-06  6  2  1245.80
   9      1.36541742    -1.01875569  -268.39453641    -0.00001838    -0.00000015  0.65D-07  0.32D-07  6  4  1355.27
  10      1.36540351    -1.01875440  -268.39453512     0.00000130    -0.00000002  0.11D-07  0.43D-08  6  3  1464.46
  11      1.36546576    -1.01875948  -268.39454020    -0.00000508    -0.00000000  0.25D-08  0.94D-09  6  5  1574.70
  12      1.36545830    -1.01875701  -268.39453772     0.00000248    -0.00000000  0.12D-08  0.22D-09  6  6  1684.47
  13      1.36545385    -1.01875585  -268.39453656     0.00000116    -0.00000000  0.73D-09  0.59D-10  6  1  1795.25
  14      1.36544088    -1.01875433  -268.39453505     0.00000151    -0.00000000  0.50D-09  0.25D-10  6  2  1906.95
  15      1.36543458    -1.01875358  -268.39453429     0.00000076    -0.00000000  0.41D-09  0.20D-10  6  3  2018.30
  16      1.36543137    -1.01875340  -268.39453412     0.00000017    -0.00000000  0.29D-09  0.16D-10  6  4  2127.52
  17      1.36543094    -1.01875343  -268.39453415    -0.00000003    -0.00000000  0.14D-09  0.16D-10  6  5  2236.77
  18      1.36543414    -1.01875364  -268.39453436    -0.00000021    -0.00000000  0.29D-10  0.61D-11  6  6  2346.18
  19      1.36543749    -1.01875398  -268.39453470    -0.00000034    -0.00000000  0.26D-11  0.17D-11  6  2  2455.49
  20      1.36543693    -1.01875384  -268.39453456     0.00000013    -0.00000000  0.64D-12  0.17D-12  6  1  2564.74
  21      1.36543722    -1.01875389  -268.39453460    -0.00000004    -0.00000000  0.23D-12  0.62D-13  6  4  2675.88
  22      1.36543714    -1.01875388  -268.39453459     0.00000001    -0.00000000  0.64D-13  0.15D-13  6  3  2786.21
  23      1.36543716    -1.01875388  -268.39453460    -0.00000001    -0.00000000  0.18D-13  0.61D-14  6  6  2895.59
  24      1.36543714    -1.01875388  -268.39453460     0.00000000    -0.00000000  0.17D-14  0.59D-15  6  1  3006.08
  25      1.36543715    -1.01875388  -268.39453460     0.00000000    -0.00000000  0.65D-15  0.17D-15  6  5  3115.31
  26      1.36543716    -1.01875388  -268.39453460    -0.00000000    -0.00000000  0.18D-15  0.70D-16  6  2  3224.41
  27      1.36543717    -1.01875388  -268.39453460    -0.00000000    -0.00000000  0.46D-16  0.95D-17  6  4  3333.62
  28      1.36543717    -1.01875388  -268.39453460    -0.00000000    -0.00000000  0.12D-16  0.39D-17  6  3  3444.44
  29      1.36543718    -1.01875388  -268.39453460    -0.00000000    -0.00000000  0.44D-17  0.76D-18  6  6  3555.58
  30      1.36543718    -1.01875388  -268.39453460     0.00000000    -0.00000000  0.30D-17  0.28D-18  6  1  3666.66

 Norm of t1 vector:      0.23123533      S-energy:    -0.00501556      T1 diagnostic:  0.02849396
                                                                       D1 diagnostic:  0.14600676
 Norm of t2 vector:      0.55854042      P-energy:    -1.01373832
                                         Alpha-Beta:  -0.80142444
                                         Alpha-Alpha: -0.10868692
                                         Beta-Beta:   -0.10362696

 Singles amplitudes (print threshold =  0.500E-01):

         I         SYM. A    A   T(IA) [Beta-Beta]

         8         1         1     -0.09546755
         9         1         1      0.09886279
        11         1         1     -0.05681428
        12         1         1     -0.07356639
        14         1         1     -0.11105129

 Spin contamination <S**2-Sz**2-Sz>     0.00176112

 Memory could be reduced to 360.52 Mwords without degradation in triples
 

 RESULTS
 =======

  Reference energy                   -267.375780717755
  UCCSD singles energy                 -0.005015563251
  UCCSD pair energy                    -1.013738317810
  UCCSD correlation energy             -1.018753881061
  Triples (T) contribution             -0.040845105931
  Total correlation energy             -1.059598986992
 
  RHF-UCCSD energy                   -268.394534598816
  RHF-UCCSD[T] energy                -268.438703453798
  RHF-UCCSD-T energy                 -268.434881765191
 !RHF-UCCSD(T) energy                -268.435379704747

 Program statistics:

 Available memory in ccsd:               999997692
 Min. memory needed in ccsd:              51505734
 Max. memory used in ccsd:                74803578
 Max. memory used in cckext:              59475747 (30 integral passes)
 Max. memory used in cckint:             145249478 ( 1 integral passes)



 **********************************************************************************************************************************
 DATASETS  * FILE   NREC   LENGTH (MB)   RECORD NAMES
              1      18        5.04       500      610      700      900      950      970     1000      129      960     1100   
                                          VAR    BASINP    GEOM    SYMINP    ZMAT    AOBASIS   BASIS     P2S    ABASIS      S 
                                         1400     1410     1200     1210     1080     1600     1650     1700   
                                           T        V       H0       H01     AOSYM     SMH    MOLCAS    OPER   

              2       3        2.21       700     1000     2100   
                                         GEOM     BASIS     RHF  

 PROGRAMS   *        TOTAL  UCCSD(T)       RHF       INT
 CPU TIMES  *      5814.62   5721.68     65.60     27.23
 REAL TIME  *      5944.28 SEC
 DISK USED  *        15.85 GB      
 SF USED    *         6.57 GB      
 GA USED    *         0.01 MB       (max)       0.00 MB       (current)
 **********************************************************************************************************************************

        UCCSD(T)        RHF-SCF 
   -268.43537970   -267.37578072
 **********************************************************************************************************************************
 Variable memory released
