
    -----------------------------------------------------------------------
          Psi4: An Open-Source Ab Initio Electronic Structure Package
                               Psi4 1.4a2.dev629 

                         Git: Rev {master} 2938fc2 dirty


    D. G. A. Smith, L. A. Burns, A. C. Simmonett, R. M. Parrish,
    M. C. Schieber, R. Galvelis, P. Kraus, H. Kruse, R. Di Remigio,
    A. Alenaizan, A. M. James, S. Lehtola, J. P. Misiewicz, M. Scheurer,
    R. A. Shaw, J. B. Schriber, Y. Xie, Z. L. Glick, D. A. Sirianni,
    J. S. O'Brien, J. M. Waldrop, A. Kumar, E. G. Hohenstein,
    B. P. Pritchard, B. R. Brooks, H. F. Schaefer III, A. Yu. Sokolov,
    K. Patkowski, A. E. DePrince III, U. Bozkaya, R. A. King,
    F. A. Evangelista, J. M. Turney, T. D. Crawford, C. D. Sherrill,
    J. Chem. Phys. 152(18) 184108 (2020). https://doi.org/10.1063/5.0006002

                            Additional Code Authors
    E. T. Seidl, C. L. Janssen, E. F. Valeev, M. L. Leininger,
    J. F. Gonthier, R. M. Richard, H. R. McAlexander, M. Saitow, X. Wang,
    P. Verma, and M. H. Lechner

             Previous Authors, Complete List of Code Contributors,
                       and Citations for Specific Modules
    https://github.com/psi4/psi4/blob/master/codemeta.json
    https://github.com/psi4/psi4/graphs/contributors
    http://psicode.org/psi4manual/master/introduction.html#citing-psifour

    -----------------------------------------------------------------------


    Psi4 started on: Sunday, 28 February 2021 05:10PM

    Process ID: 30719
    Host:       n016
    PSIDATADIR: /opt/psi/4/master/share/psi4
    Memory:     500.0 MiB
    Threads:    1
    
  ==> Input File <==

--------------------------------------------------------------------------
# o-Benzyne preliminary computations

memory 14 gb

molecule {
  0 1
  units bohr
 H    0.0000000000   -1.4194589780    0.9984134853
 O    0.0000000000   -0.0000000000   -0.1304833506
 H    0.0000000000    1.4194589780    0.9984134853
}

set {
  basis cc-pvtz
  reference rhf
  e_convergence 10 
  d_convergence 10
  r_convergence 8
  maxiter 300
  freeze_core True
}

e, wfn = energy('ccsd(t)', return_wfn = True)
psi4.print_out('Giraffe The Energy is %.12f \n'%(e))
--------------------------------------------------------------------------

  Memory set to  13.039 GiB by Python driver.

Scratch directory: /tmp/

*** tstart() called on n016
*** at Sun Feb 28 17:10:27 2021

   => Loading Basis Set <=

    Name: CC-PVTZ
    Role: ORBITAL
    Keyword: BASIS
    atoms 1, 3 entry H          line    23 file /opt/psi/4/master/share/psi4/basis/cc-pvtz.gbs 
    atoms 2    entry O          line   262 file /opt/psi/4/master/share/psi4/basis/cc-pvtz.gbs 


         ---------------------------------------------------------
                                   SCF
               by Justin Turney, Rob Parrish, Andy Simmonett
                          and Daniel G. A. Smith
                              RHF Reference
                        1 Threads,  13351 MiB Core
         ---------------------------------------------------------

  ==> Geometry <==

    Molecular point group: c2v
    Full point group: C2v

    Geometry (in Bohr), charge = 0, multiplicity = 1:

       Center              X                  Y                   Z               Mass       
    ------------   -----------------  -----------------  -----------------  -----------------
         H            0.000000000000    -1.419458978000     1.002556489555     1.007825032230
         O            0.000000000000     0.000000000000    -0.126340346345    15.994914619570
         H           -0.000000000000     1.419458978000     1.002556489555     1.007825032230

  Running in c2v symmetry.

  Rotational constants: A =     26.38858  B =     14.82291  C =      9.49142 [cm^-1]
  Rotational constants: A = 791109.66206  B = 444379.59103  C = 284545.56542 [MHz]
  Nuclear repulsion =    9.174308729886945

  Charge       = 0
  Multiplicity = 1
  Electrons    = 10
  Nalpha       = 5
  Nbeta        = 5

  ==> Algorithm <==

  SCF Algorithm Type is PK.
  DIIS enabled.
  MOM disabled.
  Fractional occupation disabled.
  Guess Type is SAD.
  Energy threshold   = 1.00e-10
  Density threshold  = 1.00e-10
  Integral threshold = 0.00e+00

  ==> Primary Basis <==

  Basis Set: CC-PVTZ
    Blend: CC-PVTZ
    Number of shells: 22
    Number of basis function: 58
    Number of Cartesian functions: 65
    Spherical Harmonics?: true
    Max angular momentum: 3

  ==> Integral Setup <==

  Using in-core PK algorithm.
   Calculation information:
      Number of atoms:                   3
      Number of AO shells:              22
      Number of primitives:             42
      Number of atomic orbitals:        65
      Number of basis functions:        58

      Integral cutoff                 1.00e-12
      Number of threads:                 1

  Performing in-core PK
  Using 2929232 doubles for integral storage.
  We computed 32131 shell quartets total.
  Whereas there are 32131 unique shell quartets.

  ==> DiskJK: Disk-Based J/K Matrices <==

    J tasked:                  Yes
    K tasked:                  Yes
    wK tasked:                  No
    Memory [MiB]:            10013
    Schwarz Cutoff:          1E-12

    OpenMP threads:              1

  Minimum eigenvalue in the overlap matrix is 2.2568111029E-03.
  Reciprocal condition number of the overlap matrix is 5.1750156867E-04.
    Using symmetric orthogonalization.

  ==> Pre-Iterations <==

  SCF Guess: Superposition of Atomic Densities via on-the-fly atomic UHF (no occupation information).

   -------------------------
    Irrep   Nso     Nmo    
   -------------------------
     A1        23      23 
     A2         7       7 
     B1        11      11 
     B2        17      17 
   -------------------------
    Total      58      58
   -------------------------

  ==> Iterations <==

                        Total Energy        Delta E     RMS |[F,P]|

   @RHF iter SAD:   -75.50011668354534   -7.55001e+01   0.00000e+00 
   @RHF iter   1:   -75.97820559777348   -4.78089e-01   1.43659e-02 DIIS
   @RHF iter   2:   -76.03081511825573   -5.26095e-02   9.30077e-03 DIIS
   @RHF iter   3:   -76.05644523537210   -2.56301e-02   6.94470e-04 DIIS
   @RHF iter   4:   -76.05683495965059   -3.89724e-04   1.70153e-04 DIIS
   @RHF iter   5:   -76.05685976801465   -2.48084e-05   3.52749e-05 DIIS
   @RHF iter   6:   -76.05686132996841   -1.56195e-06   6.78476e-06 DIIS
   @RHF iter   7:   -76.05686138862278   -5.86544e-08   1.06349e-06 DIIS
   @RHF iter   8:   -76.05686138978845   -1.16567e-09   1.59682e-07 DIIS
   @RHF iter   9:   -76.05686138981518   -2.67306e-11   4.45202e-08 DIIS
   @RHF iter  10:   -76.05686138981758   -2.40163e-12   5.97423e-09 DIIS
   @RHF iter  11:   -76.05686138981764   -5.68434e-14   8.40617e-10 DIIS
   @RHF iter  12:   -76.05686138981754    9.94760e-14   1.36411e-10 DIIS
   @RHF iter  13:   -76.05686138981763   -8.52651e-14   1.61796e-11 DIIS
  Energy and wave function converged.


  ==> Post-Iterations <==

    Orbital Energies [Eh]
    ---------------------

    Doubly Occupied:                                                      

       1A1   -20.555920     2A1    -1.345521     1B2    -0.705530  
       3A1    -0.580239     1B1    -0.504773  

    Virtual:                                                              

       4A1     0.141718     2B2     0.204137     3B2     0.540676  
       5A1     0.606214     6A1     0.667657     2B1     0.787102  
       7A1     0.793007     4B2     0.806092     1A2     0.863818  
       3B1     0.948668     8A1     1.135334     5B2     1.200023  
       6B2     1.521123     9A1     1.565768     4B1     2.042759  
       7B2     2.054932     2A2     2.061781    10A1     2.173117  
      11A1     2.232887    12A1     2.581890     8B2     2.966130  
       5B1     3.341457    13A1     3.482311     3A2     3.592684  
       9B2     3.662088     6B1     3.796417    10B2     3.876292  
      14A1     3.888364     4A2     3.965039     7B1     4.015510  
      11B2     4.070848    15A1     4.191400     5A2     4.302812  
      16A1     4.368038    12B2     4.602412     8B1     4.681015  
      13B2     4.862136    17A1     5.159516    18A1     5.249579  
      14B2     5.521799     9B1     6.053147    19A1     6.580467  
      10B1     6.910621     6A2     6.936078    11B1     7.005840  
      20A1     7.017408    15B2     7.023448    21A1     7.182202  
       7A2     7.235788    22A1     7.445764    16B2     7.794705  
      17B2     8.289369    23A1    12.828751  

    Final Occupation by Irrep:
             A1    A2    B1    B2 
    DOCC [     3,    0,    1,    1 ]

  @RHF Final Energy:   -76.05686138981763

   => Energetics <=

    Nuclear Repulsion Energy =              9.1743087298869455
    One-Electron Energy =                -123.0783737801830284
    Two-Electron Energy =                  37.8472036604784634
    Total Energy =                        -76.0568613898176125

Computation Completed


Properties will be evaluated at   0.000000,   0.000000,   0.000000 [a0]

Properties computed using the SCF density matrix

  Nuclear Dipole Moment: [e a0]
     X:     0.0000      Y:     0.0000      Z:     0.9944

  Electronic Dipole Moment: [e a0]
     X:     0.0000      Y:     0.0000      Z:    -0.1875

  Dipole Moment: [e a0]
     X:     0.0000      Y:     0.0000      Z:     0.8069     Total:     0.8069

  Dipole Moment: [D]
     X:     0.0000      Y:     0.0000      Z:     2.0508     Total:     2.0508


*** tstop() called on n016 at Sun Feb 28 17:10:29 2021
Module time:
	user time   =       1.80 seconds =       0.03 minutes
	system time =       0.02 seconds =       0.00 minutes
	total time  =          2 seconds =       0.03 minutes
Total time:
	user time   =       1.80 seconds =       0.03 minutes
	system time =       0.02 seconds =       0.00 minutes
	total time  =          2 seconds =       0.03 minutes
 MINTS: Wrapper to libmints.
   by Justin Turney

   Calculation information:
      Number of threads:                 1
      Number of atoms:                   3
      Number of AO shells:              22
      Number of SO shells:              16
      Number of primitives:             42
      Number of atomic orbitals:        65
      Number of basis functions:        58

      Number of irreps:                  4
      Integral cutoff                 0.00e+00
      Number of functions per irrep: [  23    7   11   17 ]

 OEINTS: Overlap, kinetic, potential, dipole, and quadrupole integrals
         stored in file 35.

      Computing two-electron integrals...done
      Computed 355156 non-zero two-electron integrals.
        Stored in file 33.


*** tstart() called on n016
*** at Sun Feb 28 17:10:29 2021


	Wfn Parameters:
	--------------------
	Wavefunction         = CCSD_T
	Number of irreps     = 4
	Number of MOs        = 58
	Number of active MOs = 57
	AO-Basis             = NONE
	Semicanonical        = false
	Reference            = RHF
	Print Level          = 1

	IRREP	# MOs	# FZDC	# DOCC	# SOCC	# VIRT	# FZVR
	-----	-----	------	------	------	------	------
	 A1	   23	    1	    2	    0	    20	    0
	 A2	   7	    0	    0	    0	    7	    0
	 B1	   11	    0	    1	    0	    10	    0
	 B2	   17	    0	    1	    0	    16	    0
	Transforming integrals...
	IWL integrals will be deleted.
	(OO|OO)...
	Presorting SO-basis two-electron integrals.
	Sorting File: SO Ints (nn|nn) nbuckets = 1
	Transforming the one-electron integrals and constructing Fock matrices
	Starting first half-transformation.
	Sorting half-transformed integrals.
	First half integral transformation complete.
	Starting second half-transformation.
	Two-electron integral transformation complete.
	(OO|OV)...
	Starting second half-transformation.
	Two-electron integral transformation complete.
	(OO|VV)...
	Starting second half-transformation.
	Two-electron integral transformation complete.
	(OV|OO)...
	Starting first half-transformation.
	Sorting half-transformed integrals.
	First half integral transformation complete.
	Starting second half-transformation.
	Two-electron integral transformation complete.
	(OV|OV)...
	Starting second half-transformation.
	Two-electron integral transformation complete.
	(OV|VV)...
	Starting second half-transformation.
	Two-electron integral transformation complete.
	(VV|OO)...
	Starting first half-transformation.
	Sorting half-transformed integrals.
	First half integral transformation complete.
	Starting second half-transformation.
	Two-electron integral transformation complete.
	(VV|OV)...
	Starting second half-transformation.
	Two-electron integral transformation complete.
	(VV|VV)...
	Starting second half-transformation.
	Two-electron integral transformation complete.
	Frozen core energy     =    -61.31096034756693

	Size of irrep 0 of <ab|cd> integrals:      0.648 (MW) /      5.184 (MB)
	Size of irrep 1 of <ab|cd> integrals:      0.360 (MW) /      2.880 (MB)
	Size of irrep 2 of <ab|cd> integrals:      0.389 (MW) /      3.115 (MB)
	Size of irrep 3 of <ab|cd> integrals:      0.608 (MW) /      4.867 (MB)
	Total:                                     2.006 (MW) /     16.046 (MB)

	Size of irrep 0 of <ia|bc> integrals:      0.053 (MW) /      0.425 (MB)
	Size of irrep 1 of <ia|bc> integrals:      0.024 (MW) /      0.192 (MB)
	Size of irrep 2 of <ia|bc> integrals:      0.029 (MW) /      0.235 (MB)
	Size of irrep 3 of <ia|bc> integrals:      0.046 (MW) /      0.368 (MB)
	Total:                                     0.152 (MW) /      1.220 (MB)

	Size of irrep 0 of tijab amplitudes:       0.005 (MW) /      0.039 (MB)
	Size of irrep 1 of tijab amplitudes:       0.001 (MW) /      0.010 (MB)
	Size of irrep 2 of tijab amplitudes:       0.002 (MW) /      0.020 (MB)
	Size of irrep 3 of tijab amplitudes:       0.003 (MW) /      0.025 (MB)
	Total:                                     0.012 (MW) /      0.093 (MB)

	Nuclear Rep. energy          =      9.17430872988695
	SCF energy                   =    -76.05686138981763
	One-electron energy          =    -41.56829393186135
	Two-electron energy          =     17.64808415972370
	Reference energy             =    -76.05686138981764

*** tstop() called on n016 at Sun Feb 28 17:10:30 2021
Module time:
	user time   =       0.33 seconds =       0.01 minutes
	system time =       0.15 seconds =       0.00 minutes
	total time  =          1 seconds =       0.02 minutes
Total time:
	user time   =       2.30 seconds =       0.04 minutes
	system time =       0.17 seconds =       0.00 minutes
	total time  =          3 seconds =       0.05 minutes
            **************************
            *                        *
            *        CCENERGY        *
            *                        *
            **************************

    Nuclear Rep. energy (wfn)     =    9.174308729886945
    SCF energy          (wfn)     =  -76.056861389817627
    Reference energy    (file100) =  -76.056861389817641

    Input parameters:
    -----------------
    Wave function   =     CCSD_T
    Reference wfn   =     RHF
    Brueckner       =     No
    Memory (Mbytes) =     14000.0
    Maxiter         =    300
    R_Convergence   =     1.0e-08
    E_Convergence   =     1.0e-10
    Restart         =     Yes
    DIIS            =     Yes
    AO Basis        =     NONE
    ABCD            =     NEW
    Cache Level     =     2
    Cache Type      =     LOW
    Print Level     =     1
    Num. of threads =     1
    # Amps to Print =     10
    Print MP2 Amps? =     No
    Analyze T2 Amps =     No
    Print Pair Ener =     No
    Local CC        =     No
    SCS-MP2         =     False
    SCSN-MP2        =     False
    SCS-CCSD        =     False

MP2 correlation energy -0.2617898223497618
                Solving CC Amplitude Equations
                ------------------------------
  Iter             Energy              RMS        T1Diag      D1Diag    New D1Diag    D2Diag
  ----     ---------------------    ---------   ----------  ----------  ----------   --------
     0        -0.261789822349762    0.000e+00    0.000000    0.000000    0.000000    0.116310
     1        -0.262085910824091    2.916e-02    0.005722    0.009316    0.009316    0.119963
     2        -0.266938885795161    1.006e-02    0.005919    0.009471    0.009471    0.124657
     3        -0.267652709244653    3.235e-03    0.006510    0.010613    0.010613    0.126317
     4        -0.267644661197212    6.571e-04    0.006548    0.010704    0.010704    0.126527
     5        -0.267666680953104    2.072e-04    0.006569    0.010795    0.010795    0.126576
     6        -0.267667232136500    6.152e-05    0.006574    0.010831    0.010831    0.126572
     7        -0.267667323440539    1.976e-05    0.006577    0.010847    0.010847    0.126571
     8        -0.267667014544756    5.105e-06    0.006578    0.010851    0.010851    0.126570
     9        -0.267666925300676    1.047e-06    0.006578    0.010852    0.010852    0.126570
    10        -0.267666938039500    2.345e-07    0.006578    0.010852    0.010852    0.126570
    11        -0.267666936733039    4.542e-08    0.006578    0.010852    0.010852    0.126570
    12        -0.267666938351339    1.005e-08    0.006578    0.010852    0.010852    0.126570
    13        -0.267666938391991    2.406e-09    0.006578    0.010852    0.010852    0.126570
    14        -0.267666938401535    6.001e-10    0.006578    0.010852    0.010852    0.126570

    Iterations converged.


    Largest TIA Amplitudes:
              2  27        -0.0075527658
              1   0         0.0058682435
              3  41        -0.0058290820
              2  28        -0.0049646817
              1   3        -0.0045854879
              1   5        -0.0041957341
              0   2        -0.0040409964
              3  46        -0.0038587635
              1   2         0.0038369286
              1  11        -0.0038000184

    Largest TIjAb Amplitudes:
      2   2  27  27        -0.0476615027
      1   1   2   2        -0.0295026586
      3   3  38  38        -0.0272037547
      1   2   2  27         0.0258888794
      2   1  27   2         0.0258888794
      3   3   1   1        -0.0251814910
      3   3  39  39        -0.0226699038
      2   3  27  39         0.0222739674
      3   2  39  27         0.0222739674
      1   1  38  38        -0.0222101031

    SCF energy       (wfn)                    =  -76.056861389817627
    Reference energy (file100)                =  -76.056861389817641

    Opposite-spin MP2 correlation energy      =   -0.198205892272777
    Same-spin MP2 correlation energy          =   -0.063583930076985
    Singles MP2 correlation energy            =   -0.000000000000000
    MP2 correlation energy                    =   -0.261789822349762
      * MP2 total energy                      =  -76.318651212167396

    Opposite-spin CCSD correlation energy     =   -0.210981992044689
    Same-spin CCSD correlation energy         =   -0.056684946356846
    Singles CCSD correlation energy           =    0.000000000000000
    CCSD correlation energy                   =   -0.267666938401535
      * CCSD total energy                     =  -76.324528328219174

            **************************
            *                        *
            *        CCTRIPLES       *
            *                        *
            **************************


    Wave function   =    CCSD_T
    Reference wfn   =      RHF

    Nuclear Rep. energy (wfn)                =    9.174308729886945
    SCF energy          (wfn)                =  -76.056861389817627
    Reference energy    (file100)            =  -76.056861389817641
    CCSD energy         (file100)            =   -0.267666938401535
    Total CCSD energy   (file100)            =  -76.324528328219174

    Number of ijk index combinations:               20
    Memory available in words        :      1750000000
    ~Words needed per explicit thread:           32000
    Number of threads for explicit ijk threading:    1

    MKL num_threads set to 1 for explicit threading.

    (T) energy                                =   -0.007680073232200
      * CCSD(T) total energy                  =  -76.332208401451382

Giraffe The Energy is -76.332208401451 

    Psi4 stopped on: Sunday, 28 February 2021 05:10PM
    Psi4 wall time for execution: 0:00:06.94

*** Psi4 exiting successfully. Buy a developer a beer!
