
    -----------------------------------------------------------------------
          Psi4: An Open-Source Ab Initio Electronic Structure Package
                               Psi4 1.4a2.dev629 

                         Git: Rev {master} 2938fc2 dirty


    D. G. A. Smith, L. A. Burns, A. C. Simmonett, R. M. Parrish,
    M. C. Schieber, R. Galvelis, P. Kraus, H. Kruse, R. Di Remigio,
    A. Alenaizan, A. M. James, S. Lehtola, J. P. Misiewicz, M. Scheurer,
    R. A. Shaw, J. B. Schriber, Y. Xie, Z. L. Glick, D. A. Sirianni,
    J. S. O'Brien, J. M. Waldrop, A. Kumar, E. G. Hohenstein,
    B. P. Pritchard, B. R. Brooks, H. F. Schaefer III, A. Yu. Sokolov,
    K. Patkowski, A. E. DePrince III, U. Bozkaya, R. A. King,
    F. A. Evangelista, J. M. Turney, T. D. Crawford, C. D. Sherrill,
    J. Chem. Phys. 152(18) 184108 (2020). https://doi.org/10.1063/5.0006002

                            Additional Code Authors
    E. T. Seidl, C. L. Janssen, E. F. Valeev, M. L. Leininger,
    J. F. Gonthier, R. M. Richard, H. R. McAlexander, M. Saitow, X. Wang,
    P. Verma, and M. H. Lechner

             Previous Authors, Complete List of Code Contributors,
                       and Citations for Specific Modules
    https://github.com/psi4/psi4/blob/master/codemeta.json
    https://github.com/psi4/psi4/graphs/contributors
    http://psicode.org/psi4manual/master/introduction.html#citing-psifour

    -----------------------------------------------------------------------


    Psi4 started on: Tuesday, 15 September 2020 12:44PM

    Process ID: 3830
    Host:       n049
    PSIDATADIR: /opt/psi/4/master/share/psi4
    Memory:     500.0 MiB
    Threads:    1
    
  ==> Input File <==

--------------------------------------------------------------------------
# o-Benzyne preliminary computations

memory 14 gb

molecule {
  0 1
  C         -1.3711242459         -0.0235564086          0.0000039584  
  O          1.3016803914          0.1199547404          0.0000032887  
  H         -2.0748164130          1.9029584239         -0.0009196455  
  H         -2.1025169777         -0.9768744564          1.6756934991  
  H         -2.1024341764         -0.9783847054         -1.6748616312  
  H          1.9468966125         -1.5709859504         -0.0000115095  
  units bohr
}

set {
  basis=cc-pVTZ
  reference rhf
  e_convergence 10 
  d_convergence 10
  r_convergence 8
  maxiter 300
}

energy('ccsd(t)')
--------------------------------------------------------------------------

  Memory set to  13.039 GiB by Python driver.

Scratch directory: /tmp/

*** tstart() called on n049
*** at Tue Sep 15 12:44:45 2020

   => Loading Basis Set <=

    Name: CC-PVTZ
    Role: ORBITAL
    Keyword: BASIS
    atoms 1   entry C          line   186 file /opt/psi/4/master/share/psi4/basis/cc-pvtz.gbs 
    atoms 2   entry O          line   262 file /opt/psi/4/master/share/psi4/basis/cc-pvtz.gbs 
    atoms 3-6 entry H          line    23 file /opt/psi/4/master/share/psi4/basis/cc-pvtz.gbs 


         ---------------------------------------------------------
                                   SCF
               by Justin Turney, Rob Parrish, Andy Simmonett
                          and Daniel G. A. Smith
                              RHF Reference
                        1 Threads,  13351 MiB Core
         ---------------------------------------------------------

  ==> Geometry <==

    Molecular point group: c1
    Full point group: C1

    Geometry (in Bohr), charge = 0, multiplicity = 1:

       Center              X                  Y                   Z               Mass       
    ------------   -----------------  -----------------  -----------------  -----------------
         C           -1.371124244718    -0.023556407624     0.000003957174    12.000000000000
         O            1.301680392582     0.119954741376     0.000003287474    15.994914619570
         H           -2.074816411818     1.902958424876    -0.000919646726     1.007825032230
         H           -2.102516976518    -0.976874455424     1.675693497874     1.007825032230
         H           -2.102434175218    -0.978384704424    -1.674861632426     1.007825032230
         H            1.946896613682    -1.570985949424    -0.000011510726     1.007825032230

  Running in c1 symmetry.

  Rotational constants: A =      4.31316  B =      0.83164  C =      0.80234 [cm^-1]
  Rotational constants: A = 129305.38463  B =  24931.92118  C =  24053.62620 [MHz]
  Nuclear repulsion =   40.422214235547955

  Charge       = 0
  Multiplicity = 1
  Electrons    = 18
  Nalpha       = 9
  Nbeta        = 9

  ==> Algorithm <==

  SCF Algorithm Type is PK.
  DIIS enabled.
  MOM disabled.
  Fractional occupation disabled.
  Guess Type is SAD.
  Energy threshold   = 1.00e-10
  Density threshold  = 1.00e-10
  Integral threshold = 0.00e+00

  ==> Primary Basis <==

  Basis Set: CC-PVTZ
    Blend: CC-PVTZ
    Number of shells: 44
    Number of basis function: 116
    Number of Cartesian functions: 130
    Spherical Harmonics?: true
    Max angular momentum: 3

  ==> Integral Setup <==

  Using in-core PK algorithm.
   Calculation information:
      Number of atoms:                   6
      Number of AO shells:              44
      Number of primitives:             84
      Number of atomic orbitals:       130
      Number of basis functions:       116

      Integral cutoff                 1.00e-12
      Number of threads:                 1

  Performing in-core PK
  Using 46056582 doubles for integral storage.
  We computed 490491 shell quartets total.
  Whereas there are 490545 unique shell quartets.

  ==> DiskJK: Disk-Based J/K Matrices <==

    J tasked:                  Yes
    K tasked:                  Yes
    wK tasked:                  No
    Memory [MiB]:            10013
    Schwarz Cutoff:          1E-12

    OpenMP threads:              1

  Minimum eigenvalue in the overlap matrix is 1.8304574267E-03.
  Reciprocal condition number of the overlap matrix is 2.7603758231E-04.
    Using symmetric orthogonalization.

  ==> Pre-Iterations <==

  SCF Guess: Superposition of Atomic Densities via on-the-fly atomic UHF (no occupation information).

   -------------------------
    Irrep   Nso     Nmo    
   -------------------------
     A        116     116 
   -------------------------
    Total     116     116
   -------------------------

  ==> Iterations <==

                        Total Energy        Delta E     RMS |[F,P]|

   @RHF iter SAD:  -114.42759304092121   -1.14428e+02   0.00000e+00 
   @RHF iter   1:  -115.01465253335330   -5.87059e-01   3.41902e-03 DIIS
   @RHF iter   2:  -115.07173197524284   -5.70794e-02   1.94998e-03 DIIS
   @RHF iter   3:  -115.08848819176291   -1.67562e-02   3.00951e-04 DIIS
   @RHF iter   4:  -115.08936983966476   -8.81648e-04   8.76784e-05 DIIS
   @RHF iter   5:  -115.08944285675770   -7.30171e-05   2.13178e-05 DIIS
   @RHF iter   6:  -115.08944766367992   -4.80692e-06   4.70652e-06 DIIS
   @RHF iter   7:  -115.08944802662887   -3.62949e-07   1.09325e-06 DIIS
   @RHF iter   8:  -115.08944804800440   -2.13755e-08   2.26379e-07 DIIS
   @RHF iter   9:  -115.08944804891368   -9.09282e-10   4.19744e-08 DIIS
   @RHF iter  10:  -115.08944804894317   -2.94875e-11   1.07507e-08 DIIS
   @RHF iter  11:  -115.08944804894510   -1.93268e-12   2.18372e-09 DIIS
   @RHF iter  12:  -115.08944804894524   -1.42109e-13   3.89680e-10 DIIS
   @RHF iter  13:  -115.08944804894531   -7.10543e-14   7.19489e-11 DIIS
  Energy and wave function converged.


  ==> Post-Iterations <==

    Orbital Energies [Eh]
    ---------------------

    Doubly Occupied:                                                      

       1A    -20.552031     2A    -11.267975     3A     -1.355633  
       4A     -0.924347     5A     -0.689358     6A     -0.618808  
       7A     -0.591693     8A     -0.501861     9A     -0.448830  

    Virtual:                                                              

      10A      0.138613    11A      0.178827    12A      0.220619  
      13A      0.224251    14A      0.291033    15A      0.386695  
      16A      0.404160    17A      0.546810    18A      0.584005  
      19A      0.624303    20A      0.625817    21A      0.639777  
      22A      0.691025    23A      0.704802    24A      0.722465  
      25A      0.832929    26A      0.866154    27A      0.871949  
      28A      0.928494    29A      1.069951    30A      1.101455  
      31A      1.177984    32A      1.190232    33A      1.263327  
      34A      1.271306    35A      1.283879    36A      1.366535  
      37A      1.447398    38A      1.492463    39A      1.524123  
      40A      1.545995    41A      1.582867    42A      1.623218  
      43A      1.778064    44A      2.092875    45A      2.180750  
      46A      2.199483    47A      2.303003    48A      2.323669  
      49A      2.489857    50A      2.508910    51A      2.575806  
      52A      2.806211    53A      2.951015    54A      3.057048  
      55A      3.111055    56A      3.118832    57A      3.145077  
      58A      3.225855    59A      3.244592    60A      3.314576  
      61A      3.316707    62A      3.345368    63A      3.385597  
      64A      3.500979    65A      3.615598    66A      3.635670  
      67A      3.702945    68A      3.709979    69A      3.746718  
      70A      3.761819    71A      3.815909    72A      3.844218  
      73A      3.907887    74A      4.011513    75A      4.028820  
      76A      4.119729    77A      4.161983    78A      4.173378  
      79A      4.249336    80A      4.256674    81A      4.291804  
      82A      4.403722    83A      4.442204    84A      4.471682  
      85A      4.562408    86A      4.583929    87A      4.716223  
      88A      4.790265    89A      4.998474    90A      5.038707  
      91A      5.058770    92A      5.205562    93A      5.276003  
      94A      5.318214    95A      5.373072    96A      5.442548  
      97A      5.549877    98A      5.553790    99A      5.570301  
     100A      5.794407   101A      5.945895   102A      6.194084  
     103A      6.211699   104A      6.251811   105A      6.436052  
     106A      6.646337   107A      7.001400   108A      7.126989  
     109A      7.187201   110A      7.235284   111A      7.356681  
     112A      7.434652   113A      7.596091   114A      7.917094  
     115A     12.157181   116A     13.765687  

    Final Occupation by Irrep:
              A 
    DOCC [     9 ]

  @RHF Final Energy:  -115.08944804894531

   => Energetics <=

    Nuclear Repulsion Energy =             40.4222142355479548
    One-Electron Energy =                -237.1222517409594559
    Two-Electron Energy =                  81.6105894564661867
    Total Energy =                       -115.0894480489453144

Computation Completed


Properties will be evaluated at   0.000000,   0.000000,   0.000000 [a0]

Properties computed using the SCF density matrix

  Nuclear Dipole Moment: [e a0]
     X:    -2.1462      Y:    -0.8050      Z:    -0.0000

  Electronic Dipole Moment: [e a0]
     X:     1.7657      Y:     0.2178      Z:     0.0000

  Dipole Moment: [e a0]
     X:    -0.3804      Y:    -0.5872      Z:    -0.0000     Total:     0.6997

  Dipole Moment: [D]
     X:    -0.9670      Y:    -1.4925      Z:    -0.0001     Total:     1.7783


*** tstop() called on n049 at Tue Sep 15 12:44:48 2020
Module time:
	user time   =       3.27 seconds =       0.05 minutes
	system time =       0.03 seconds =       0.00 minutes
	total time  =          3 seconds =       0.05 minutes
Total time:
	user time   =       3.27 seconds =       0.05 minutes
	system time =       0.03 seconds =       0.00 minutes
	total time  =          3 seconds =       0.05 minutes
 MINTS: Wrapper to libmints.
   by Justin Turney

   Calculation information:
      Number of threads:                 1
      Number of atoms:                   6
      Number of AO shells:              44
      Number of SO shells:              44
      Number of primitives:             84
      Number of atomic orbitals:       130
      Number of basis functions:       116

      Number of irreps:                  1
      Integral cutoff                 0.00e+00
      Number of functions per irrep: [ 116 ]

 OEINTS: Overlap, kinetic, potential, dipole, and quadrupole integrals
         stored in file 35.

      Computing two-electron integrals...done
      Computed 22874698 non-zero two-electron integrals.
        Stored in file 33.


*** tstart() called on n049
*** at Tue Sep 15 12:44:50 2020


	Wfn Parameters:
	--------------------
	Wavefunction         = CCSD_T
	Number of irreps     = 1
	Number of MOs        = 116
	Number of active MOs = 116
	AO-Basis             = NONE
	Semicanonical        = false
	Reference            = RHF
	Print Level          = 1

	IRREP	# MOs	# FZDC	# DOCC	# SOCC	# VIRT	# FZVR
	-----	-----	------	------	------	------	------
	 A	   116	    0	    9	    0	    107	    0
	Transforming integrals...
	IWL integrals will be deleted.
	(OO|OO)...
	Presorting SO-basis two-electron integrals.
	Sorting File: SO Ints (nn|nn) nbuckets = 1
	Transforming the one-electron integrals and constructing Fock matrices
	Starting first half-transformation.
	Sorting half-transformed integrals.
	First half integral transformation complete.
	Starting second half-transformation.
	Two-electron integral transformation complete.
	(OO|OV)...
	Starting second half-transformation.
	Two-electron integral transformation complete.
	(OO|VV)...
	Starting second half-transformation.
	Two-electron integral transformation complete.
	(OV|OO)...
	Starting first half-transformation.
	Sorting half-transformed integrals.
	First half integral transformation complete.
	Starting second half-transformation.
	Two-electron integral transformation complete.
	(OV|OV)...
	Starting second half-transformation.
	Two-electron integral transformation complete.
	(OV|VV)...
	Starting second half-transformation.
	Two-electron integral transformation complete.
	(VV|OO)...
	Starting first half-transformation.
	Sorting half-transformed integrals.
	First half integral transformation complete.
	Starting second half-transformation.
	Two-electron integral transformation complete.
	(VV|OV)...
	Starting second half-transformation.
	Two-electron integral transformation complete.
	(VV|VV)...
	Starting second half-transformation.
	Two-electron integral transformation complete.
	Frozen core energy     =      0.00000000000000

	Size of irrep 0 of <ab|cd> integrals:    131.080 (MW) /   1048.637 (MB)
	Total:                                   131.080 (MW) /   1048.637 (MB)

	Size of irrep 0 of <ia|bc> integrals:     11.025 (MW) /     88.203 (MB)
	Total:                                    11.025 (MW) /     88.203 (MB)

	Size of irrep 0 of tijab amplitudes:       0.927 (MW) /      7.419 (MB)
	Total:                                     0.927 (MW) /      7.419 (MB)

	Nuclear Rep. energy          =     40.42221423554795
	SCF energy                   =   -115.08944804894531
	One-electron energy          =   -237.12225177286427
	Two-electron energy          =     81.61058948837091
	Reference energy             =   -115.08944804894540

*** tstop() called on n049 at Tue Sep 15 12:45:00 2020
Module time:
	user time   =       7.87 seconds =       0.13 minutes
	system time =       2.71 seconds =       0.05 minutes
	total time  =         10 seconds =       0.17 minutes
Total time:
	user time   =      12.69 seconds =       0.21 minutes
	system time =       2.90 seconds =       0.05 minutes
	total time  =         15 seconds =       0.25 minutes
            **************************
            *                        *
            *        CCENERGY        *
            *                        *
            **************************

    Nuclear Rep. energy (wfn)     =   40.422214235547955
    SCF energy          (wfn)     = -115.089448048945314
    Reference energy    (file100) = -115.089448048945400

    Input parameters:
    -----------------
    Wave function   =     CCSD_T
    Reference wfn   =     RHF
    Brueckner       =     No
    Memory (Mbytes) =     14000.0
    Maxiter         =    300
    R_Convergence   =     1.0e-08
    E_Convergence   =     1.0e-10
    Restart         =     Yes
    DIIS            =     Yes
    AO Basis        =     NONE
    ABCD            =     NEW
    Cache Level     =     2
    Cache Type      =     LOW
    Print Level     =     1
    Num. of threads =     1
    # Amps to Print =     10
    Print MP2 Amps? =     No
    Analyze T2 Amps =     No
    Print Pair Ener =     No
    Local CC        =     No
    SCS-MP2         =     False
    SCSN-MP2        =     False
    SCS-CCSD        =     False

MP2 correlation energy -0.4573882280765384
                Solving CC Amplitude Equations
                ------------------------------
  Iter             Energy              RMS        T1Diag      D1Diag    New D1Diag    D2Diag
  ----     ---------------------    ---------   ----------  ----------  ----------   --------
     0        -0.457388228076538    0.000e+00    0.000000    0.000000    0.000000    0.128036
     1        -0.464926821361128    4.761e-02    0.006479    0.014778    0.014778    0.129154
     2        -0.474877000477416    1.561e-02    0.006589    0.014739    0.014739    0.134859
     3        -0.476346145426370    5.469e-03    0.007382    0.016806    0.016806    0.136277
     4        -0.476243171701030    1.202e-03    0.007435    0.016948    0.016948    0.136502
     5        -0.476282928175653    4.341e-04    0.007467    0.017080    0.017080    0.136598
     6        -0.476291489406743    1.227e-04    0.007476    0.017131    0.017131    0.136605
     7        -0.476289308052114    4.546e-05    0.007478    0.017146    0.017146    0.136603
     8        -0.476289171649562    1.690e-05    0.007479    0.017154    0.017154    0.136603
     9        -0.476289278433872    4.894e-06    0.007480    0.017156    0.017156    0.136603
    10        -0.476289033357335    1.558e-06    0.007480    0.017157    0.017157    0.136603
    11        -0.476289100615719    4.785e-07    0.007480    0.017157    0.017157    0.136603
    12        -0.476289086315132    1.167e-07    0.007480    0.017157    0.017157    0.136603
    13        -0.476289089374036    4.168e-08    0.007480    0.017157    0.017157    0.136603
    14        -0.476289090522693    1.186e-08    0.007480    0.017157    0.017157    0.136603
    15        -0.476289090567375    4.909e-09    0.007480    0.017157    0.017157    0.136603
    16        -0.476289090596452    1.532e-09    0.007480    0.017157    0.017157    0.136603

    Iterations converged.


    Largest TIA Amplitudes:
              5   6        -0.0079833587
              5  14         0.0076347525
              5   9         0.0070487045
              8  14        -0.0063467991
              6   7         0.0059606567
              6   3        -0.0059076303
              7   8         0.0058322394
              5   2         0.0057057267
              8   6         0.0052934145
              6   5        -0.0051008582

    Largest TIjAb Amplitudes:
      5   5   9   9        -0.0230154741
      8   8  14  14        -0.0212444930
      6   6   7   7        -0.0208997030
      7   7  12  12        -0.0205316667
      4   4   7   7        -0.0191017741
      6   6   8   8        -0.0163268846
      5   5  14  14        -0.0151724960
      7   7   7   7        -0.0151385884
      5   5   2   9        -0.0149646345
      5   5   9   2        -0.0149646345

    SCF energy       (wfn)                    = -115.089448048945314
    Reference energy (file100)                = -115.089448048945400

    Opposite-spin MP2 correlation energy      =   -0.353822329572225
    Same-spin MP2 correlation energy          =   -0.103565898504313
    Singles MP2 correlation energy            =   -0.000000000000000
    MP2 correlation energy                    =   -0.457388228076538
      * MP2 total energy                      = -115.546836277021939

    Opposite-spin CCSD correlation energy     =   -0.381782458269220
    Same-spin CCSD correlation energy         =   -0.094506632327233
    Singles CCSD correlation energy           =    0.000000000000000
    CCSD correlation energy                   =   -0.476289090596452
      * CCSD total energy                     = -115.565737139541852

            **************************
            *                        *
            *        CCTRIPLES       *
            *                        *
            **************************


    Wave function   =    CCSD_T
    Reference wfn   =      RHF

    Nuclear Rep. energy (wfn)                =   40.422214235547955
    SCF energy          (wfn)                = -115.089448048945314
    Reference energy    (file100)            = -115.089448048945400
    CCSD energy         (file100)            =   -0.476289090596452
    Total CCSD energy   (file100)            = -115.565737139541852

    Number of ijk index combinations:              165
    Memory available in words        :      1750000000
    ~Words needed per explicit thread:         4900172
    Number of threads for explicit ijk threading:    1

    MKL num_threads set to 1 for explicit threading.

    (T) energy                                =   -0.015041839479747
      * CCSD(T) total energy                  = -115.580778979021602


    Psi4 stopped on: Tuesday, 15 September 2020 12:45PM
    Psi4 wall time for execution: 0:01:04.60

*** Psi4 exiting successfully. Buy a developer a beer!
