
 Primary working directories    : /tmp/795519.23.gen6.q
 Secondary working directories  : /tmp/795519.23.gen6.q
 Wavefunction directory         : /home/vulcan/mel64643/wfu/
 Main file repository           : /tmp/795519.23.gen6.q/

 ARCHNAME  : Linux/x86_64
 FC        : /opt/intel/compilers_and_libraries_2016.1.150/linux/bin/intel64/ifort
 FCVERSION : 16.0.1
 BLASLIB   : -mkl
 id        : ccgc

 Nodes     nprocs
 n077         1
 ga_uses_ma=false, calling ma_init with nominal heap.
 GA-space will be limited to   8.0 MW (determined by -G option)

 Using customized tuning parameters: mindgm=10; mindgv=16; mindgc=4; mindgr=1; noblas=0; mincuda=1000; minvec=7
 default implementation of scratch files=df  

 ***,Optimization of min3
 memory,1000,m
 gthresh,energy=1.0d-12,orbital=1.0d-10,oneint=1.0d-16,twoint=1.0d-16,optgrad=1.0d-6,compress=1.0d-13
 geomtyp=xyz
 
  bohr
  geometry = {
  6
  arbitrary comment
  C   -1.3753027622   -0.0226309845    0.0000002749
  O    1.3040100143    0.1204752333    0.0000002394
  H   -2.0695489262    1.9075853197   -0.0000798833
  H   -2.1112851097   -0.9817026713    1.6807880725
  H   -2.1112782906   -0.9818338136   -1.6807157486
  H    1.9396809145   -1.5720252036   -0.0000013648
 }
 
 basis=cc-pvdz
 {rhf;maxit,200}
 {ccsd(t);maxit,200}

 Variables initialized (661), CPU time= 0.00 sec
 Commands  initialized (458), CPU time= 0.01 sec, 486 directives.
 Default parameters read. Elapsed time= 0.05 sec

 Checking input...
 Passed
1


                                         ***  PROGRAM SYSTEM MOLPRO  ***
                         Copyright, University College Cardiff Consultants Limited, 2008

                                    Version 2010.1 linked May 16 2016 07:17:05


 **********************************************************************************************************************************
 LABEL *   Optimization of min3                                                          
 Linux-4.4.3/n077(x86_64) 64 bit mpp version                                             DATE: 24-Oct-22          TIME: 15:41:06  
 **********************************************************************************************************************************

 SHA1:             9e8077add272b0f3cad6f7df79ec5211205f459d
 **********************************************************************************************************************************

 THRESHOLDS:

 ZERO    =  1.00D-12  ONEINT  =  1.00D-16  TWOINT  =  1.00D-16  PREFAC  =  1.00D-14  LOCALI  =  1.00D-09  EORDER  =  1.00D-04
 ENERGY  =  1.00D-12  ETEST   =  0.00D+00  EDENS   =  0.00D+00  THRDEDEF=  1.00D-06  GRADIENT=  1.00D-02  STEP    =  1.00D-03
 ORBITAL =  1.00D-10  CIVEC   =  1.00D-05  COEFF   =  1.00D-04  PRINTCI =  5.00D-02  PUNCHCI =  9.90D+01  OPTGRAD =  1.00D-06
 OPTENERG=  1.00D-06  OPTSTEP =  3.00D-04  THRGRAD =  1.00D-10  COMPRESS=  1.00D-13  VARMIN  =  1.00D-07  VARMAX  =  1.00D-03
 THRDOUB =  0.00D+00  THRDIV  =  1.00D-05  THRRED  =  1.00D-07  THRPSP  =  1.00D+00  THRDC   =  1.00D-10  THRCS   =  1.00D-10
 THRNRM  =  1.00D-08  THREQ   =  0.00D+00  THRDE   =  1.00D+00  THRREF  =  1.00D-05  SPARFAC =  1.00D+00  THRDLP  =  1.00D-07
 THRDIA  =  1.00D-10  THRDLS  =  1.00D-07  THRGPS  =  0.00D+00  THRKEX  =  0.00D+00  THRDIS  =  2.00D-01  THRVAR  =  1.00D-10
 THRLOC  =  1.00D-06  THRGAP  =  1.00D-06  THRLOCT = -1.00D+00  THRGAPT = -1.00D+00  THRORB  =  1.00D-06  THRMLTP =  0.00D+00
 THRCPQCI=  1.00D-10  KEXTA   =  0.00D+00  THRCOARS=  0.00D+00  SYMTOL  =  1.00D-06  GRADTOL =  1.00D-06  THROVL  =  1.00D-08
 THRORTH =  1.00D-08  GRID    =  1.00D-06  GRIDMAX =  1.00D-03  DTMAX   =  0.00D+00

 SETTING GEOMTYP        =    XYZ
 ZUNIT=BOHR
 

 Variable memory set to 1000000000 words,  buffer space   230000 words

 SETTING BASIS          =    CC-PVDZ


 Recomputing integrals since basis changed


 Using spherical harmonics

 Library entry C      S cc-pVDZ              selected for orbital group  1
 Library entry C      P cc-pVDZ              selected for orbital group  1
 Library entry C      D cc-pVDZ              selected for orbital group  1
 Library entry O      S cc-pVDZ              selected for orbital group  2
 Library entry O      P cc-pVDZ              selected for orbital group  2
 Library entry O      D cc-pVDZ              selected for orbital group  2
 Library entry H      S cc-pVDZ              selected for orbital group  3
 Library entry H      P cc-pVDZ              selected for orbital group  3

1PROGRAM * SEWARD (Integral evaluation for generally contracted gaussian basis sets)     Author: Roland Lindh, 1990

 Geometry written to block  1 of record 700


 Point group  C1  



 ATOMIC COORDINATES

 NR  ATOM    CHARGE       X              Y              Z

   1  C       6.00   -1.375302762   -0.022630984    0.000000275
   2  O       8.00    1.304010014    0.120475233    0.000000239
   3  H       1.00   -2.069548926    1.907585320   -0.000079883
   4  H       1.00   -2.111285110   -0.981702671    1.680788072
   5  H       1.00   -2.111278291   -0.981833814   -1.680715749
   6  H       1.00    1.939680915   -1.572025204   -0.000001365

 Bond lengths in Bohr (Angstrom)

 1-2  2.683131816  1-3  2.051271002  1-4  2.070395164  1-5  2.070395227  2-6  1.807936731
     ( 1.419852206)     ( 1.085485864)     ( 1.095605935)     ( 1.095605968)     ( 0.956718913)

 Bond angles

  1-2-6  107.52787061   2-1-3  106.72492405   2-1-4  112.31385519   2-1-5  112.31385869

  3-1-4  108.39793272   3-1-5  108.39776743   4-1-5  108.54482449

 NUCLEAR CHARGE:                   18
 NUMBER OF PRIMITIVE AOS:          82
 NUMBER OF SYMMETRY AOS:           80
 NUMBER OF CONTRACTIONS:           48   (  48A   )
 NUMBER OF CORE ORBITALS:           2   (   2A   )
 NUMBER OF VALENCE ORBITALS:       12   (  12A   )


 NUCLEAR REPULSION ENERGY   40.34429729


 Eigenvalues of metric

         1 0.965E-02 0.176E-01 0.367E-01 0.375E-01 0.378E-01 0.476E-01 0.477E-01 0.513E-01


 Contracted 2-electron integrals neglected if value below      1.0D-16
 AO integral compression algorithm  1   Integral accuracy      1.0D-16

     6.291 MB (compressed) written to integral file ( 98.2%)

     Node minimum: 6.291 MB, node maximum: 6.291 MB


 NUMBER OF SORTED TWO-ELECTRON INTEGRALS:     692076.     BUFFER LENGTH:  32768
 NUMBER OF SEGMENTS:   1  SEGMENT LENGTH:     692076      RECORD LENGTH: 524288

 Memory used in sort:       1.25 MW

 SORT1 READ      832256. AND WROTE      682147. INTEGRALS IN      2 RECORDS. CPU TIME:     0.01 SEC, REAL TIME:     0.01 SEC
 SORT2 READ      682147. AND WROTE      692076. INTEGRALS IN     24 RECORDS. CPU TIME:     0.02 SEC, REAL TIME:     0.02 SEC

 FILE SIZES:   FILE 1:     8.0 MBYTE,  FILE 4:     8.4 MBYTE,   TOTAL:     16.4 MBYTE

 OPERATOR DM      FOR CENTER  0  COORDINATES:    0.000000    0.000000    0.000000


 **********************************************************************************************************************************
 DATASETS  * FILE   NREC   LENGTH (MB)   RECORD NAMES
              1      19        8.03       500      610      700      900      950      970     1000      129      960     1100   
                                          VAR    BASINP    GEOM    SYMINP    ZMAT    AOBASIS   BASIS     P2S    ABASIS      S 
                                         1400     1410     1200     1210     1080     1600     1650     1300     1700   
                                           T        V       H0       H01     AOSYM     SMH    MOLCAS    ERIS     OPER   

 PROGRAMS   *        TOTAL       INT
 CPU TIMES  *         0.19      0.15
 REAL TIME  *         0.39 SEC
 DISK USED  *        23.34 MB      
 GA USED    *         0.00 MB       (max)       0.00 MB       (current)
 **********************************************************************************************************************************

1PROGRAM * RHF-SCF (CLOSED SHELL)       Authors: W. Meyer, H.-J. Werner


 NUMBER OF ELECTRONS:       9+    9-    SPACE SYMMETRY=1    SPIN SYMMETRY: Singlet 
 CONVERGENCE THRESHOLDS:    1.00E-10 (Density)    1.00E-13 (Energy)
 MAX. NUMBER OF ITERATIONS:      200
 INTERPOLATION TYPE:            DIIS
 INTERPOLATION STEPS:              2 (START)      1 (STEP)
 LEVEL SHIFTS:                  0.00 (CLOSED)  0.00 (OPEN) 



 Orbital guess generated from atomic densities. Full valence occupancy:   14

 Molecular orbital dump at record        2100.2

 ITERATION    DDIFF          GRAD             ENERGY        2-EL.EN.            DIPOLE MOMENTS         DIIS
    1      0.000D+00      0.000D+00      -115.01437680    164.451799   -0.49385   -0.89891   -0.00000    0
    2      0.000D+00      0.110D-01      -115.04271929    162.234960   -0.31517   -0.53412   -0.00000    1
    3      0.205D-01      0.529D-02      -115.04872369    163.258196   -0.39862   -0.60861   -0.00000    2
    4      0.638D-02      0.112D-02      -115.04918513    163.102366   -0.38838   -0.59746   -0.00000    3
    5      0.204D-02      0.201D-03      -115.04920586    163.108731   -0.39115   -0.59313   -0.00000    4
    6      0.431D-03      0.351D-04      -115.04920664    163.108912   -0.39143   -0.59291   -0.00000    5
    7      0.924D-04      0.728D-05      -115.04920666    163.107720   -0.39156   -0.59275   -0.00000    6
    8      0.148D-04      0.235D-05      -115.04920667    163.108095   -0.39159   -0.59272   -0.00000    7
    9      0.498D-05      0.481D-06      -115.04920667    163.108055   -0.39160   -0.59272   -0.00000    6
   10      0.138D-05      0.844D-07      -115.04920667    163.108054   -0.39161   -0.59272   -0.00000    6
   11      0.228D-06      0.315D-07      -115.04920667    163.108060   -0.39161   -0.59272   -0.00000    6
   12      0.569D-07      0.129D-07      -115.04920667    163.108058   -0.39161   -0.59272   -0.00000    7
   13      0.240D-07      0.291D-08      -115.04920667    163.108058   -0.39161   -0.59272   -0.00000    7
   14      0.723D-08      0.630D-09      -115.04920667    163.108058   -0.39161   -0.59272   -0.00000    7
   15      0.161D-08      0.144D-09      -115.04920667    163.108058   -0.39161   -0.59272   -0.00000    7
   16      0.319D-09      0.431D-10      -115.04920667    163.108058   -0.39161   -0.59272   -0.00000    7
   17      0.829D-10      0.154D-10      -115.04920667    163.108058   -0.39161   -0.59272   -0.00000    7
   18      0.395D-10      0.257D-11      -115.04920667    163.108058   -0.39161   -0.59272   -0.00000    0

 Final occupancy:   9

 !RHF STATE 1.1 Energy               -115.049206667836
 Nuclear energy                        40.34429729
 One-electron energy                 -236.94753291
 Two-electron energy                   81.55402895
 Virial quotient                       -1.00084175
 !RHF STATE 1.1 Dipole moment          -0.39160628    -0.59271970    -0.00000281
 Dipole moment /Debye                  -0.99529870    -1.50644454    -0.00000715

 Orbital energies:

         1.1          2.1          3.1          4.1          5.1          6.1          7.1          8.1          9.1         10.1
    -20.549602   -11.274472    -1.350774    -0.921749    -0.683763    -0.613325    -0.585543    -0.497707    -0.442802     0.184737

        11.1
      0.224842


 **********************************************************************************************************************************
 DATASETS  * FILE   NREC   LENGTH (MB)   RECORD NAMES
              1      19        8.03       500      610      700      900      950      970     1000      129      960     1100   
                                          VAR    BASINP    GEOM    SYMINP    ZMAT    AOBASIS   BASIS     P2S    ABASIS      S 
                                         1400     1410     1200     1210     1080     1600     1650     1300     1700   
                                           T        V       H0       H01     AOSYM     SMH    MOLCAS    ERIS     OPER   

              2       3        0.39       700     1000     2100   
                                         GEOM     BASIS     RHF  

 PROGRAMS   *        TOTAL       RHF       INT
 CPU TIMES  *         0.26      0.07      0.15
 REAL TIME  *         0.49 SEC
 DISK USED  *        23.34 MB      
 GA USED    *         0.00 MB       (max)       0.00 MB       (current)
 **********************************************************************************************************************************


1PROGRAM * CCSD (Closed-shell coupled cluster)     Authors: C. Hampel, H.-J. Werner, 1991, M. Deegan, P.J. Knowles, 1992


 Convergence thresholds:  THRVAR = 1.00D-08  THRDEN = 1.00D-12

 CCSD(T)     terms to be evaluated (factor= 1.000)


 Number of core orbitals:           2 (   2 )
 Number of closed-shell orbitals:   7 (   7 )
 Number of external orbitals:      39 (  39 )

 Molecular orbitals read from record     2100.2  Type=RHF/CANONICAL (state 1.1)

 Number of N-1 electron functions:               7
 Number of N-2 electron functions:              28
 Number of singly external CSFs:               273
 Number of doubly external CSFs:             37401
 Total number of CSFs:                       37675

 Length of J-op  integral file:               0.00 MB
 Length of K-op  integral file:               0.19 MB
 Length of 3-ext integral record:             0.00 MB

 Memory could be reduced to 0.96 Mwords without degradation in triples

 Integral transformation finished. Total CPU:   0.01 sec, npass=  1  Memory used:   0.66 MW

 Reference energy:                   -115.04920667

 MP2 singlet pair energy:              -0.21852275
 MP2 triplet pair energy:              -0.11979430
 MP2 correlation energy:               -0.33831704
 MP2 total energy:                   -115.38752371

 SCS-MP2 correlation energy:           -0.33676597   (PS=  1.200000  PT=  0.333333)
 SCS-MP2 total energy:               -115.38597264

 ITER.      SQ.NORM     CORR.ENERGY   TOTAL ENERGY   ENERGY CHANGE        DEN1      VAR(S)    VAR(P)  DIIS     TIME
   1      1.10719301    -0.36112129  -115.41032796    -0.02280424    -0.01414148  0.91D-03  0.17D-02  1  1     0.05
   2      1.11569447    -0.36306070  -115.41226736    -0.00193941    -0.00923406  0.20D-04  0.16D-03  2  2     0.08
   3      1.11756479    -0.36318731  -115.41239398    -0.00012661    -0.00119792  0.95D-05  0.85D-05  3  3     0.11
   4      1.11807700    -0.36318582  -115.41239249     0.00000149    -0.00025378  0.33D-06  0.67D-06  4  4     0.14
   5      1.11817458    -0.36318620  -115.41239287    -0.00000038    -0.00003587  0.98D-07  0.49D-07  5  5     0.18
   6      1.11819351    -0.36318485  -115.41239152     0.00000135    -0.00000434  0.16D-07  0.41D-08  6  6     0.21
   7      1.11819823    -0.36318443  -115.41239110     0.00000042    -0.00000035  0.20D-08  0.71D-09  6  1     0.24
   8      1.11819949    -0.36318453  -115.41239120    -0.00000010     0.00000074  0.25D-09  0.71D-10  6  3     0.27
   9      1.11820054    -0.36318441  -115.41239108     0.00000012    -0.00000038  0.12D-10  0.10D-10  6  2     0.30
  10      1.11820047    -0.36318441  -115.41239108    -0.00000000     0.00000007  0.11D-11  0.86D-12  6  5     0.34
  11      1.11820050    -0.36318441  -115.41239108     0.00000000    -0.00000000  0.19D-12  0.49D-13  6  4     0.37
  12      1.11820048    -0.36318441  -115.41239108    -0.00000000     0.00000001  0.18D-13  0.98D-14  6  1     0.40
  13      1.11820049    -0.36318441  -115.41239108    -0.00000000    -0.00000000  0.23D-14  0.92D-15  6  6     0.43
  14      1.11820049    -0.36318441  -115.41239108     0.00000000    -0.00000000  0.22D-15  0.12D-15  6  3     0.46
  15      1.11820049    -0.36318441  -115.41239108    -0.00000000    -0.00000000  0.24D-16  0.16D-16  6  2     0.50
  16      1.11820049    -0.36318441  -115.41239108    -0.00000000    -0.00000000  0.54D-17  0.16D-17  6  5     0.53
  17      1.11820049    -0.36318441  -115.41239108    -0.00000000    -0.00000000  0.52D-18  0.24D-18  6  4     0.56
  18      1.11820049    -0.36318441  -115.41239108     0.00000000    -0.00000000  0.80D-19  0.41D-19  6  1     0.59
  19      1.11820049    -0.36318441  -115.41239108    -0.00000000    -0.00000000  0.90D-20  0.41D-20  6  6     0.63
  20      1.11820049    -0.36318441  -115.41239108     0.00000000     0.00000000  0.13D-20  0.54D-21  6  3     0.66

 Norm of t1 vector:      0.04159160      S-energy:    -0.00000000      T1 diagnostic:  0.00786007
                                                                       D1 diagnostic:  0.01745742


 Total CPU time for triples:      0.17 sec


 RESULTS
 =======

  Reference energy                   -115.049206667836
  CCSD singlet pair energy             -0.254436815961
  CCSD triplet pair energy             -0.108747596431
  CCSD correlation energy              -0.363184412392

  Triples (T) contribution             -0.007722997404
  Total correlation energy             -0.370907409796

  CCSD total energy                  -115.412391080229
  CCSD[T] energy                     -115.420403204588
  CCSD-T energy                      -115.419964610455
 !CCSD(T) total energy               -115.420114077633

 Timing summary (sec):

 STEP                 CPU(USER)    SYS     CPU(TOT)    WALL
 Transformation          0.01      0.01      0.02      0.02
 CCSD iterations         0.65      0.04      0.69      0.71
 Triples                 0.17      0.00      0.17      0.17

 Program statistics:

 Available memory in ccsd:               999999704
 Min. memory needed in ccsd:                136801
 Max. memory used in ccsd:                  163198
 Max. memory used in cckext:                182024 (20 integral passes)



 **********************************************************************************************************************************
 DATASETS  * FILE   NREC   LENGTH (MB)   RECORD NAMES
              1      20       10.56       500      610      700      900      950      970     1000      129      960     1100   
                                          VAR    BASINP    GEOM    SYMINP    ZMAT    AOBASIS   BASIS     P2S    ABASIS      S 
                                         1400     1410     1200     1210     1080     1600     1650     1300     1700     1380   
                                           T        V       H0       H01     AOSYM     SMH    MOLCAS    ERIS     OPER     JKOP   

              2       3        0.39       700     1000     2100   
                                         GEOM     BASIS     RHF  

 PROGRAMS   *        TOTAL   CCSD(T)       RHF       INT
 CPU TIMES  *         1.09      0.83      0.07      0.15
 REAL TIME  *         1.41 SEC
 DISK USED  *        24.76 MB      
 GA USED    *         0.00 MB       (max)       0.00 MB       (current)
 **********************************************************************************************************************************

        CCSD(T)         RHF-SCF 
   -115.42011408   -115.04920667
 **********************************************************************************************************************************
 Variable memory released
