
 Primary working directories    : /tmp/601556.17.gen6.q
 Secondary working directories  : /tmp/601556.17.gen6.q
 Wavefunction directory         : /home/vulcan/mel64643/wfu/
 Main file repository           : /tmp/601556.17.gen6.q/

 ARCHNAME  : Linux/x86_64
 FC        : /opt/intel/compilers_and_libraries_2016.1.150/linux/bin/intel64/ifort
 FCVERSION : 16.0.1
 BLASLIB   : -mkl
 id        : ccgc

 Nodes     nprocs
 n079         1
 ga_uses_ma=false, calling ma_init with nominal heap.
 GA-space will be limited to   8.0 MW (determined by -G option)

 Using customized tuning parameters: mindgm=10; mindgv=16; mindgc=4; mindgr=1; noblas=0; mincuda=1000; minvec=7
 default implementation of scratch files=df  

 ***,Optimization of min3
 memory,1000,m
 gthresh,energy=1.0d-12,orbital=1.0d-10,oneint=1.0d-16,twoint=1.0d-16,optgrad=1.0d-6,compress=1.0d-13
 geomtyp=xyz
 
  bohr
  geometry = {
  6
  arbitrary comment
  C   -1.3743387708   -0.0228350048   -0.0000000149
  O    1.3065728533    0.1220632388   -0.0000007354
  H   -2.0750388128    1.9116469134   -0.0000751353
  H   -2.1108610053   -0.9821767592    1.6785684239
  H   -2.1108528156   -0.9823151561   -1.6784999642
  H    1.9407943912   -1.5765153520   -0.0000009841
 }
 
 basis=cc-pvtz
 {rhf;maxit,200}
 {ccsd(t);maxit,200}

 Variables initialized (661), CPU time= 0.00 sec
 Commands  initialized (458), CPU time= 0.00 sec, 486 directives.
 Default parameters read. Elapsed time= 0.04 sec

 Checking input...
 Passed
1


                                         ***  PROGRAM SYSTEM MOLPRO  ***
                         Copyright, University College Cardiff Consultants Limited, 2008

                                    Version 2010.1 linked May 16 2016 07:17:05


 **********************************************************************************************************************************
 LABEL *   Optimization of min3                                                          
 Linux-4.4.3/n079(x86_64) 64 bit mpp version                                             DATE: 06-Nov-21          TIME: 15:41:15  
 **********************************************************************************************************************************

 SHA1:             9e8077add272b0f3cad6f7df79ec5211205f459d
 **********************************************************************************************************************************

 THRESHOLDS:

 ZERO    =  1.00D-12  ONEINT  =  1.00D-16  TWOINT  =  1.00D-16  PREFAC  =  1.00D-14  LOCALI  =  1.00D-09  EORDER  =  1.00D-04
 ENERGY  =  1.00D-12  ETEST   =  0.00D+00  EDENS   =  0.00D+00  THRDEDEF=  1.00D-06  GRADIENT=  1.00D-02  STEP    =  1.00D-03
 ORBITAL =  1.00D-10  CIVEC   =  1.00D-05  COEFF   =  1.00D-04  PRINTCI =  5.00D-02  PUNCHCI =  9.90D+01  OPTGRAD =  1.00D-06
 OPTENERG=  1.00D-06  OPTSTEP =  3.00D-04  THRGRAD =  1.00D-10  COMPRESS=  1.00D-13  VARMIN  =  1.00D-07  VARMAX  =  1.00D-03
 THRDOUB =  0.00D+00  THRDIV  =  1.00D-05  THRRED  =  1.00D-07  THRPSP  =  1.00D+00  THRDC   =  1.00D-10  THRCS   =  1.00D-10
 THRNRM  =  1.00D-08  THREQ   =  0.00D+00  THRDE   =  1.00D+00  THRREF  =  1.00D-05  SPARFAC =  1.00D+00  THRDLP  =  1.00D-07
 THRDIA  =  1.00D-10  THRDLS  =  1.00D-07  THRGPS  =  0.00D+00  THRKEX  =  0.00D+00  THRDIS  =  2.00D-01  THRVAR  =  1.00D-10
 THRLOC  =  1.00D-06  THRGAP  =  1.00D-06  THRLOCT = -1.00D+00  THRGAPT = -1.00D+00  THRORB  =  1.00D-06  THRMLTP =  0.00D+00
 THRCPQCI=  1.00D-10  KEXTA   =  0.00D+00  THRCOARS=  0.00D+00  SYMTOL  =  1.00D-06  GRADTOL =  1.00D-06  THROVL  =  1.00D-08
 THRORTH =  1.00D-08  GRID    =  1.00D-06  GRIDMAX =  1.00D-03  DTMAX   =  0.00D+00

 SETTING GEOMTYP        =    XYZ
 ZUNIT=BOHR
 

 Variable memory set to 1000000000 words,  buffer space   230000 words

 SETTING BASIS          =    CC-PVTZ


 Recomputing integrals since basis changed


 Using spherical harmonics

 Library entry C      S cc-pVTZ              selected for orbital group  1
 Library entry C      P cc-pVTZ              selected for orbital group  1
 Library entry C      D cc-pVTZ              selected for orbital group  1
 Library entry C      F cc-pVTZ              selected for orbital group  1
 Library entry O      S cc-pVTZ              selected for orbital group  2
 Library entry O      P cc-pVTZ              selected for orbital group  2
 Library entry O      D cc-pVTZ              selected for orbital group  2
 Library entry O      F cc-pVTZ              selected for orbital group  2
 Library entry H      S cc-pVTZ              selected for orbital group  3
 Library entry H      P cc-pVTZ              selected for orbital group  3
 Library entry H      D cc-pVTZ              selected for orbital group  3

1PROGRAM * SEWARD (Integral evaluation for generally contracted gaussian basis sets)     Author: Roland Lindh, 1990

 Geometry written to block  1 of record 700


 Point group  C1  



 ATOMIC COORDINATES

 NR  ATOM    CHARGE       X              Y              Z

   1  C       6.00   -1.374338771   -0.022835005   -0.000000015
   2  O       8.00    1.306572853    0.122063239   -0.000000735
   3  H       1.00   -2.075038813    1.911646913   -0.000075135
   4  H       1.00   -2.110861005   -0.982176759    1.678568424
   5  H       1.00   -2.110852816   -0.982315156   -1.678499964
   6  H       1.00    1.940794391   -1.576515352   -0.000000984

 Bond lengths in Bohr (Angstrom)

 1-2  2.684824508  1-3  2.057474385  1-4  2.068911213  1-5  2.068916910  2-6  1.813120566
     ( 1.420747940)     ( 1.088768553)     ( 1.094820661)     ( 1.094823676)     ( 0.959462081)

 Bond angles

  1-2-6  107.38109236   2-1-3  106.81747114   2-1-4  112.36476534   2-1-5  112.36465224

  3-1-4  108.34668462   3-1-5  108.34693408   4-1-5  108.44857453

 NUCLEAR CHARGE:                   18
 NUMBER OF PRIMITIVE AOS:         162
 NUMBER OF SYMMETRY AOS:          148
 NUMBER OF CONTRACTIONS:          116   ( 116A   )
 NUMBER OF CORE ORBITALS:           2   (   2A   )
 NUMBER OF VALENCE ORBITALS:       12   (  12A   )


 NUCLEAR REPULSION ENERGY   40.30828030


 Eigenvalues of metric

         1 0.133E-02 0.180E-02 0.191E-02 0.235E-02 0.330E-02 0.461E-02 0.738E-02 0.100E-01


 Contracted 2-electron integrals neglected if value below      1.0D-16
 AO integral compression algorithm  1   Integral accuracy      1.0D-16

     196.346 MB (compressed) written to integral file ( 92.1%)

     Node minimum: 196.346 MB, node maximum: 196.346 MB


 NUMBER OF SORTED TWO-ELECTRON INTEGRALS:   23028291.     BUFFER LENGTH:  32768
 NUMBER OF SEGMENTS:   2  SEGMENT LENGTH:   15997996      RECORD LENGTH: 524288

 Memory used in sort:      16.56 MW

 SORT1 READ    26631627. AND WROTE    22813218. INTEGRALS IN     67 RECORDS. CPU TIME:     0.21 SEC, REAL TIME:     0.35 SEC
 SORT2 READ    22813218. AND WROTE    23028291. INTEGRALS IN    749 RECORDS. CPU TIME:     0.19 SEC, REAL TIME:     0.28 SEC

 FILE SIZES:   FILE 1:   175.9 MBYTE,  FILE 4:   281.1 MBYTE,   TOTAL:    456.9 MBYTE

 OPERATOR DM      FOR CENTER  0  COORDINATES:    0.000000    0.000000    0.000000


 **********************************************************************************************************************************
 DATASETS  * FILE   NREC   LENGTH (MB)   RECORD NAMES
              1      19      176.04       500      610      700      900      950      970     1000      129      960     1100   
                                          VAR    BASINP    GEOM    SYMINP    ZMAT    AOBASIS   BASIS     P2S    ABASIS      S 
                                         1400     1410     1200     1210     1080     1600     1650     1300     1700   
                                           T        V       H0       H01     AOSYM     SMH    MOLCAS    ERIS     OPER   

 PROGRAMS   *        TOTAL       INT
 CPU TIMES  *         1.34      1.30
 REAL TIME  *         1.84 SEC
 DISK USED  *       653.92 MB      
 GA USED    *         0.00 MB       (max)       0.00 MB       (current)
 **********************************************************************************************************************************

1PROGRAM * RHF-SCF (CLOSED SHELL)       Authors: W. Meyer, H.-J. Werner


 NUMBER OF ELECTRONS:       9+    9-    SPACE SYMMETRY=1    SPIN SYMMETRY: Singlet 
 CONVERGENCE THRESHOLDS:    1.00E-10 (Density)    1.00E-13 (Energy)
 MAX. NUMBER OF ITERATIONS:      200
 INTERPOLATION TYPE:            DIIS
 INTERPOLATION STEPS:              2 (START)      1 (STEP)
 LEVEL SHIFTS:                  0.00 (CLOSED)  0.00 (OPEN) 



 Orbital guess generated from atomic densities. Full valence occupancy:   14

 Molecular orbital dump at record        2100.2

 ITERATION    DDIFF          GRAD             ENERGY        2-EL.EN.            DIPOLE MOMENTS         DIIS
    1      0.000D+00      0.000D+00      -115.05316556    164.436395   -0.48601   -0.90639   -0.00000    0
    2      0.000D+00      0.474D-02      -115.08148130    161.988364   -0.29794   -0.50189   -0.00000    1
    3      0.784D-02      0.254D-02      -115.08856233    163.158256   -0.38973   -0.59977   -0.00000    2
    4      0.257D-02      0.497D-03      -115.08906947    163.002718   -0.38280   -0.59373   -0.00000    3
    5      0.686D-03      0.982D-04      -115.08910044    163.009836   -0.38642   -0.58898   -0.00000    4
    6      0.186D-03      0.186D-04      -115.08910180    163.008420   -0.38682   -0.58897   -0.00000    5
    7      0.479D-04      0.394D-05      -115.08910186    163.007504   -0.38701   -0.58876   -0.00000    6
    8      0.910D-05      0.119D-05      -115.08910186    163.007969   -0.38704   -0.58874   -0.00000    7
    9      0.233D-05      0.323D-06      -115.08910186    163.007864   -0.38705   -0.58873   -0.00000    6
   10      0.767D-06      0.596D-07      -115.08910186    163.007875   -0.38705   -0.58873   -0.00000    6
   11      0.158D-06      0.150D-07      -115.08910186    163.007878   -0.38705   -0.58873   -0.00000    6
   12      0.298D-07      0.631D-08      -115.08910186    163.007876   -0.38705   -0.58873   -0.00000    7
   13      0.111D-07      0.171D-08      -115.08910186    163.007877   -0.38705   -0.58873   -0.00000    7
   14      0.347D-08      0.353D-09      -115.08910186    163.007877   -0.38705   -0.58873   -0.00000    7
   15      0.848D-09      0.903D-10      -115.08910186    163.007877   -0.38705   -0.58873   -0.00000    7
   16      0.183D-09      0.225D-10      -115.08910186    163.007877   -0.38705   -0.58873   -0.00000    7
   17      0.516D-10      0.973D-11      -115.08910186    163.007877   -0.38705   -0.58873   -0.00000    0

 Final occupancy:   9

 !RHF STATE 1.1 Energy               -115.089101863621
 Nuclear energy                        40.30828030
 One-electron energy                 -236.90132046
 Two-electron energy                   81.50393829
 Virial quotient                       -1.00128838
 !RHF STATE 1.1 Dipole moment          -0.38705281    -0.58872549    -0.00000037
 Dipole moment /Debye                  -0.98372569    -1.49629294    -0.00000095

 Orbital energies:

         1.1          2.1          3.1          4.1          5.1          6.1          7.1          8.1          9.1         10.1
    -20.552726   -11.269771    -1.354202    -0.923077    -0.688212    -0.617224    -0.590025    -0.502502    -0.448984     0.138356

        11.1
      0.178623


 **********************************************************************************************************************************
 DATASETS  * FILE   NREC   LENGTH (MB)   RECORD NAMES
              1      19      176.04       500      610      700      900      950      970     1000      129      960     1100   
                                          VAR    BASINP    GEOM    SYMINP    ZMAT    AOBASIS   BASIS     P2S    ABASIS      S 
                                         1400     1410     1200     1210     1080     1600     1650     1300     1700   
                                           T        V       H0       H01     AOSYM     SMH    MOLCAS    ERIS     OPER   

              2       3        0.63       700     1000     2100   
                                         GEOM     BASIS     RHF  

 PROGRAMS   *        TOTAL       RHF       INT
 CPU TIMES  *         3.59      2.25      1.30
 REAL TIME  *         4.42 SEC
 DISK USED  *       653.92 MB      
 GA USED    *         0.00 MB       (max)       0.00 MB       (current)
 **********************************************************************************************************************************


1PROGRAM * CCSD (Closed-shell coupled cluster)     Authors: C. Hampel, H.-J. Werner, 1991, M. Deegan, P.J. Knowles, 1992


 Convergence thresholds:  THRVAR = 1.00D-08  THRDEN = 1.00D-12

 CCSD(T)     terms to be evaluated (factor= 1.000)


 Number of core orbitals:           2 (   2 )
 Number of closed-shell orbitals:   7 (   7 )
 Number of external orbitals:     107 ( 107 )

 Molecular orbitals read from record     2100.2  Type=RHF/CANONICAL (state 1.1)

 Number of N-1 electron functions:               7
 Number of N-2 electron functions:              28
 Number of singly external CSFs:               749
 Number of doubly external CSFs:            280875
 Total number of CSFs:                      281625

 Length of J-op  integral file:               0.00 MB
 Length of K-op  integral file:               0.96 MB
 Length of 3-ext integral record:             0.00 MB

 Memory could be reduced to 12.77 Mwords without degradation in triples

 Integral transformation finished. Total CPU:   0.46 sec, npass=  1  Memory used:   7.23 MW

 Reference energy:                   -115.08910186

 MP2 singlet pair energy:              -0.28103514
 MP2 triplet pair energy:              -0.14730956
 MP2 correlation energy:               -0.42834470
 MP2 total energy:                   -115.51744657

 SCS-MP2 correlation energy:           -0.42890145   (PS=  1.200000  PT=  0.333333)
 SCS-MP2 total energy:               -115.51800332

 ITER.      SQ.NORM     CORR.ENERGY   TOTAL ENERGY   ENERGY CHANGE        DEN1      VAR(S)    VAR(P)  DIIS     TIME
   1      1.11803717    -0.44562734  -115.53472920    -0.01728263    -0.00693081  0.12D-02  0.18D-02  1  1     0.99
   2      1.12591936    -0.44681218  -115.53591405    -0.00118485    -0.00944972  0.16D-04  0.22D-03  2  2     1.56
   3      1.12851151    -0.44688880  -115.53599067    -0.00007662    -0.00178389  0.76D-05  0.10D-04  3  3     2.14
   4      1.12915185    -0.44689020  -115.53599207    -0.00000140    -0.00033304  0.35D-06  0.84D-06  4  4     2.71
   5      1.12925742    -0.44689204  -115.53599390    -0.00000183    -0.00003996  0.11D-06  0.65D-07  5  5     3.28
   6      1.12928242    -0.44688987  -115.53599173     0.00000217    -0.00000746  0.18D-07  0.50D-08  6  6     3.85
   7      1.12928601    -0.44688977  -115.53599164     0.00000009    -0.00000027  0.26D-08  0.90D-09  6  2     4.43
   8      1.12928735    -0.44688972  -115.53599159     0.00000005     0.00000002  0.42D-09  0.11D-09  6  1     5.00
   9      1.12928809    -0.44688967  -115.53599153     0.00000005    -0.00000003  0.28D-10  0.17D-10  6  3     5.58
  10      1.12928816    -0.44688969  -115.53599155    -0.00000002     0.00000007  0.25D-11  0.19D-11  6  4     6.16
  11      1.12928803    -0.44688969  -115.53599156    -0.00000001     0.00000011  0.23D-12  0.12D-12  6  6     6.74
  12      1.12928801    -0.44688970  -115.53599156    -0.00000000     0.00000001  0.27D-13  0.11D-13  6  5     7.32
  13      1.12928801    -0.44688970  -115.53599156    -0.00000000    -0.00000000  0.56D-14  0.17D-14  6  2     7.90
  14      1.12928801    -0.44688970  -115.53599156     0.00000000    -0.00000000  0.43D-15  0.14D-15  6  1     8.48
  15      1.12928801    -0.44688970  -115.53599156    -0.00000000    -0.00000000  0.62D-16  0.28D-16  6  3     9.06
  16      1.12928801    -0.44688970  -115.53599156     0.00000000     0.00000000  0.18D-16  0.33D-17  6  4     9.64
  17      1.12928801    -0.44688970  -115.53599156    -0.00000000     0.00000000  0.12D-17  0.72D-18  6  5    10.22
  18      1.12928801    -0.44688970  -115.53599156    -0.00000000     0.00000000  0.93D-19  0.45D-19  6  6    10.79
  19      1.12928801    -0.44688970  -115.53599156     0.00000000    -0.00000000  0.19D-19  0.98D-20  6  2    11.36
  20      1.12928801    -0.44688970  -115.53599156     0.00000000    -0.00000000  0.13D-20  0.73D-21  6  1    11.94

 Norm of t1 vector:      0.04469993      S-energy:    -0.00000000      T1 diagnostic:  0.00844749
                                                                       D1 diagnostic:  0.01722450


 Total CPU time for triples:      5.97 sec


 RESULTS
 =======

  Reference energy                   -115.089101863621
  CCSD singlet pair energy             -0.313141734464
  CCSD triplet pair energy             -0.133747962586
  CCSD correlation energy              -0.446889697053

  Triples (T) contribution             -0.014791634182
  Total correlation energy             -0.461681331235

  CCSD total energy                  -115.535991560674
  CCSD[T] energy                     -115.551249550221
  CCSD-T energy                      -115.550517490416
 !CCSD(T) total energy               -115.550783194856

 Timing summary (sec):

 STEP                 CPU(USER)    SYS     CPU(TOT)    WALL
 Transformation          0.47      0.07      0.54      0.53
 CCSD iterations        11.47      0.60     12.07     12.12
 Triples                 5.97      0.12      6.09      6.09

 Program statistics:

 Available memory in ccsd:               999999704
 Min. memory needed in ccsd:                915605
 Max. memory used in ccsd:                 1141922
 Max. memory used in cckext:                874802 (20 integral passes)



 **********************************************************************************************************************************
 DATASETS  * FILE   NREC   LENGTH (MB)   RECORD NAMES
              1      20      215.44       500      610      700      900      950      970     1000      129      960     1100   
                                          VAR    BASINP    GEOM    SYMINP    ZMAT    AOBASIS   BASIS     P2S    ABASIS      S 
                                         1400     1410     1200     1210     1080     1600     1650     1300     1700     1380   
                                           T        V       H0       H01     AOSYM     SMH    MOLCAS    ERIS     OPER     JKOP   

              2       3        0.63       700     1000     2100   
                                         GEOM     BASIS     RHF  

 PROGRAMS   *        TOTAL   CCSD(T)       RHF       INT
 CPU TIMES  *        21.51     17.91      2.25      1.30
 REAL TIME  *        23.19 SEC
 DISK USED  *       653.92 MB      
 GA USED    *         0.00 MB       (max)       0.00 MB       (current)
 **********************************************************************************************************************************

        CCSD(T)         RHF-SCF 
   -115.55078319   -115.08910186
 **********************************************************************************************************************************
 Variable memory released
