
 Primary working directories    : /tmp/601755.3.gen4.q
 Secondary working directories  : /tmp/601755.3.gen4.q
 Wavefunction directory         : /home/vulcan/nlk36701/wfu/
 Main file repository           : /tmp/601755.3.gen4.q/

 ARCHNAME  : Linux/x86_64
 FC        : /opt/intel/compilers_and_libraries_2016.1.150/linux/bin/intel64/ifort
 FCVERSION : 16.0.1
 BLASLIB   : -mkl
 id        : ccgc

 Nodes     nprocs
 n022         1
 ga_uses_ma=false, calling ma_init with nominal heap.
 GA-space will be limited to   8.0 MW (determined by -G option)

 Using customized tuning parameters: mindgm=10; mindgv=16; mindgc=4; mindgr=1; noblas=0; mincuda=1000; minvec=7
 default implementation of scratch files=df  

 ***,Optimization of min3
 memory,1000,m
 gthresh,energy=1.0d-12,orbital=1.0d-10,oneint=1.0d-16,twoint=1.0d-16,optgrad=1.0d-6,compress=1.0d-13
 geomtyp=xyz
 
  bohr
  geometry = {
  3
  arbitrary comment
  H   -0.0000000000   -1.4297526393    0.9934268630
  O    0.0000000000    0.0000000000   -0.1205101060
  H    0.0000000000    1.4297526393    0.9934268630
 }
 
 basis=cc-pvtz
 {rhf;maxit,200}
 {ccsd(t);maxit,200}

 Variables initialized (661), CPU time= 0.00 sec
 Commands  initialized (458), CPU time= 0.01 sec, 486 directives.
 Default parameters read. Elapsed time= 0.06 sec

 Checking input...
 Passed
1


                                         ***  PROGRAM SYSTEM MOLPRO  ***
                         Copyright, University College Cardiff Consultants Limited, 2008

                                    Version 2010.1 linked May 16 2016 07:17:05


 **********************************************************************************************************************************
 LABEL *   Optimization of min3                                                          
 Linux-4.4.3/n022(x86_64) 64 bit mpp version                                             DATE: 09-Nov-21          TIME: 12:17:31  
 **********************************************************************************************************************************

 SHA1:             9e8077add272b0f3cad6f7df79ec5211205f459d
 **********************************************************************************************************************************

 THRESHOLDS:

 ZERO    =  1.00D-12  ONEINT  =  1.00D-16  TWOINT  =  1.00D-16  PREFAC  =  1.00D-14  LOCALI  =  1.00D-09  EORDER  =  1.00D-04
 ENERGY  =  1.00D-12  ETEST   =  0.00D+00  EDENS   =  0.00D+00  THRDEDEF=  1.00D-06  GRADIENT=  1.00D-02  STEP    =  1.00D-03
 ORBITAL =  1.00D-10  CIVEC   =  1.00D-05  COEFF   =  1.00D-04  PRINTCI =  5.00D-02  PUNCHCI =  9.90D+01  OPTGRAD =  1.00D-06
 OPTENERG=  1.00D-06  OPTSTEP =  3.00D-04  THRGRAD =  1.00D-10  COMPRESS=  1.00D-13  VARMIN  =  1.00D-07  VARMAX  =  1.00D-03
 THRDOUB =  0.00D+00  THRDIV  =  1.00D-05  THRRED  =  1.00D-07  THRPSP  =  1.00D+00  THRDC   =  1.00D-10  THRCS   =  1.00D-10
 THRNRM  =  1.00D-08  THREQ   =  0.00D+00  THRDE   =  1.00D+00  THRREF  =  1.00D-05  SPARFAC =  1.00D+00  THRDLP  =  1.00D-07
 THRDIA  =  1.00D-10  THRDLS  =  1.00D-07  THRGPS  =  0.00D+00  THRKEX  =  0.00D+00  THRDIS  =  2.00D-01  THRVAR  =  1.00D-10
 THRLOC  =  1.00D-06  THRGAP  =  1.00D-06  THRLOCT = -1.00D+00  THRGAPT = -1.00D+00  THRORB  =  1.00D-06  THRMLTP =  0.00D+00
 THRCPQCI=  1.00D-10  KEXTA   =  0.00D+00  THRCOARS=  0.00D+00  SYMTOL  =  1.00D-06  GRADTOL =  1.00D-06  THROVL  =  1.00D-08
 THRORTH =  1.00D-08  GRID    =  1.00D-06  GRIDMAX =  1.00D-03  DTMAX   =  0.00D+00

 SETTING GEOMTYP        =    XYZ
 ZUNIT=BOHR
 

 Variable memory set to 1000000000 words,  buffer space   230000 words

 SETTING BASIS          =    CC-PVTZ


 Recomputing integrals since basis changed


 Using spherical harmonics

 Library entry H      S cc-pVTZ              selected for orbital group  1
 Library entry H      P cc-pVTZ              selected for orbital group  1
 Library entry H      D cc-pVTZ              selected for orbital group  1
 Library entry O      S cc-pVTZ              selected for orbital group  2
 Library entry O      P cc-pVTZ              selected for orbital group  2
 Library entry O      D cc-pVTZ              selected for orbital group  2
 Library entry O      F cc-pVTZ              selected for orbital group  2

1PROGRAM * SEWARD (Integral evaluation for generally contracted gaussian basis sets)     Author: Roland Lindh, 1990

 Geometry written to block  1 of record 700


 Point group  C2v 



 ATOMIC COORDINATES

 NR  ATOM    CHARGE       X              Y              Z

   1  H       1.00    0.000000000   -1.429752639    0.993426863
   2  H       1.00    0.000000000    1.429752639    0.993426863
   3  O       8.00    0.000000000    0.000000000   -0.120510106

 Bond lengths in Bohr (Angstrom)

 1-3  1.812470187  2-3  1.812470187
     ( 0.959117915)     ( 0.959117915)

 Bond angles

  1-3-2  104.15485507

 NUCLEAR CHARGE:                   10
 NUMBER OF PRIMITIVE AOS:          81
 NUMBER OF SYMMETRY AOS:           74
 NUMBER OF CONTRACTIONS:           58   (  23A1  +  11B1  +  17B2  +   7A2  )
 NUMBER OF CORE ORBITALS:           1   (   1A1  +   0B1  +   0B2  +   0A2  )
 NUMBER OF VALENCE ORBITALS:        6   (   3A1  +   1B1  +   2B2  +   0A2  )


 NUCLEAR REPULSION ENERGY    9.17744225


 Eigenvalues of metric

         1 0.258E-02 0.581E-02 0.109E-01 0.418E-01 0.841E-01 0.114E+00 0.167E+00 0.270E+00
         2 0.403E-01 0.109E+00 0.245E+00 0.448E+00 0.523E+00 0.703E+00 0.110E+01 0.134E+01
         3 0.475E-02 0.762E-02 0.480E-01 0.691E-01 0.925E-01 0.169E+00 0.278E+00 0.321E+00
         4 0.115E+00 0.317E+00 0.540E+00 0.879E+00 0.121E+01 0.132E+01 0.230E+01


 Contracted 2-electron integrals neglected if value below      1.0D-16
 AO integral compression algorithm  1   Integral accuracy      1.0D-16

     4.456 MB (compressed) written to integral file ( 99.6%)

     Node minimum: 4.456 MB, node maximum: 4.456 MB


 NUMBER OF SORTED TWO-ELECTRON INTEGRALS:     396151.     BUFFER LENGTH:  32768
 NUMBER OF SEGMENTS:   1  SEGMENT LENGTH:     396151      RECORD LENGTH: 524288

 Memory used in sort:       0.95 MW

 SORT1 READ      546378. AND WROTE      367100. INTEGRALS IN      2 RECORDS. CPU TIME:     0.01 SEC, REAL TIME:     0.01 SEC
 SORT2 READ      367100. AND WROTE      396151. INTEGRALS IN     17 RECORDS. CPU TIME:     0.02 SEC, REAL TIME:     0.03 SEC

 FILE SIZES:   FILE 1:     5.6 MBYTE,  FILE 4:     8.4 MBYTE,   TOTAL:     14.1 MBYTE

 OPERATOR DM      FOR CENTER  0  COORDINATES:    0.000000    0.000000    0.000000


 **********************************************************************************************************************************
 DATASETS  * FILE   NREC   LENGTH (MB)   RECORD NAMES
              1      19        5.66       500      610      700      900      950      970     1000      129      960     1100   
                                          VAR    BASINP    GEOM    SYMINP    ZMAT    AOBASIS   BASIS     P2S    ABASIS      S 
                                         1400     1410     1200     1210     1080     1600     1650     1300     1700   
                                           T        V       H0       H01     AOSYM     SMH    MOLCAS    ERIS     OPER   

 PROGRAMS   *        TOTAL       INT
 CPU TIMES  *         0.31      0.25
 REAL TIME  *         0.48 SEC
 DISK USED  *        19.05 MB      
 GA USED    *         0.00 MB       (max)       0.00 MB       (current)
 **********************************************************************************************************************************

1PROGRAM * RHF-SCF (CLOSED SHELL)       Authors: W. Meyer, H.-J. Werner


 NUMBER OF ELECTRONS:       5+    5-
 CONVERGENCE THRESHOLDS:    1.00E-10 (Density)    1.00E-13 (Energy)
 MAX. NUMBER OF ITERATIONS:      200
 INTERPOLATION TYPE:            DIIS
 INTERPOLATION STEPS:              2 (START)      1 (STEP)
 LEVEL SHIFTS:                  0.00 (CLOSED)  0.00 (OPEN) 



 Orbital guess generated from atomic densities. Full valence occupancy:    4   1   2   0

 Molecular orbital dump at record        2100.2

 Initial alpha occupancy:   3   1   1   0
 Initial beta  occupancy:   3   1   1   0
 Wave function symmetry:    1

 ITERATION    DDIFF          GRAD             ENERGY        2-EL.EN.            DIPOLE MOMENTS         DIIS
    1      0.000D+00      0.000D+00       -76.01891693     77.743526    0.00000    0.00000    1.14818    0
    2      0.000D+00      0.191D-01       -76.04682547     74.314860    0.00000    0.00000    0.70896    1
    3      0.330D-01      0.113D-01       -76.05680389     75.774705    0.00000    0.00000    0.80823    2
    4      0.108D-01      0.108D-02       -76.05699270     75.695362    0.00000    0.00000    0.80301    3
    5      0.162D-02      0.303D-03       -76.05701242     75.707008    0.00000    0.00000    0.80037    4
    6      0.556D-03      0.576D-04       -76.05701345     75.705653    0.00000    0.00000    0.79973    5
    7      0.126D-03      0.991D-05       -76.05701348     75.705765    0.00000    0.00000    0.79957    6
    8      0.255D-04      0.148D-05       -76.05701348     75.705709    0.00000    0.00000    0.79955    5
    9      0.339D-05      0.284D-06       -76.05701348     75.705736    0.00000    0.00000    0.79955    6
   10      0.634D-06      0.645D-07       -76.05701348     75.705731    0.00000    0.00000    0.79955    6
   11      0.128D-06      0.164D-07       -76.05701348     75.705731    0.00000    0.00000    0.79955    6
   12      0.426D-07      0.310D-08       -76.05701348     75.705731    0.00000    0.00000    0.79955    6
   13      0.770D-08      0.599D-09       -76.05701348     75.705731    0.00000    0.00000    0.79955    6
   14      0.186D-08      0.169D-09       -76.05701348     75.705731    0.00000    0.00000    0.79955    6
   15      0.474D-09      0.390D-10       -76.05701348     75.705731    0.00000    0.00000    0.79955    6
   16      0.888D-10      0.100D-10       -76.05701348     75.705731    0.00000    0.00000    0.79955    6
   17      0.249D-10      0.389D-11       -76.05701348     75.705731    0.00000    0.00000    0.79955    0

 Final occupancy:   3   1   1   0

 !RHF STATE 1.1 Energy                -76.057013480474
 Nuclear energy                         9.17744225
 One-electron energy                 -123.08732124
 Two-electron energy                   37.85286551
 Virial quotient                       -1.00076499
 !RHF STATE 1.1 Dipole moment           0.00000000     0.00000000     0.79954779
 Dipole moment /Debye                   0.00000000     0.00000000     2.03211468

 Orbital energies:

         1.1          2.1          3.1          4.1          5.1
    -20.555247    -1.344962    -0.578073     0.142005     0.602471

         1.2          2.2          3.2
     -0.504441     0.787320     0.953532

         1.3          2.3          3.3
     -0.708072     0.203955     0.542836

         1.4          2.4
      0.861487     2.064523


 **********************************************************************************************************************************
 DATASETS  * FILE   NREC   LENGTH (MB)   RECORD NAMES
              1      19        5.66       500      610      700      900      950      970     1000      129      960     1100   
                                          VAR    BASINP    GEOM    SYMINP    ZMAT    AOBASIS   BASIS     P2S    ABASIS      S 
                                         1400     1410     1200     1210     1080     1600     1650     1300     1700   
                                           T        V       H0       H01     AOSYM     SMH    MOLCAS    ERIS     OPER   

              2       3        0.32       700     1000     2100   
                                         GEOM     BASIS     RHF  

 PROGRAMS   *        TOTAL       RHF       INT
 CPU TIMES  *         0.35      0.04      0.25
 REAL TIME  *         0.55 SEC
 DISK USED  *        19.05 MB      
 GA USED    *         0.00 MB       (max)       0.00 MB       (current)
 **********************************************************************************************************************************


1PROGRAM * CCSD (Closed-shell coupled cluster)     Authors: C. Hampel, H.-J. Werner, 1991, M. Deegan, P.J. Knowles, 1992


 Convergence thresholds:  THRVAR = 1.00D-08  THRDEN = 1.00D-12

 CCSD(T)     terms to be evaluated (factor= 1.000)


 Number of core orbitals:           1 (   1   0   0   0 )
 Number of closed-shell orbitals:   4 (   2   1   1   0 )
 Number of external orbitals:      53 (  20  10  16   7 )

 Molecular orbitals read from record     2100.2  Type=RHF/CANONICAL (state 1.1)

 Number of N-1 electron functions:               4
 Number of N-2 electron functions:              10
 Number of singly external CSFs:                66
 Number of doubly external CSFs:              5929
 Total number of CSFs:                        5996

 Length of J-op  integral file:               0.00 MB
 Length of K-op  integral file:               0.10 MB
 Length of 3-ext integral record:             0.00 MB

 Memory could be reduced to 0.56 Mwords without degradation in triples

 Integral transformation finished. Total CPU:   0.01 sec, npass=  1  Memory used:   0.12 MW

 Reference energy:                    -76.05701348

 MP2 singlet pair energy:              -0.16632070
 MP2 triplet pair energy:              -0.09531348
 MP2 correlation energy:               -0.26163417
 MP2 total energy:                    -76.31864765

 SCS-MP2 correlation energy:           -0.25889100   (PS=  1.200000  PT=  0.333333)
 SCS-MP2 total energy:                -76.31590448

 ITER.      SQ.NORM     CORR.ENERGY   TOTAL ENERGY   ENERGY CHANGE        DEN1      VAR(S)    VAR(P)  DIIS     TIME
   1      1.06058979    -0.26704394   -76.32405742    -0.00540977    -0.00042452  0.45D-03  0.82D-03  1  1     0.02
   2      1.06372786    -0.26746294   -76.32447642    -0.00041900    -0.00447831  0.76D-05  0.86D-04  2  2     0.02
   3      1.06475659    -0.26752490   -76.32453838    -0.00006196    -0.00081403  0.15D-05  0.40D-05  3  3     0.03
   4      1.06502476    -0.26753505   -76.32454853    -0.00001016    -0.00016122  0.10D-06  0.20D-06  4  4     0.04
   5      1.06506081    -0.26753244   -76.32454592     0.00000261    -0.00001853  0.35D-07  0.11D-07  5  5     0.04
   6      1.06506680    -0.26753231   -76.32454579     0.00000014    -0.00000170  0.54D-08  0.12D-08  6  6     0.05
   7      1.06506845    -0.26753243   -76.32454591    -0.00000012    -0.00000031  0.82D-09  0.17D-09  6  1     0.06
   8      1.06506905    -0.26753244   -76.32454592    -0.00000001     0.00000042  0.29D-10  0.13D-10  6  2     0.07
   9      1.06506923    -0.26753243   -76.32454591     0.00000001    -0.00000006  0.17D-11  0.12D-11  6  6     0.07
  10      1.06506928    -0.26753242   -76.32454590     0.00000001     0.00000001  0.28D-13  0.56D-13  6  3     0.08
  11      1.06506929    -0.26753242   -76.32454590     0.00000000    -0.00000001  0.15D-14  0.24D-14  6  4     0.09
  12      1.06506929    -0.26753242   -76.32454590     0.00000000    -0.00000000  0.11D-15  0.16D-15  6  5     0.09
  13      1.06506929    -0.26753242   -76.32454590     0.00000000    -0.00000000  0.55D-17  0.12D-16  6  1     0.10
  14      1.06506930    -0.26753242   -76.32454590     0.00000000    -0.00000000  0.73D-18  0.97D-18  6  2     0.11
  15      1.06506930    -0.26753242   -76.32454590     0.00000000    -0.00000000  0.14D-19  0.42D-19  6  6     0.12
  16      1.06506930    -0.26753242   -76.32454590     0.00000000    -0.00000000  0.16D-20  0.20D-20  6  3     0.12
  17      1.06506930    -0.26753242   -76.32454590     0.00000000    -0.00000000  0.11D-21  0.13D-21  6  4     0.13

 Norm of t1 vector:      0.02617582      S-energy:    -0.00000000      T1 diagnostic:  0.00654396
                                                                       D1 diagnostic:  0.01081491


 Total CPU time for triples:      0.02 sec


 RESULTS
 =======

  Reference energy                    -76.057013480474
  CCSD singlet pair energy             -0.182537474691
  CCSD triplet pair energy             -0.084994947647
  CCSD correlation energy              -0.267532422338

  Triples (T) contribution             -0.007662546790
  Total correlation energy             -0.275194969128

  CCSD total energy                   -76.324545902812
  CCSD[T] energy                      -76.332401527240
  CCSD-T energy                       -76.332071719345
 !CCSD(T) total energy                -76.332208449602

 Timing summary (sec):

 STEP                 CPU(USER)    SYS     CPU(TOT)    WALL
 Transformation          0.01      0.00      0.01      0.01
 CCSD iterations         0.12      0.01      0.13      0.16
 Triples                 0.02      0.00      0.02      0.03

 Program statistics:

 Available memory in ccsd:               999999836
 Min. memory needed in ccsd:                 31875
 Max. memory used in ccsd:                   36141
 Max. memory used in cckext:                 65678 (17 integral passes)



 **********************************************************************************************************************************
 DATASETS  * FILE   NREC   LENGTH (MB)   RECORD NAMES
              1      20        6.43       500      610      700      900      950      970     1000      129      960     1100   
                                          VAR    BASINP    GEOM    SYMINP    ZMAT    AOBASIS   BASIS     P2S    ABASIS      S 
                                         1400     1410     1200     1210     1080     1600     1650     1300     1700     1380   
                                           T        V       H0       H01     AOSYM     SMH    MOLCAS    ERIS     OPER     JKOP   

              2       3        0.32       700     1000     2100   
                                         GEOM     BASIS     RHF  

 PROGRAMS   *        TOTAL   CCSD(T)       RHF       INT
 CPU TIMES  *         0.52      0.17      0.04      0.25
 REAL TIME  *         0.77 SEC
 DISK USED  *        19.05 MB      
 GA USED    *         0.00 MB       (max)       0.00 MB       (current)
 **********************************************************************************************************************************

        CCSD(T)         RHF-SCF 
    -76.33220845    -76.05701348
 **********************************************************************************************************************************
 Variable memory released
