
 Primary working directories    : /tmp/601555.26.gen4.q
 Secondary working directories  : /tmp/601555.26.gen4.q
 Wavefunction directory         : /home/vulcan/mel64643/wfu/
 Main file repository           : /tmp/601555.26.gen4.q/

 ARCHNAME  : Linux/x86_64
 FC        : /opt/intel/compilers_and_libraries_2016.1.150/linux/bin/intel64/ifort
 FCVERSION : 16.0.1
 BLASLIB   : -mkl
 id        : ccgc

 Nodes     nprocs
 n051         1
 ga_uses_ma=false, calling ma_init with nominal heap.
 GA-space will be limited to   8.0 MW (determined by -G option)

 Using customized tuning parameters: mindgm=10; mindgv=16; mindgc=4; mindgr=1; noblas=0; mincuda=1000; minvec=7
 default implementation of scratch files=df  

 ***,Optimization of min3
 memory,1000,m
 gthresh,energy=1.0d-12,orbital=1.0d-10,oneint=1.0d-16,twoint=1.0d-16,optgrad=1.0d-6,compress=1.0d-13
 geomtyp=xyz
 
  bohr
  geometry = {
  6
  arbitrary comment
  C   -1.3777245381   -0.0250947755   -0.0000064030
  O    1.3063309321    0.1209683296    0.0000025438
  H   -2.0770458672    1.9098930026   -0.0000776082
  H   -2.1082216340   -0.9791239598    1.6822098646
  H   -2.1082151124   -0.9792569815   -1.6821350199
  H    1.9411520596   -1.5775177354   -0.0000017873
 }
 
 basis=cc-pvdz
 {rhf;maxit,200}
 {ccsd(t);maxit,200}

 Variables initialized (661), CPU time= 0.01 sec
 Commands  initialized (458), CPU time= 0.00 sec, 486 directives.
 Default parameters read. Elapsed time= 0.05 sec

 Checking input...
 Passed
1


                                         ***  PROGRAM SYSTEM MOLPRO  ***
                         Copyright, University College Cardiff Consultants Limited, 2008

                                    Version 2010.1 linked May 16 2016 07:17:05


 **********************************************************************************************************************************
 LABEL *   Optimization of min3                                                          
 Linux-4.4.3/n051(x86_64) 64 bit mpp version                                             DATE: 06-Nov-21          TIME: 15:38:46  
 **********************************************************************************************************************************

 SHA1:             9e8077add272b0f3cad6f7df79ec5211205f459d
 **********************************************************************************************************************************

 THRESHOLDS:

 ZERO    =  1.00D-12  ONEINT  =  1.00D-16  TWOINT  =  1.00D-16  PREFAC  =  1.00D-14  LOCALI  =  1.00D-09  EORDER  =  1.00D-04
 ENERGY  =  1.00D-12  ETEST   =  0.00D+00  EDENS   =  0.00D+00  THRDEDEF=  1.00D-06  GRADIENT=  1.00D-02  STEP    =  1.00D-03
 ORBITAL =  1.00D-10  CIVEC   =  1.00D-05  COEFF   =  1.00D-04  PRINTCI =  5.00D-02  PUNCHCI =  9.90D+01  OPTGRAD =  1.00D-06
 OPTENERG=  1.00D-06  OPTSTEP =  3.00D-04  THRGRAD =  1.00D-10  COMPRESS=  1.00D-13  VARMIN  =  1.00D-07  VARMAX  =  1.00D-03
 THRDOUB =  0.00D+00  THRDIV  =  1.00D-05  THRRED  =  1.00D-07  THRPSP  =  1.00D+00  THRDC   =  1.00D-10  THRCS   =  1.00D-10
 THRNRM  =  1.00D-08  THREQ   =  0.00D+00  THRDE   =  1.00D+00  THRREF  =  1.00D-05  SPARFAC =  1.00D+00  THRDLP  =  1.00D-07
 THRDIA  =  1.00D-10  THRDLS  =  1.00D-07  THRGPS  =  0.00D+00  THRKEX  =  0.00D+00  THRDIS  =  2.00D-01  THRVAR  =  1.00D-10
 THRLOC  =  1.00D-06  THRGAP  =  1.00D-06  THRLOCT = -1.00D+00  THRGAPT = -1.00D+00  THRORB  =  1.00D-06  THRMLTP =  0.00D+00
 THRCPQCI=  1.00D-10  KEXTA   =  0.00D+00  THRCOARS=  0.00D+00  SYMTOL  =  1.00D-06  GRADTOL =  1.00D-06  THROVL  =  1.00D-08
 THRORTH =  1.00D-08  GRID    =  1.00D-06  GRIDMAX =  1.00D-03  DTMAX   =  0.00D+00

 SETTING GEOMTYP        =    XYZ
 ZUNIT=BOHR
 

 Variable memory set to 1000000000 words,  buffer space   230000 words

 SETTING BASIS          =    CC-PVDZ


 Recomputing integrals since basis changed


 Using spherical harmonics

 Library entry C      S cc-pVDZ              selected for orbital group  1
 Library entry C      P cc-pVDZ              selected for orbital group  1
 Library entry C      D cc-pVDZ              selected for orbital group  1
 Library entry O      S cc-pVDZ              selected for orbital group  2
 Library entry O      P cc-pVDZ              selected for orbital group  2
 Library entry O      D cc-pVDZ              selected for orbital group  2
 Library entry H      S cc-pVDZ              selected for orbital group  3
 Library entry H      P cc-pVDZ              selected for orbital group  3

1PROGRAM * SEWARD (Integral evaluation for generally contracted gaussian basis sets)     Author: Roland Lindh, 1990

 Geometry written to block  1 of record 700


 Point group  C1  



 ATOMIC COORDINATES

 NR  ATOM    CHARGE       X              Y              Z

   1  C       6.00   -1.377724538   -0.025094775   -0.000006403
   2  O       8.00    1.306330932    0.120968330    0.000002544
   3  H       1.00   -2.077045867    1.909893003   -0.000077608
   4  H       1.00   -2.108221634   -0.979123960    1.682209865
   5  H       1.00   -2.108215112   -0.979256981   -1.682135020
   6  H       1.00    1.941152060   -1.577517735   -0.000001787

 Bond lengths in Bohr (Angstrom)

 1-2  2.688026822  1-3  2.057480991  1-4  2.067280644  1-5  2.067268410  2-6  1.813243717
     ( 1.422442532)     ( 1.088772048)     ( 1.093957802)     ( 1.093951327)     ( 0.959527249)

 Bond angles

  1-2-6  107.37868781   2-1-3  106.75539853   2-1-4  112.20448211   2-1-5  112.20497718

  3-1-4  108.29673426   3-1-5  108.29716415   4-1-5  108.92101736

 NUCLEAR CHARGE:                   18
 NUMBER OF PRIMITIVE AOS:          82
 NUMBER OF SYMMETRY AOS:           80
 NUMBER OF CONTRACTIONS:           48   (  48A   )
 NUMBER OF CORE ORBITALS:           2   (   2A   )
 NUMBER OF VALENCE ORBITALS:       12   (  12A   )


 NUCLEAR REPULSION ENERGY   40.29119517


 Eigenvalues of metric

         1 0.966E-02 0.177E-01 0.368E-01 0.373E-01 0.382E-01 0.473E-01 0.477E-01 0.517E-01


 Contracted 2-electron integrals neglected if value below      1.0D-16
 AO integral compression algorithm  1   Integral accuracy      1.0D-16

     6.554 MB (compressed) written to integral file ( 95.5%)

     Node minimum: 6.554 MB, node maximum: 6.554 MB


 NUMBER OF SORTED TWO-ELECTRON INTEGRALS:     692076.     BUFFER LENGTH:  32768
 NUMBER OF SEGMENTS:   1  SEGMENT LENGTH:     692076      RECORD LENGTH: 524288

 Memory used in sort:       1.25 MW

 SORT1 READ      832256. AND WROTE      682150. INTEGRALS IN      2 RECORDS. CPU TIME:     0.00 SEC, REAL TIME:     0.01 SEC
 SORT2 READ      682150. AND WROTE      692076. INTEGRALS IN     25 RECORDS. CPU TIME:     0.02 SEC, REAL TIME:     0.02 SEC

 FILE SIZES:   FILE 1:     8.0 MBYTE,  FILE 4:     8.4 MBYTE,   TOTAL:     16.4 MBYTE

 OPERATOR DM      FOR CENTER  0  COORDINATES:    0.000000    0.000000    0.000000


 **********************************************************************************************************************************
 DATASETS  * FILE   NREC   LENGTH (MB)   RECORD NAMES
              1      19        8.05       500      610      700      900      950      970     1000      129      960     1100   
                                          VAR    BASINP    GEOM    SYMINP    ZMAT    AOBASIS   BASIS     P2S    ABASIS      S 
                                         1400     1410     1200     1210     1080     1600     1650     1300     1700   
                                           T        V       H0       H01     AOSYM     SMH    MOLCAS    ERIS     OPER   

 PROGRAMS   *        TOTAL       INT
 CPU TIMES  *         0.23      0.19
 REAL TIME  *         0.41 SEC
 DISK USED  *        23.62 MB      
 GA USED    *         0.00 MB       (max)       0.00 MB       (current)
 **********************************************************************************************************************************

1PROGRAM * RHF-SCF (CLOSED SHELL)       Authors: W. Meyer, H.-J. Werner


 NUMBER OF ELECTRONS:       9+    9-    SPACE SYMMETRY=1    SPIN SYMMETRY: Singlet 
 CONVERGENCE THRESHOLDS:    1.00E-10 (Density)    1.00E-13 (Energy)
 MAX. NUMBER OF ITERATIONS:      200
 INTERPOLATION TYPE:            DIIS
 INTERPOLATION STEPS:              2 (START)      1 (STEP)
 LEVEL SHIFTS:                  0.00 (CLOSED)  0.00 (OPEN) 



 Orbital guess generated from atomic densities. Full valence occupancy:   14

 Molecular orbital dump at record        2100.2

 ITERATION    DDIFF          GRAD             ENERGY        2-EL.EN.            DIPOLE MOMENTS         DIIS
    1      0.000D+00      0.000D+00      -115.01416035    164.359739   -0.49805   -0.90097   -0.00001    0
    2      0.000D+00      0.110D-01      -115.04252689    162.140870   -0.31891   -0.53585   -0.00001    1
    3      0.205D-01      0.531D-02      -115.04857726    163.165912   -0.40293   -0.61119   -0.00001    2
    4      0.640D-02      0.112D-02      -115.04904098    163.010085   -0.39278   -0.60013   -0.00001    3
    5      0.204D-02      0.202D-03      -115.04906201    163.016437   -0.39563   -0.59585   -0.00001    4
    6      0.433D-03      0.355D-04      -115.04906281    163.016601   -0.39594   -0.59565   -0.00001    5
    7      0.931D-04      0.738D-05      -115.04906284    163.015406   -0.39608   -0.59549   -0.00001    6
    8      0.150D-04      0.238D-05      -115.04906284    163.015788   -0.39611   -0.59546   -0.00001    7
    9      0.506D-05      0.490D-06      -115.04906284    163.015747   -0.39613   -0.59546   -0.00001    6
   10      0.141D-05      0.872D-07      -115.04906284    163.015746   -0.39613   -0.59546   -0.00001    6
   11      0.234D-06      0.326D-07      -115.04906284    163.015752   -0.39613   -0.59546   -0.00001    6
   12      0.588D-07      0.136D-07      -115.04906284    163.015750   -0.39613   -0.59546   -0.00001    7
   13      0.253D-07      0.302D-08      -115.04906284    163.015750   -0.39613   -0.59546   -0.00001    7
   14      0.754D-08      0.648D-09      -115.04906284    163.015750   -0.39613   -0.59546   -0.00001    7
   15      0.166D-08      0.149D-09      -115.04906284    163.015750   -0.39613   -0.59546   -0.00001    7
   16      0.333D-09      0.449D-10      -115.04906284    163.015750   -0.39613   -0.59546   -0.00001    7
   17      0.869D-10      0.147D-10      -115.04906284    163.015750   -0.39613   -0.59546   -0.00001    0

 Final occupancy:   9

 !RHF STATE 1.1 Energy               -115.049062841851
 Nuclear energy                        40.29119517
 One-electron energy                 -236.84813310
 Two-electron energy                   81.50787508
 Virial quotient                       -1.00092978
 !RHF STATE 1.1 Dipole moment          -0.39612854    -0.59546140    -0.00000760
 Dipole moment /Debye                  -1.00679238    -1.51341279    -0.00001931

 Orbital energies:

         1.1          2.1          3.1          4.1          5.1          6.1          7.1          8.1          9.1         10.1
    -20.549786   -11.274645    -1.349226    -0.921443    -0.682400    -0.613809    -0.584330    -0.497255    -0.443296     0.184585

        11.1
      0.224510


 **********************************************************************************************************************************
 DATASETS  * FILE   NREC   LENGTH (MB)   RECORD NAMES
              1      19        8.05       500      610      700      900      950      970     1000      129      960     1100   
                                          VAR    BASINP    GEOM    SYMINP    ZMAT    AOBASIS   BASIS     P2S    ABASIS      S 
                                         1400     1410     1200     1210     1080     1600     1650     1300     1700   
                                           T        V       H0       H01     AOSYM     SMH    MOLCAS    ERIS     OPER   

              2       3        0.39       700     1000     2100   
                                         GEOM     BASIS     RHF  

 PROGRAMS   *        TOTAL       RHF       INT
 CPU TIMES  *         0.31      0.08      0.19
 REAL TIME  *         0.53 SEC
 DISK USED  *        23.62 MB      
 GA USED    *         0.00 MB       (max)       0.00 MB       (current)
 **********************************************************************************************************************************


1PROGRAM * CCSD (Closed-shell coupled cluster)     Authors: C. Hampel, H.-J. Werner, 1991, M. Deegan, P.J. Knowles, 1992


 Convergence thresholds:  THRVAR = 1.00D-08  THRDEN = 1.00D-12

 CCSD(T)     terms to be evaluated (factor= 1.000)


 Number of core orbitals:           2 (   2 )
 Number of closed-shell orbitals:   7 (   7 )
 Number of external orbitals:      39 (  39 )

 Molecular orbitals read from record     2100.2  Type=RHF/CANONICAL (state 1.1)

 Number of N-1 electron functions:               7
 Number of N-2 electron functions:              28
 Number of singly external CSFs:               273
 Number of doubly external CSFs:             37401
 Total number of CSFs:                       37675

 Length of J-op  integral file:               0.00 MB
 Length of K-op  integral file:               0.19 MB
 Length of 3-ext integral record:             0.00 MB

 Memory could be reduced to 0.96 Mwords without degradation in triples

 Integral transformation finished. Total CPU:   0.02 sec, npass=  1  Memory used:   0.66 MW

 Reference energy:                   -115.04906284

 MP2 singlet pair energy:              -0.21866439
 MP2 triplet pair energy:              -0.11983408
 MP2 correlation energy:               -0.33849847
 MP2 total energy:                   -115.38756131

 SCS-MP2 correlation energy:           -0.33696069   (PS=  1.200000  PT=  0.333333)
 SCS-MP2 total energy:               -115.38602353

 ITER.      SQ.NORM     CORR.ENERGY   TOTAL ENERGY   ENERGY CHANGE        DEN1      VAR(S)    VAR(P)  DIIS     TIME
   1      1.10734874    -0.36129401  -115.41035685    -0.02279554    -0.01410999  0.91D-03  0.17D-02  1  1     0.06
   2      1.11587904    -0.36323990  -115.41230274    -0.00194589    -0.00925407  0.20D-04  0.16D-03  2  2     0.10
   3      1.11776421    -0.36336747  -115.41243031    -0.00012757    -0.00120636  0.95D-05  0.86D-05  3  3     0.14
   4      1.11828066    -0.36336612  -115.41242896     0.00000135    -0.00025536  0.34D-06  0.68D-06  4  4     0.18
   5      1.11837921    -0.36336652  -115.41242937    -0.00000040    -0.00003618  0.10D-06  0.49D-07  5  5     0.22
   6      1.11839838    -0.36336516  -115.41242800     0.00000137    -0.00000437  0.16D-07  0.41D-08  6  6     0.26
   7      1.11840317    -0.36336474  -115.41242758     0.00000042    -0.00000035  0.20D-08  0.73D-09  6  1     0.30
   8      1.11840445    -0.36336484  -115.41242768    -0.00000010     0.00000075  0.26D-09  0.73D-10  6  3     0.34
   9      1.11840552    -0.36336471  -115.41242756     0.00000012    -0.00000038  0.13D-10  0.10D-10  6  2     0.37
  10      1.11840545    -0.36336472  -115.41242756    -0.00000000     0.00000007  0.11D-11  0.88D-12  6  5     0.41
  11      1.11840548    -0.36336471  -115.41242756     0.00000000    -0.00000000  0.19D-12  0.51D-13  6  4     0.45
  12      1.11840547    -0.36336472  -115.41242756    -0.00000000     0.00000001  0.19D-13  0.10D-13  6  1     0.49
  13      1.11840547    -0.36336472  -115.41242756    -0.00000000    -0.00000000  0.24D-14  0.95D-15  6  6     0.53
  14      1.11840547    -0.36336472  -115.41242756     0.00000000    -0.00000000  0.22D-15  0.12D-15  6  3     0.57
  15      1.11840547    -0.36336472  -115.41242756    -0.00000000    -0.00000000  0.25D-16  0.17D-16  6  2     0.60
  16      1.11840547    -0.36336472  -115.41242756    -0.00000000    -0.00000000  0.56D-17  0.16D-17  6  5     0.64
  17      1.11840547    -0.36336472  -115.41242756    -0.00000000    -0.00000000  0.54D-18  0.25D-18  6  4     0.68
  18      1.11840547    -0.36336472  -115.41242756     0.00000000    -0.00000000  0.83D-19  0.43D-19  6  1     0.72
  19      1.11840547    -0.36336472  -115.41242756    -0.00000000    -0.00000000  0.94D-20  0.43D-20  6  6     0.76
  20      1.11840547    -0.36336472  -115.41242756     0.00000000     0.00000000  0.13D-20  0.56D-21  6  3     0.80

 Norm of t1 vector:      0.04170716      S-energy:    -0.00000000      T1 diagnostic:  0.00788191
                                                                       D1 diagnostic:  0.01761398


 Total CPU time for triples:      0.21 sec


 RESULTS
 =======

  Reference energy                   -115.049062841851
  CCSD singlet pair energy             -0.254624874568
  CCSD triplet pair energy             -0.108739841253
  CCSD correlation energy              -0.363364715822

  Triples (T) contribution             -0.007741408291
  Total correlation energy             -0.371106124112

  CCSD total energy                  -115.412427557672
  CCSD[T] energy                     -115.420459324423
  CCSD-T energy                      -115.420018783882
 !CCSD(T) total energy               -115.420168965963

 Timing summary (sec):

 STEP                 CPU(USER)    SYS     CPU(TOT)    WALL
 Transformation          0.02      0.00      0.02      0.03
 CCSD iterations         0.78      0.04      0.82      0.85
 Triples                 0.21      0.01      0.22      0.22

 Program statistics:

 Available memory in ccsd:               999999704
 Min. memory needed in ccsd:                136801
 Max. memory used in ccsd:                  163198
 Max. memory used in cckext:                182024 (20 integral passes)



 **********************************************************************************************************************************
 DATASETS  * FILE   NREC   LENGTH (MB)   RECORD NAMES
              1      20       10.59       500      610      700      900      950      970     1000      129      960     1100   
                                          VAR    BASINP    GEOM    SYMINP    ZMAT    AOBASIS   BASIS     P2S    ABASIS      S 
                                         1400     1410     1200     1210     1080     1600     1650     1300     1700     1380   
                                           T        V       H0       H01     AOSYM     SMH    MOLCAS    ERIS     OPER     JKOP   

              2       3        0.39       700     1000     2100   
                                         GEOM     BASIS     RHF  

 PROGRAMS   *        TOTAL   CCSD(T)       RHF       INT
 CPU TIMES  *         1.33      1.02      0.08      0.19
 REAL TIME  *         1.65 SEC
 DISK USED  *        25.05 MB      
 GA USED    *         0.00 MB       (max)       0.00 MB       (current)
 **********************************************************************************************************************************

        CCSD(T)         RHF-SCF 
   -115.42016897   -115.04906284
 **********************************************************************************************************************************
 Variable memory released
