
    -----------------------------------------------------------------------
          Psi4: An Open-Source Ab Initio Electronic Structure Package
                               Psi4 1.4a2.dev629 

                         Git: Rev {master} 2938fc2 dirty


    D. G. A. Smith, L. A. Burns, A. C. Simmonett, R. M. Parrish,
    M. C. Schieber, R. Galvelis, P. Kraus, H. Kruse, R. Di Remigio,
    A. Alenaizan, A. M. James, S. Lehtola, J. P. Misiewicz, M. Scheurer,
    R. A. Shaw, J. B. Schriber, Y. Xie, Z. L. Glick, D. A. Sirianni,
    J. S. O'Brien, J. M. Waldrop, A. Kumar, E. G. Hohenstein,
    B. P. Pritchard, B. R. Brooks, H. F. Schaefer III, A. Yu. Sokolov,
    K. Patkowski, A. E. DePrince III, U. Bozkaya, R. A. King,
    F. A. Evangelista, J. M. Turney, T. D. Crawford, C. D. Sherrill,
    J. Chem. Phys. 152(18) 184108 (2020). https://doi.org/10.1063/5.0006002

                            Additional Code Authors
    E. T. Seidl, C. L. Janssen, E. F. Valeev, M. L. Leininger,
    J. F. Gonthier, R. M. Richard, H. R. McAlexander, M. Saitow, X. Wang,
    P. Verma, and M. H. Lechner

             Previous Authors, Complete List of Code Contributors,
                       and Citations for Specific Modules
    https://github.com/psi4/psi4/blob/master/codemeta.json
    https://github.com/psi4/psi4/graphs/contributors
    http://psicode.org/psi4manual/master/introduction.html#citing-psifour

    -----------------------------------------------------------------------


    Psi4 started on: Wednesday, 21 September 2022 04:30PM

    Process ID: 12446
    Host:       n054
    PSIDATADIR: /opt/psi/4/master/share/psi4
    Memory:     500.0 MiB
    Threads:    1
    
  ==> Input File <==

--------------------------------------------------------------------------
# o-Benzyne preliminary computations

memory 14 gb

molecule {
  0 1
  units bohr
 C   -1.3750689722   -0.0242719870   -0.0015693720
 O    1.3060139010    0.1207030827   -0.0010273743
 H   -2.0778690936    1.9096089993    0.0043611747
 H   -2.1113247697   -0.9760962966    1.6814561322
 H   -2.1066466590   -0.9825848853   -1.6824047087
 H    1.9411714336   -1.5774910332   -0.0008242619
}

set {
  basis cc-pvtz
  reference rhf
  e_convergence 10 
  d_convergence 10
  r_convergence 8
  maxiter 300
  freeze_core True
}

e, wfn = energy('ccsd(t)', return_wfn = True)
psi4.print_out('Giraffe The Energy is %.12f \n'%(e))
--------------------------------------------------------------------------

  Memory set to  13.039 GiB by Python driver.

Scratch directory: /tmp/

*** tstart() called on n054
*** at Wed Sep 21 16:30:22 2022

   => Loading Basis Set <=

    Name: CC-PVTZ
    Role: ORBITAL
    Keyword: BASIS
    atoms 1   entry C          line   186 file /opt/psi/4/master/share/psi4/basis/cc-pvtz.gbs 
    atoms 2   entry O          line   262 file /opt/psi/4/master/share/psi4/basis/cc-pvtz.gbs 
    atoms 3-6 entry H          line    23 file /opt/psi/4/master/share/psi4/basis/cc-pvtz.gbs 


         ---------------------------------------------------------
                                   SCF
               by Justin Turney, Rob Parrish, Andy Simmonett
                          and Daniel G. A. Smith
                              RHF Reference
                        1 Threads,  13351 MiB Core
         ---------------------------------------------------------

  ==> Geometry <==

    Molecular point group: c1
    Full point group: C1

    Geometry (in Bohr), charge = 0, multiplicity = 1:

       Center              X                  Y                   Z               Mass       
    ------------   -----------------  -----------------  -----------------  -----------------
         C           -1.375069242522    -0.024274501587    -0.000549687396    12.000000000000
         O            1.306013630678     0.120700568113    -0.000007689696    15.994914619570
         H           -2.077869363922     1.909606484713     0.005380859304     1.007825032230
         H           -2.111325040022    -0.976098811187     1.682475816804     1.007825032230
         H           -2.106646929322    -0.982587399887    -1.681385024096     1.007825032230
         H            1.941171163278    -1.577493547787     0.000195422704     1.007825032230

  Running in c1 symmetry.

  Rotational constants: A =      4.28208  B =      0.82705  C =      0.79795 [cm^-1]
  Rotational constants: A = 128373.43520  B =  24794.48448  C =  23922.02044 [MHz]
  Nuclear repulsion =   40.307793119744119

  Charge       = 0
  Multiplicity = 1
  Electrons    = 18
  Nalpha       = 9
  Nbeta        = 9

  ==> Algorithm <==

  SCF Algorithm Type is PK.
  DIIS enabled.
  MOM disabled.
  Fractional occupation disabled.
  Guess Type is SAD.
  Energy threshold   = 1.00e-10
  Density threshold  = 1.00e-10
  Integral threshold = 0.00e+00

  ==> Primary Basis <==

  Basis Set: CC-PVTZ
    Blend: CC-PVTZ
    Number of shells: 44
    Number of basis function: 116
    Number of Cartesian functions: 130
    Spherical Harmonics?: true
    Max angular momentum: 3

  ==> Integral Setup <==

  Using in-core PK algorithm.
   Calculation information:
      Number of atoms:                   6
      Number of AO shells:              44
      Number of primitives:             84
      Number of atomic orbitals:       130
      Number of basis functions:       116

      Integral cutoff                 1.00e-12
      Number of threads:                 1

  Performing in-core PK
  Using 46056582 doubles for integral storage.
  We computed 490473 shell quartets total.
  Whereas there are 490545 unique shell quartets.

  ==> DiskJK: Disk-Based J/K Matrices <==

    J tasked:                  Yes
    K tasked:                  Yes
    wK tasked:                  No
    Memory [MiB]:            10013
    Schwarz Cutoff:          1E-12

    OpenMP threads:              1

  Minimum eigenvalue in the overlap matrix is 1.8504457792E-03.
  Reciprocal condition number of the overlap matrix is 2.7981616860E-04.
    Using symmetric orthogonalization.

  ==> Pre-Iterations <==

  SCF Guess: Superposition of Atomic Densities via on-the-fly atomic UHF (no occupation information).

   -------------------------
    Irrep   Nso     Nmo    
   -------------------------
     A        116     116 
   -------------------------
    Total     116     116
   -------------------------

  ==> Iterations <==

                        Total Energy        Delta E     RMS |[F,P]|

   @RHF iter SAD:  -114.41440054285869   -1.14414e+02   0.00000e+00 
   @RHF iter   1:  -115.01448223766300   -6.00082e-01   3.41257e-03 DIIS
   @RHF iter   2:  -115.07130835344256   -5.68261e-02   1.95512e-03 DIIS
   @RHF iter   3:  -115.08814873145479   -1.68404e-02   3.00935e-04 DIIS
   @RHF iter   4:  -115.08903303849463   -8.84307e-04   8.77552e-05 DIIS
   @RHF iter   5:  -115.08910653254415   -7.34940e-05   2.14382e-05 DIIS
   @RHF iter   6:  -115.08911139454919   -4.86201e-06   4.73790e-06 DIIS
   @RHF iter   7:  -115.08911176213641   -3.67587e-07   1.09822e-06 DIIS
   @RHF iter   8:  -115.08911178366372   -2.15273e-08   2.26668e-07 DIIS
   @RHF iter   9:  -115.08911178457174   -9.08017e-10   4.21342e-08 DIIS
   @RHF iter  10:  -115.08911178460166   -2.99138e-11   1.08655e-08 DIIS
   @RHF iter  11:  -115.08911178460360   -1.94689e-12   2.22832e-09 DIIS
   @RHF iter  12:  -115.08911178460374   -1.42109e-13   3.98602e-10 DIIS
   @RHF iter  13:  -115.08911178460389   -1.42109e-13   7.34787e-11 DIIS
  Energy and wave function converged.


  ==> Post-Iterations <==

    Orbital Energies [Eh]
    ---------------------

    Doubly Occupied:                                                      

       1A    -20.552620     2A    -11.269754     3A     -1.354104  
       4A     -0.923076     5A     -0.687874     6A     -0.617666  
       7A     -0.590041     8A     -0.502056     9A     -0.449144  

    Virtual:                                                              

      10A      0.138409    11A      0.178611    12A      0.220165  
      13A      0.223732    14A      0.290536    15A      0.386804  
      16A      0.404492    17A      0.544501    18A      0.583152  
      19A      0.623029    20A      0.624996    21A      0.637992  
      22A      0.689878    23A      0.703310    24A      0.720954  
      25A      0.833278    26A      0.864633    27A      0.872122  
      28A      0.927871    29A      1.067819    30A      1.100397  
      31A      1.177514    32A      1.189291    33A      1.261354  
      34A      1.272464    35A      1.281866    36A      1.365201  
      37A      1.446649    38A      1.491712    39A      1.521770  
      40A      1.544736    41A      1.582034    42A      1.619399  
      43A      1.772878    44A      2.092313    45A      2.179925  
      46A      2.196942    47A      2.299759    48A      2.322937  
      49A      2.489946    50A      2.511183    51A      2.578311  
      52A      2.805037    53A      2.949575    54A      3.054996  
      55A      3.108483    56A      3.115349    57A      3.145087  
      58A      3.222190    59A      3.242278    60A      3.312640  
      61A      3.313698    62A      3.342109    63A      3.384101  
      64A      3.499478    65A      3.612528    66A      3.633436  
      67A      3.698341    68A      3.706085    69A      3.743763  
      70A      3.760013    71A      3.813650    72A      3.835678  
      73A      3.904094    74A      4.009946    75A      4.028211  
      76A      4.117265    77A      4.159387    78A      4.168580  
      79A      4.245973    80A      4.254587    81A      4.285302  
      82A      4.396816    83A      4.435165    84A      4.463814  
      85A      4.555081    86A      4.579121    87A      4.709677  
      88A      4.780190    89A      4.991168    90A      5.030311  
      91A      5.050174    92A      5.199019    93A      5.264681  
      94A      5.309294    95A      5.365968    96A      5.435086  
      97A      5.538202    98A      5.541609    99A      5.558118  
     100A      5.784734   101A      5.943455   102A      6.187723  
     103A      6.205964   104A      6.243071   105A      6.423824  
     106A      6.635552   107A      6.994316   108A      7.125667  
     109A      7.175978   110A      7.235882   111A      7.352372  
     112A      7.428147   113A      7.594452   114A      7.907711  
     115A     12.127755   116A     13.687592  

    Final Occupation by Irrep:
              A 
    DOCC [     9 ]

  @RHF Final Energy:  -115.08911178460389

   => Energetics <=

    Nuclear Repulsion Energy =             40.3077931197441188
    One-Electron Energy =                -236.9011386631875666
    Two-Electron Energy =                  81.5042337588395469
    Total Energy =                       -115.0891117846038867

Computation Completed


Properties will be evaluated at   0.000000,   0.000000,   0.000000 [a0]

Properties computed using the SCF density matrix

  Nuclear Dipole Moment: [e a0]
     X:    -2.1570      Y:    -0.8066      Z:     0.0033

  Electronic Dipole Moment: [e a0]
     X:     1.7698      Y:     0.2184      Z:    -0.0029

  Dipole Moment: [e a0]
     X:    -0.3872      Y:    -0.5882      Z:     0.0004     Total:     0.7042

  Dipole Moment: [D]
     X:    -0.9842      Y:    -1.4950      Z:     0.0010     Total:     1.7899


*** tstop() called on n054 at Wed Sep 21 16:30:25 2022
Module time:
	user time   =       3.30 seconds =       0.06 minutes
	system time =       0.02 seconds =       0.00 minutes
	total time  =          3 seconds =       0.05 minutes
Total time:
	user time   =       3.30 seconds =       0.06 minutes
	system time =       0.02 seconds =       0.00 minutes
	total time  =          3 seconds =       0.05 minutes
 MINTS: Wrapper to libmints.
   by Justin Turney

   Calculation information:
      Number of threads:                 1
      Number of atoms:                   6
      Number of AO shells:              44
      Number of SO shells:              44
      Number of primitives:             84
      Number of atomic orbitals:       130
      Number of basis functions:       116

      Number of irreps:                  1
      Integral cutoff                 0.00e+00
      Number of functions per irrep: [ 116 ]

 OEINTS: Overlap, kinetic, potential, dipole, and quadrupole integrals
         stored in file 35.

      Computing two-electron integrals...done
      Computed 22871388 non-zero two-electron integrals.
        Stored in file 33.


*** tstart() called on n054
*** at Wed Sep 21 16:30:27 2022


	Wfn Parameters:
	--------------------
	Wavefunction         = CCSD_T
	Number of irreps     = 1
	Number of MOs        = 116
	Number of active MOs = 114
	AO-Basis             = NONE
	Semicanonical        = false
	Reference            = RHF
	Print Level          = 1

	IRREP	# MOs	# FZDC	# DOCC	# SOCC	# VIRT	# FZVR
	-----	-----	------	------	------	------	------
	 A	   116	    2	    7	    0	    107	    0
	Transforming integrals...
	IWL integrals will be deleted.
	(OO|OO)...
	Presorting SO-basis two-electron integrals.
	Sorting File: SO Ints (nn|nn) nbuckets = 1
	Transforming the one-electron integrals and constructing Fock matrices
	Starting first half-transformation.
	Sorting half-transformed integrals.
	First half integral transformation complete.
	Starting second half-transformation.
	Two-electron integral transformation complete.
	(OO|OV)...
	Starting second half-transformation.
	Two-electron integral transformation complete.
	(OO|VV)...
	Starting second half-transformation.
	Two-electron integral transformation complete.
	(OV|OO)...
	Starting first half-transformation.
	Sorting half-transformed integrals.
	First half integral transformation complete.
	Starting second half-transformation.
	Two-electron integral transformation complete.
	(OV|OV)...
	Starting second half-transformation.
	Two-electron integral transformation complete.
	(OV|VV)...
	Starting second half-transformation.
	Two-electron integral transformation complete.
	(VV|OO)...
	Starting first half-transformation.
	Sorting half-transformed integrals.
	First half integral transformation complete.
	Starting second half-transformation.
	Two-electron integral transformation complete.
	(VV|OV)...
	Starting second half-transformation.
	Two-electron integral transformation complete.
	(VV|VV)...
	Starting second half-transformation.
	Two-electron integral transformation complete.
	Frozen core energy     =   -106.48986141450045

	Size of irrep 0 of <ab|cd> integrals:    131.080 (MW) /   1048.637 (MB)
	Total:                                   131.080 (MW) /   1048.637 (MB)

	Size of irrep 0 of <ia|bc> integrals:      8.575 (MW) /     68.602 (MB)
	Total:                                     8.575 (MW) /     68.602 (MB)

	Size of irrep 0 of tijab amplitudes:       0.561 (MW) /      4.488 (MB)
	Total:                                     0.561 (MW) /      4.488 (MB)

	Nuclear Rep. energy          =     40.30779311974412
	SCF energy                   =   -115.08911178460389
	One-electron energy          =    -87.56616464425814
	Two-electron energy          =     38.65912115441110
	Reference energy             =   -115.08911178460338

*** tstop() called on n054 at Wed Sep 21 16:30:37 2022
Module time:
	user time   =       7.63 seconds =       0.13 minutes
	system time =       2.63 seconds =       0.04 minutes
	total time  =         10 seconds =       0.17 minutes
Total time:
	user time   =      12.49 seconds =       0.21 minutes
	system time =       2.80 seconds =       0.05 minutes
	total time  =         15 seconds =       0.25 minutes
            **************************
            *                        *
            *        CCENERGY        *
            *                        *
            **************************

    Nuclear Rep. energy (wfn)     =   40.307793119744119
    SCF energy          (wfn)     = -115.089111784603887
    Reference energy    (file100) = -115.089111784603375

    Input parameters:
    -----------------
    Wave function   =     CCSD_T
    Reference wfn   =     RHF
    Brueckner       =     No
    Memory (Mbytes) =     14000.0
    Maxiter         =    300
    R_Convergence   =     1.0e-08
    E_Convergence   =     1.0e-10
    Restart         =     Yes
    DIIS            =     Yes
    AO Basis        =     NONE
    ABCD            =     NEW
    Cache Level     =     2
    Cache Type      =     LOW
    Print Level     =     1
    Num. of threads =     1
    # Amps to Print =     10
    Print MP2 Amps? =     No
    Analyze T2 Amps =     No
    Print Pair Ener =     No
    Local CC        =     No
    SCS-MP2         =     False
    SCSN-MP2        =     False
    SCS-CCSD        =     False

MP2 correlation energy -0.4283344864668577
                Solving CC Amplitude Equations
                ------------------------------
  Iter             Energy              RMS        T1Diag      D1Diag    New D1Diag    D2Diag
  ----     ---------------------    ---------   ----------  ----------  ----------   --------
     0        -0.428334486466858    0.000e+00    0.000000    0.000000    0.000000    0.128386
     1        -0.435619811102911    4.785e-02    0.007307    0.014795    0.014795    0.129725
     2        -0.445454580453892    1.576e-02    0.007423    0.014734    0.014734    0.135515
     3        -0.446925782186823    5.532e-03    0.008330    0.016883    0.016883    0.136963
     4        -0.446833983605086    1.221e-03    0.008390    0.016998    0.016998    0.137199
     5        -0.446876875919237    4.460e-04    0.008429    0.017142    0.017142    0.137301
     6        -0.446884383652594    1.283e-04    0.008440    0.017199    0.017199    0.137309
     7        -0.446881891177289    4.759e-05    0.008443    0.017216    0.017216    0.137306
     8        -0.446881919121696    1.752e-05    0.008444    0.017225    0.017225    0.137306
     9        -0.446882002415314    4.965e-06    0.008445    0.017227    0.017227    0.137306
    10        -0.446881752072532    1.573e-06    0.008445    0.017228    0.017228    0.137306
    11        -0.446881817517814    4.897e-07    0.008445    0.017228    0.017228    0.137306
    12        -0.446881802707862    1.201e-07    0.008445    0.017228    0.017228    0.137306
    13        -0.446881806200449    4.354e-08    0.008445    0.017228    0.017228    0.137306
    14        -0.446881807415910    1.236e-08    0.008445    0.017228    0.017228    0.137306
    15        -0.446881807456152    5.165e-09    0.008445    0.017228    0.017228    0.137306
    16        -0.446881807478913    1.607e-09    0.008445    0.017228    0.017228    0.137306

    Iterations converged.


    Largest TIA Amplitudes:
              3   6        -0.0081330949
              3  14        -0.0075944372
              6  14         0.0067249120
              3   9        -0.0067208412
              4   7         0.0058759145
              5   8         0.0058198069
              4   3        -0.0057823280
              6   6         0.0054840202
              3   2        -0.0054831879
              4   5        -0.0051558801

    Largest TIjAb Amplitudes:
      3   3   9   9        -0.0231264723
      4   4   7   7        -0.0215744029
      6   6  14  14        -0.0210805684
      5   5  12  12        -0.0203791377
      2   2   7   7        -0.0190544440
      4   4   8   8        -0.0160889988
      3   3  14  14        -0.0151676918
      3   3   2   9        -0.0151106112
      3   3   9   2        -0.0151106112
      3   6   9   9        -0.0150204677

    SCF energy       (wfn)                    = -115.089111784603887
    Reference energy (file100)                = -115.089111784603375

    Opposite-spin MP2 correlation energy      =   -0.330131749430368
    Same-spin MP2 correlation energy          =   -0.098202737036490
    Singles MP2 correlation energy            =   -0.000000000000000
    MP2 correlation energy                    =   -0.428334486466858
      * MP2 total energy                      = -115.517446271070227

    Opposite-spin CCSD correlation energy     =   -0.357718975615213
    Same-spin CCSD correlation energy         =   -0.089162831863700
    Singles CCSD correlation energy           =    0.000000000000000
    CCSD correlation energy                   =   -0.446881807478913
      * CCSD total energy                     = -115.535993592082292

            **************************
            *                        *
            *        CCTRIPLES       *
            *                        *
            **************************


    Wave function   =    CCSD_T
    Reference wfn   =      RHF

    Nuclear Rep. energy (wfn)                =   40.307793119744119
    SCF energy          (wfn)                = -115.089111784603887
    Reference energy    (file100)            = -115.089111784603375
    CCSD energy         (file100)            =   -0.446881807478913
    Total CCSD energy   (file100)            = -115.535993592082292

    Number of ijk index combinations:               84
    Memory available in words        :      1750000000
    ~Words needed per explicit thread:         4900172
    Number of threads for explicit ijk threading:    1

    MKL num_threads set to 1 for explicit threading.

    (T) energy                                =   -0.014790185802876
      * CCSD(T) total energy                  = -115.550783777885158

Giraffe The Energy is -115.550783777885 

    Psi4 stopped on: Wednesday, 21 September 2022 04:31PM
    Psi4 wall time for execution: 0:00:43.63

*** Psi4 exiting successfully. Buy a developer a beer!
