
 Working directory              : /scratch/mel64643/tmp/40073463/
 Global scratch directory       : /scratch/mel64643/tmp/40073463/
 Wavefunction directory         : /home/mel64643/wfu/
 Main file repository           : /scratch/mel64643/tmp/40073463/

 id        : ccgc

 Nodes     nprocs
 a1-8         3
 Distribution of processes:   nprocs(total)=    4   nprocs(compute)=    3   nprocs(helper)=    1
 GA implementation: MPI file
 GA implementation (serial work in mppx): MPI file

 Using customized tuning parameters: mindgm=1; mindgv=20; mindgc=4; mindgr=1; noblas=0; minvec=7
 default implementation of scratch files=sf  


 Variables initialized (1015), CPU time= 0.01 sec
 ***,Optimization of min3
 memory,1000,m
 gthresh,energy=1.0d-12,orbital=1.0d-10,oneint=1.0d-16,twoint=1.0d-16,optgrad=1.0d-6,compress=1.0d-13
 geomtyp=xyz
 
  bohr
  geometry = {
  6
  arbitrary comment
  C   -1.3679194551   -0.0265157072    0.0000004484
  O    1.3012695921    0.1258449285    0.0000003739
  H   -2.0810236441    1.9180575579   -0.0000803550
  H   -2.0947439019   -0.9840739554    1.6737993781
  H   -2.0947364456   -0.9842044825   -1.6737270026
  H    1.9134296946   -1.5792404612   -0.0000012528
 }
 
 basis=cc-pvdz
 {rhf;maxit,200}
 {ccsd(t);maxit,200}
 Commands initialized (818), CPU time= 0.00 sec, 672 directives.
 Default parameters read. Elapsed time= 0.11 sec

 Checking input...
 Passed
1


                                         ***  PROGRAM SYSTEM MOLPRO  ***
                                       Copyright, TTI GmbH Stuttgart, 2015
                                    Version 2022.1 linked Mar  4 2022 00:40:14


 **********************************************************************************************************************************
 LABEL *   Optimization of min3                                                          
  64 bit mpp version                                                                     DATE: 07-Aug-25          TIME: 21:27:36  
 **********************************************************************************************************************************

 SHA1:             31073afc4d8441e10870424e0d77336a33bc4286
 **********************************************************************************************************************************

 Memory per process:      1000 MW
 Total memory per node:   3000 MW

 GA preallocation disabled
 GA check disabled

 Variable memory set to 1000.0 MW


 THRESHOLDS:

 ZERO    =  1.00D-12  ONEINT  =  1.00D-16  TWOINT  =  1.00D-16  PREFAC  =  1.00D-14  XXXXXX  =  1.00D-09  EORDER  =  1.00D-04
 ENERGY  =  1.00D-12  ETEST   =  0.00D+00  EDENS   =  0.00D+00  THRDEDEF=  1.00D-06  GRADIENT=  1.00D-05  STEP    =  1.00D-03
 ORBITAL =  1.00D-10  CIVEC   =  1.00D-05  COEFF   =  1.00D-04  PRINTCI =  5.00D-02  PUNCHCI =  9.90D+01  OPTGRAD =  1.00D-06
 OPTENERG=  1.00D-06  OPTSTEP =  3.00D-04  THRGRAD =  1.00D-10  COMPRESS=  1.00D-13  VARMIN  =  1.00D-07  VARMAX  =  1.00D-03
 THRDOUB =  0.00D+00  THRDIV  =  1.00D-05  THRRED  =  1.00D-07  THRPSP  =  1.00D+00  THRDC   =  1.00D-10  THRCS   =  1.00D-10
 THRNRM  =  1.00D-08  THREQ   =  0.00D+00  THRDE   =  1.00D+00  THRREF  =  1.00D-05  SPARFAC =  1.00D+00  THRDLP  =  1.00D-07
 THRDIA  =  1.00D-10  THRDLS  =  1.00D-07  THRGPS  =  0.00D+00  THRKEX  =  0.00D+00  THRDIS  =  2.00D-01  THRVAR  =  1.00D-10
 THRLOC  =  1.00D-06  THRGAP  =  1.00D-06  THRLOCT = -1.00D+00  THRGAPT = -1.00D+00  THRORB  =  1.00D-06  THRMLTP =  0.00D+00
 THRCPQCI=  1.00D-10  KEXTA   =  0.00D+00  THRCOARS=  0.00D+00  SYMTOL  =  1.00D-06  GRADTOL =  1.00D-06  THROVL  =  1.00D-08
 THRORTH =  1.00D-08  THRDLOVL= -1.00D+00  GRID    =  1.00D-06  GRIDMAX =  1.00D-03  DTMAX   =  0.00D+00  THROCCDE=  1.00D-01
 THROCCDE=  1.00D-01  THRPRINT=  2.50D-01

 SETTING GEOMTYP        =    XYZ
 ZUNIT=BOHR

 SETTING BASIS          =    CC-PVDZ


 Recomputing integrals since basis changed


 Using spherical harmonics

 Library entry C      S cc-pVDZ              selected for orbital group  1
 Library entry C      P cc-pVDZ              selected for orbital group  1
 Library entry C      D cc-pVDZ              selected for orbital group  1
 Library entry O      S cc-pVDZ              selected for orbital group  2
 Library entry O      P cc-pVDZ              selected for orbital group  2
 Library entry O      D cc-pVDZ              selected for orbital group  2
 Library entry H      S cc-pVDZ              selected for orbital group  3
 Library entry H      P cc-pVDZ              selected for orbital group  3


 PROGRAM * SEWARD (Integral evaluation for generally contracted gaussian basis sets)     Author: Roland Lindh, 1990

 Geometry written to block  1 of record 700


 Point group  C1  



 ATOMIC COORDINATES

 NR  ATOM    CHARGE       X              Y              Z

   1  C       6.00   -1.367919455   -0.026515707    0.000000448
   2  O       8.00    1.301269592    0.125844929    0.000000374
   3  H       1.00   -2.081023644    1.918057558   -0.000080355
   4  H       1.00   -2.094743902   -0.984073955    1.673799378
   5  H       1.00   -2.094736446   -0.984204483   -1.673727003
   6  H       1.00    1.913429695   -1.579240461   -0.000001253

 Bond lengths in Bohr (Angstrom)

 1-2  2.673533978  1-3  2.071203219  1-4  2.060775202  1-5  2.060775172  2-6  1.811644606
     ( 1.414773254)     ( 1.096033543)     ( 1.090515274)     ( 1.090515258)     ( 0.958681040)

 Bond angles

  1-2-6  106.48219407   2-1-3  106.87177526   2-1-4  112.24709795   2-1-5  112.24709532

  3-1-4  108.35185159   3-1-5  108.35169128   4-1-5  108.62302639

 NUCLEAR CHARGE:                   18
 NUMBER OF PRIMITIVE AOS:          82
 NUMBER OF SYMMETRY AOS:           80
 NUMBER OF CONTRACTIONS:           48   (   48A   )
 NUMBER OF INNER CORE ORBITALS:     0   (    0A   )
 NUMBER OF OUTER CORE ORBITALS:     2   (    2A   )
 NUMBER OF VALENCE ORBITALS:       12   (   12A   )


 NUCLEAR REPULSION ENERGY   40.42790836

 Eigenvalues of metric

         1 0.963E-02 0.175E-01 0.369E-01 0.370E-01 0.384E-01 0.471E-01 0.473E-01 0.521E-01


 Contracted 2-electron integrals neglected if value below      1.0D-16
 AO integral compression algorithm  1   Integral accuracy      1.0D-16

     6.554 MB (compressed) written to integral file (100.0%)

     Node minimum: 2.097 MB, node maximum: 2.359 MB


 NUMBER OF SORTED TWO-ELECTRON INTEGRALS:     231084.     BUFFER LENGTH:  32768
 NUMBER OF SEGMENTS:   1  SEGMENT LENGTH:     231084      RECORD LENGTH: 524288

 Memory used in sort:       0.79 MW

 SORT1 READ      832256. AND WROTE      227682. INTEGRALS IN      1 RECORDS. CPU TIME:     0.01 SEC, REAL TIME:     0.02 SEC
 SORT2 READ      682147. AND WROTE      692076. INTEGRALS IN     24 RECORDS. CPU TIME:     0.02 SEC, REAL TIME:     0.02 SEC

 Node minimum:      230300.  Node maximum:      231084. integrals

 OPERATOR DM      FOR CENTER  0  COORDINATES:    0.000000    0.000000    0.000000


 **********************************************************************************************************************************
 DATASETS  * FILE   NREC   LENGTH (MB)   RECORD NAMES
              1      18       28.73       500      610      700      900      950      970     1000      129      960     1100   
                                          VAR    BASINP    GEOM    SYMINP    ZMAT    AOBASIS   BASIS     P2S    ABASIS      S 
                                         1400     1410     1200     1210     1080     1600     1650     1700   
                                           T        V       H0       H01     AOSYM     SMH    MOLCAS    OPER   

 PROGRAMS   *        TOTAL       INT
 CPU TIMES  *         0.44      0.29
 REAL TIME  *         1.46 SEC
 DISK USED  *        29.07 MB (local),      104.32 MB (total)
 GA USED    *         0.00 MB       (max)       0.00 MB       (current)
 **********************************************************************************************************************************


 Program * Restricted Hartree-Fock

 Orbital guess generated from atomic densities. Full valence occupancy:   14

 Initial occupancy:   9

 NELEC=   18   SYM=1   MS2= 0   THRE=1.0D-12   THRD=1.0D-10   THRG=1.0D-10  HFMA2=F  DIIS_START=2   DIIS_MAX=10   DIIS_INCORE=F

 Level shifts:    0.00 (CLOSED)    0.00 (OPEN)    0.30 (GAP_MIN)

 ITER           ETOT              DE          GRAD        DDIFF     DIIS  NEXP   TIME(IT)  TIME(TOT)  DIAG
   1     -115.01421701    -115.01421701     0.00D+00     0.16D+00     0     0       0.01      0.01    start
   2     -115.04265122      -0.02843421     0.10D-01     0.21D-01     1     0       0.00      0.01    diag
   3     -115.04864653      -0.00599530     0.48D-02     0.64D-02     2     0       0.00      0.01    diag
   4     -115.04911083      -0.00046430     0.10D-02     0.20D-02     3     0       0.01      0.02    diag
   5     -115.04913200      -0.00002117     0.19D-03     0.43D-03     4     0       0.00      0.02    diag
   6     -115.04913282      -0.00000082     0.33D-04     0.93D-04     5     0       0.01      0.03    diag
   7     -115.04913285      -0.00000003     0.68D-05     0.15D-04     6     0       0.00      0.03    diag
   8     -115.04913285      -0.00000000     0.22D-05     0.51D-05     7     0       0.00      0.03    fixocc
   9     -115.04913285      -0.00000000     0.46D-06     0.14D-05     8     0       0.00      0.03    diag
  10     -115.04913285      -0.00000000     0.75D-07     0.24D-06     9     0       0.01      0.04    diag/orth
  11     -115.04913285      -0.00000000     0.18D-07     0.50D-07     9     0       0.00      0.04    diag
  12     -115.04913285       0.00000000     0.45D-08     0.14D-07     9     0       0.00      0.04    diag
  13     -115.04913285      -0.00000000     0.68D-09     0.19D-08     9     0       0.01      0.05    diag
  14     -115.04913285       0.00000000     0.15D-09     0.39D-09     9     0       0.00      0.05    diag
  15     -115.04913285       0.00000000     0.62D-10     0.11D-09     9     0       0.00      0.05    diag
  16     -115.04913285      -0.00000000     0.13D-10     0.31D-10     9     0       0.00      0.05    diag
  17     -115.04913285      -0.00000000     0.22D-11     0.45D-11     0     0       0.00      0.05    diag

 Final occupancy:   9

 !RHF STATE 1.1 Energy               -115.049132854188
  RHF One-electron energy            -237.106474275118
  RHF Two-electron energy              81.629433056748
  RHF Kinetic energy                  114.962009699568
  RHF Nuclear energy                   40.427908364182
  RHF Virial quotient                  -1.000757843003

 !RHF STATE 1.1 Dipole moment          -0.39135094    -0.60036146    -0.00000266
 Dipole moment /Debye                  -0.99471487    -1.52596661    -0.00000676

 Orbital energies:

           1.1          2.1          3.1          4.1          5.1          6.1          7.1          8.1          9.1         10.1
    -20.550206   -11.273906    -1.353003    -0.920744    -0.684894    -0.615744    -0.584907    -0.497328    -0.443072     0.184279

          11.1
      0.225084


 HOMO      9.1    -0.443072 =     -12.0566eV
 LUMO     10.1     0.184279 =       5.0145eV
 LUMO-HOMO         0.627351 =      17.0711eV

 Orbitals saved in record  2100.2


 **********************************************************************************************************************************
 DATASETS  * FILE   NREC   LENGTH (MB)   RECORD NAMES
              1      18       28.73       500      610      700      900      950      970     1000      129      960     1100   
                                          VAR    BASINP    GEOM    SYMINP    ZMAT    AOBASIS   BASIS     P2S    ABASIS      S 
                                         1400     1410     1200     1210     1080     1600     1650     1700   
                                           T        V       H0       H01     AOSYM     SMH    MOLCAS    OPER   

              2       4        0.47       700     1000      520     2100   
                                         GEOM     BASIS   MCVARS     RHF  

 PROGRAMS   *        TOTAL   RHF-SCF       INT
 CPU TIMES  *         0.50      0.06      0.29
 REAL TIME  *         2.12 SEC
 DISK USED  *        29.40 MB (local),      105.31 MB (total)
 GA USED    *         0.00 MB       (max)       0.00 MB       (current)
 **********************************************************************************************************************************


 PROGRAM * CCSD (Closed-shell coupled cluster)     Authors: C. Hampel, H.-J. Werner, 1991, M. Deegan, P.J. Knowles, 1992


 Convergence thresholds:  THRVAR = 1.00D-08  THRDEN = 1.00D-12

 CCSD(T)     terms to be evaluated (factor= 1.000)


 Number of core orbitals:           2 (   2 )
 Number of closed-shell orbitals:   7 (   7 )
 Number of external orbitals:      39 (  39 )

 Molecular orbitals read from record     2100.2  Type=RHF/CANONICAL  

 Number of N-1 electron functions:               7
 Number of N-2 electron functions:              28
 Number of singly external CSFs:               273
 Number of doubly external CSFs:             37401
 Total number of CSFs:                       37675

 Length of J-op  integral file:               0.00 MB
 Length of K-op  integral file:               0.16 MB
 Length of 3-ext integral record:             0.00 MB

 Memory could be reduced to 0.73 Mwords without degradation in triples

 Integral transformation finished. Total CPU:   0.02 sec, npass=  1  Memory used:   0.66 MW

 Reference energy:                   -115.04913285

 MP2 singlet pair energy:              -0.21852530
 MP2 triplet pair energy:              -0.11985860
 MP2 correlation energy:               -0.33838390
 MP2 total energy:                   -115.38751675

 SCS-MP2 correlation energy:           -0.33680904   (PS=  1.200000  PT=  0.333333)
 SCS-MP2 total energy:               -115.38594190

 ITER.      SQ.NORM     CORR.ENERGY   TOTAL ENERGY   ENERGY CHANGE        DEN1      VAR(S)    VAR(P)  DIIS     TIME  TIME/IT
   1      1.10715035    -0.36117478  -115.41030763    -0.02279088    -0.01413919  0.90D-03  0.17D-02  1  1     0.04     0.04
   2      1.11563499    -0.36311149  -115.41224435    -0.00193671    -0.00922567  0.19D-04  0.16D-03  2  2     0.06     0.04
   3      1.11749595    -0.36323709  -115.41236995    -0.00012560    -0.00119406  0.93D-05  0.85D-05  3  3     0.08     0.04
   4      1.11800374    -0.36323579  -115.41236864     0.00000130    -0.00025221  0.31D-06  0.66D-06  4  4     0.10     0.04
   5      1.11809927    -0.36323624  -115.41236909    -0.00000045    -0.00003532  0.94D-07  0.47D-07  5  5     0.12     0.04
   6      1.11811748    -0.36323492  -115.41236778     0.00000131    -0.00000423  0.15D-07  0.39D-08  6  6     0.14     0.04
   7      1.11812199    -0.36323452  -115.41236738     0.00000040    -0.00000034  0.19D-08  0.68D-09  6  1     0.16     0.04
   8      1.11812320    -0.36323462  -115.41236748    -0.00000010     0.00000072  0.24D-09  0.67D-10  6  3     0.18     0.04
   9      1.11812422    -0.36323450  -115.41236736     0.00000012    -0.00000037  0.12D-10  0.99D-11  6  2     0.20     0.04
  10      1.11812415    -0.36323451  -115.41236736    -0.00000000     0.00000007  0.10D-11  0.81D-12  6  5     0.22     0.04
  11      1.11812418    -0.36323450  -115.41236736     0.00000000    -0.00000000  0.17D-12  0.47D-13  6  4     0.24     0.04
  12      1.11812416    -0.36323451  -115.41236736    -0.00000000     0.00000001  0.17D-13  0.91D-14  6  1     0.26     0.04
  13      1.11812417    -0.36323451  -115.41236736    -0.00000000    -0.00000000  0.22D-14  0.86D-15  6  6     0.28     0.04
  14      1.11812417    -0.36323451  -115.41236736     0.00000000    -0.00000000  0.21D-15  0.11D-15  6  3     0.31     0.04
  15      1.11812417    -0.36323451  -115.41236736    -0.00000000    -0.00000000  0.23D-16  0.15D-16  6  2     0.32     0.04
  16      1.11812417    -0.36323451  -115.41236736    -0.00000000    -0.00000000  0.51D-17  0.15D-17  6  5     0.34     0.04
  17      1.11812417    -0.36323451  -115.41236736    -0.00000000    -0.00000000  0.48D-18  0.23D-18  6  4     0.37     0.04
  18      1.11812417    -0.36323451  -115.41236736     0.00000000    -0.00000000  0.75D-19  0.38D-19  6  1     0.38     0.04
  19      1.11812417    -0.36323451  -115.41236736    -0.00000000    -0.00000000  0.81D-20  0.39D-20  6  6     0.40     0.04
  20      1.11812417    -0.36323451  -115.41236736     0.00000000     0.00000000  0.11D-20  0.50D-21  6  3     0.42     0.04

 Norm of t1 vector:      0.04140726      S-energy:    -0.00000000      T1 diagnostic:  0.00782524
                                                                       D1 diagnostic:  0.01724392
                                                                       D2 diagnostic:  0.13451144 (internal)


 Total CPU time for triples:      0.08 sec


 RESULTS
 =======

  Reference energy                   -115.049132854188
  CCSD singlet pair energy             -0.254415483751
  CCSD triplet pair energy             -0.108819021557
  CCSD correlation energy              -0.363234505308

  Triples (T) contribution             -0.007718805497
  Total correlation energy             -0.370953310805

  CCSD total energy                  -115.412367359496
  CCSD[T] energy                     -115.420373557450
  CCSD-T energy                      -115.419937501479
 !CCSD(T) total energy               -115.420086164993

 Timing summary (sec):

 STEP                 CPU(USER)    SYS     CPU(TOT)    WALL
 Transformation          0.02      0.01      0.03      0.04
 CCSD iterations         0.41      0.07      0.48      0.82
 Triples                 0.08      0.00      0.08      0.08

 Program statistics:

 Available memory in ccsd:               999999795
 Min. memory needed in ccsd:                136177
 Max. memory used in ccsd:                  162910
 Max. memory used in cckext:                178997 (20 integral passes)



 **********************************************************************************************************************************
 DATASETS  * FILE   NREC   LENGTH (MB)   RECORD NAMES
              1      19       31.13       500      610      700      900      950      970     1000      129      960     1100   
                                          VAR    BASINP    GEOM    SYMINP    ZMAT    AOBASIS   BASIS     P2S    ABASIS      S 
                                         1400     1410     1200     1210     1080     1600     1650     1700     1380   
                                           T        V       H0       H01     AOSYM     SMH    MOLCAS    OPER     JKOP   

              2       4        0.47       700     1000      520     2100   
                                         GEOM     BASIS   MCVARS     RHF  

 PROGRAMS   *        TOTAL   CCSD(T)   RHF-SCF       INT
 CPU TIMES  *         1.04      0.54      0.06      0.29
 REAL TIME  *         3.13 SEC
 DISK USED  *        35.56 MB (local),      115.96 MB (total)
 SF USED    *         5.97 MB
 GA USED    *         0.00 MB       (max)       0.00 MB       (current)
 **********************************************************************************************************************************

 CCSD(T)/cc-pVDZ energy=   -115.420086164993

         CCSD(T)         RHF-SCF
   -115.42008616   -115.04913285
 **********************************************************************************************************************************
 Molpro calculation terminated
