 --invoking executable--
/opt/vulcan/opt/vulcan/linux-x86_64/intel-13.0.0/cfour-2.0-yhj426etc3g7hslvbmpgvdymp2w76rob/bin/xjoda


   *************************************************************************
         <<<     CCCCCC     CCCCCC   |||     CCCCCC     CCCCCC   >>>
       <<<      CCC        CCC       |||    CCC        CCC         >>>
      <<<      CCC        CCC        |||   CCC        CCC            >>>
    <<<        CCC        CCC        |||   CCC        CCC              >>>
      <<<      CCC        CCC        |||   CCC        CCC            >>>
       <<<      CCC        CCC       |||    CCC        CCC         >>>
         <<<     CCCCCC     CCCCCC   |||     CCCCCC     CCCCCC   >>>
   *************************************************************************

     ****************************************************************
     * CFOUR Coupled-Cluster techniques for Computational Chemistry *
     ****************************************************************
 

   Department of Chemistry                Institut fuer Physikalische Chemie
   University of Texas at Austin          Universitaet Mainz
   Austin, TX  78712, USA                 D-55099 Mainz, Germany
 
                       Version 1.2
 
                     n035                                              
                     Tue Aug  4 14:44:50 EDT 2020                      
                     integer*8 version is running
 
********************************************************************************
*                          Input from ZMAT file                                *
********************************************************************************
MIN4                                                                            
C                                                                               
O 1 R1*                                                                         
H 1 R2* 2 A2*                                                                   
H 1 R3* 2 A3* 3 D3*                                                             
H 1 R3* 2 A3* 3 D4*                                                             
H 2 R5* 1 A5* 3 D5*                                                             
                                                                                
R1   =        2.696573997657883                                                 
R2   =        2.081647917136476                                                 
A2   =      112.301547773046437                                                 
R3   =        2.074526657212965                                                 
A3   =      109.366965271564894                                                 
D3   =     -121.395401869715215                                                 
D4   =      119.995549686614808                                                 
R5   =        1.836471596506251                                                 
A5   =      106.939243760784038                                                 
D5   =     -179.964522118665798                                                 
                                                                                
*CFOUR(REF=RHF                                                                  
       CALC=CCSD(T)                                                             
       BASIS=cc-pVTZ                                                            
       ORB=SEMICANONICAL                                                        
       UNITS=BOHR                                                               
       MEMORY=7                                                                 
       MEM_UNIT=GB                                                              
       SCF_CONV=9                                                               
       CC_CONV=6                                                                
       CHARGE=0                                                                 
       MULT=1)                                                                  
                                                                                
********************************************************************************
    -------------------------------------------------------------------
                    CFOUR Control Parameters 
    -------------------------------------------------------------------
        External           Internal           Value            Units
          Name               Name
    -------------------------------------------------------------------
       ABCDTYPE             IABCDT         STANDARD     [  0]   ***   
       ANHARMONIC           IANHAR         OFF          [  0]   ***   
       ANH_ALGORIT          IANALG         STANDARD     [  0]   ***   
       ANH_DERIVAT          IANDER         SECOND       [  1]   ***   
       ANH_STEPSIZ          ICUBST             50000          x 10-6  
       ANH_SYMMETR          IANHSM         ABELIAN      [  0]   ***   
       AO_LADDERS           IAOLAD         SINGLEPASS   [  1]   ***   
       AV_SCF               IAVSCF         OFF          [  0]   ***   
       BASIS                IBASIS         PVTZ         [ 14]   ***   
       BOTHVECTORS          BOTHVC         OFF          [  0]   ***   
       BOX_POTENT           IPIAB          OFF          [  0]   ***   
       BREIT                IBREIT         OFF          [  0]   ***   
       BRUCK_CONV           IBRTOL          10D-  4             ***   
       BRUECKNER            IBRKNR             OFF      [  0]   ***   
       BUFFERSIZE           IBUFFS            600               ***   
       CACHE_RECS           ICHREC             10               ***   
       CALCLEVEL            ICLLVL           CCSD(T)    [ 22]   ***   
       CCORBOPT             ICCORB             OFF      [  0] x 0.01  
       CC_CONV              ICCCNV          10D-  6             ***   
       CC_EXPORDER          ICCEOR              5               ***   
       CC_EXTRAPOL          ICCEXT             DIIS     [  1]   ***   
       CC_GUESS             ICCGES         MP2          [  0]   ***   
       CC_MAXCYC            ICCCYC            100              cycles 
       CC_PROGRAM           ICCPRO         VCC          [  0]   ***   
       CHARGE               ICHRGE              0               ***   
       CHOLESKY             ICHOLE         OFF          [  0]   ***   
       CIS_CONV             ICISTL              5               ***   
       COMM_SIZE            IPSIZE            ***               ***   
       CONSTANT             ICONST         OLD          [  1]   ***   
       CONTINUUM            ICONTU         NONE         [  0]   ***   
       CONTRACTION          ICNTYP          GENERAL     [  1]   ***   
       COORDINATES          ICOORD         INTERNAL     [  0]   ***   
       CPHF_CONVER          ICPHFT          10D- 16             ***   
       CPHF_MAXCYC          ICPHFC             64              cycles 
       CUBIC                ICUBIC         OFF          [  0]   ***   
       CURVILINEAR          ICURVY            OFF       [  0]   ***   
       D3_ISOTRANS          D3ISOT         OFF          [  0]   ***   
       DBOC                 IDBOC          OFF          [  0]   ***   
       DCT                  IDCT           OFF          [  0]   ***   
       DERIV_LEV            IDRLVL            FIRST     [  1]   ***   
       DEVMEM_SIZE          IDVMEM         *********           MByte  
       DIAG_MRCC            IEOMST          10D-  0             ***   
       DIFF_TYPE            IDIFTY         RELAXED      [  0]   ***   
       DIRECT               IDIRCT         OFF          [  0]   ***   
       DROPMO               IDRPMO      NONE         
       ECP                  IECP           OFF          [  0]   ***   
       EIGENVECTOR          IVEC                1               ***   
       EL_ANHARM            IELANH         OFF          [  0]   ***   
       EOMFOLLOW            IEOMSR         ENERGY       [  0]   ***   
       EOMIP                IEOMIP         OFF          [  0]   ***   
       EOM_MRCC             IMRCCE         NEW          [  1]   ***   
       EOM_NONIT            EOMNON         OFF          [  0]   ***   
       EOM_NSING            IEOMSI          10D-  0             ***   
       EOM_NSTATES          IMRCCD         DAVIDSON     [  0]   ***   
       EOM_NTRIP            IEOMTR          10D-  0             ***   
       EOM_ORDER            IEXORD         ENERGY       [  0]   ***   
       EOM_PROPSTA          IEOMST              0               ***   
       ESTATE_CONV          IEXTOL          10D-  5             ***   
       ESTATE_DIAG          IEXDIG         ITERATIVE    [  0]   ***   
       ESTATE_LOCK          IESLOC         ON           [  1]   ***   
       ESTATE_MAXC          IEXMXC             40               ***   
       ESTATE_PROP          IEXPRP         OFF          [  0]   ***   
       EVAL_HESS            IRECAL              0            # of cyc.
       EXCITATION           IEXCIT              0               ***   
       EXCITE               IEXCIT         NONE         [  0]   ***   
       EXTERN_POT           IEXPOT         OFF          [  0]   ***   
       FCGRADNEW            IFCGNW         OFF          [  0]   ***   
       FC_FIELD             IFINFC              0             x 10-6  
       FD_CALTYPE           IFDCAL         GRADONLY     [  0]   ***   
       FD_PROJECT           IFDPRJ         OFF          [  1]   ***   
       FD_STEPSIZE          IDISFD              0            10-4 bohr
       FD_USEGROUP          IFDGRP         FULL         [  0]   ***   
       FILE_RECSIZ          IFLREC              4096           words  
       FINITE_PERT          IFIPER              0             x 10-6  
       FIXGEOM              IFIXGM         OFF          [  0]   ***   
       FOCK                 IFOCK          AO           [  1]   ***   
       FREQ_ALGORI          IVIALG         STANDARD     [  0]   ***   
       FROZEN_CORE          IFROCO         OFF          [  0]   ***   
       FROZEN_VIRT          IFROVI         OFF          [  0]   ***   
       GAMMA_ABCD           IGABCD         STORE        [  0]   ***   
       GAMMA_ABCI           IGABCI         STORE        [  0]   ***   
       GENBAS_1             IGNBS1              0               ***   
       GENBAS_2             IGNBS2              0               ***   
       GENBAS_3             IGNBS3              0               ***   
       GENBAS_4             IGNBS4              0               ***   
       GEO_CONV             ICONTL              5              H/bohr 
       GEO_MAXCYC           IOPTCY             50               ***   
       GEO_MAXSTEP          IMXSTP            300            millibohr
       GEO_METHOD           INR                NR       [  0]   ***   
       GIAO                 IGIAO          OFF          [  1]   ***   
       GIMIC                IGIMIC         OFF          [  0]   ***   
       GRID                 IGRID          OFF          [  0]   ***   
       GRID_ALGO            IGALGO         SERIAL       [  0]   ***   
       GUESS                IGUESS            MOREAD    [  0]   ***   
       HBAR                 IHBAR              OFF      [  0]   ***   
       HESS_TYPE            IHESTP         SCF          [  0]   ***   
       HF2_FILE             IHF2Fl         USE          [  1]   ***   
       HFSTABILITY          ISTABL         OFF          [  0]   ***   
       INCORE               INCORE             OFF      [  0]   ***   
       INPUT_MRCC           IMRCC          ON           [  1]   ***   
       INTEGRALS            INTTYP             VMOL     [  1]   ***   
       JODA_PRINT           IJPRNT              0               ***   
       KEYWORD_OUT          IDMPKW         NO           [  0]   ***   
       LINDEP_TOL           ILINDP              8               ***   
       LINEQ_CONV           IZTACN          10D-  7           cycles  
       LINEQ_EXPOR          ILMAXD              5               ***   
       LINEQ_MAXCY          ILMAXC            100               ***   
       LINEQ_TYPE           ILTYPE         DIIS         [  1]   ***   
       LOCK_ORBOCC          ILOCOC             OFF      [  0]   ***   
       MEMORY_SIZE          IMEMSZ         875000000           words  
       MEM_UNIT             IMEMU          GB           [  3]   ***   
       MRCC                 IMRCCC         OFF          [  0]   ***   
       MULTIPLICTY          IMULTP              1               ***   
       NACOUPLING           IVCOUP         OFF          [  0]   ***   
       NEGEVAL              IDIE             ABORT      [  0]   ***   
       NEWNORM              INEWNO         OFF          [  0]   ***   
       NON-HF               INONHF             OFF      [  0]   ***   
       NTOP_TAMP            ITOPT2             15               ***   
       NUC_MODEL            INUCMO         POINT        [  0]   ***   
       OCCUPATION           IOCCU   ESTIMATED BY SCF 
       OPEN-SHELL           IOPEN          SPIN-ORBITAL [  0]   ***   
       OPTVIB               IOPTVB         OFF          [  0]   ***   
       ORBITALS             IORBTP         SEMICANONICAL[  1]   ***   
       PARALLEL             IPARAL         ON           [  1]   ***   
       PARA_INT             IPINTS         ON           [  1]   ***   
       PARA_PRINT           IPPRIN              0               ***   
       PERT_ORB             IPTORB         CANONICAL    [  1]   ***   
       POINTS               IGRDFD              0               ***   
       PRINT                IPRNT               0               ***   
       PROPS                IPROPS             OFF      [  0]   ***   
       PROP_INTEGR          IINTYP         INTERNAL     [  0]   ***   
       PSI                  IPSI           OFF          [  0]   ***   
       QC_ALG               IQCALG         FLM          [  0]   ***   
       QC_LINALG            IQCLIN         TRIDIAG      [  2]   ***   
       QC_MAXCYC            IQCMAX          10D-100           cycles  
       QC_MAXSCFCY          IQCMSC          10D- 15           cycles  
       QC_RTRUST            IQCRTR          10D-  0           x 10-3  
       QC_SKIPSCF           IQCSKI         OFF          [  0]   ***   
       QC_START             IQCSTA          10D-  1             ***   
       QRHFGUESS            IQGUES         OFF          [  0]   ***   
       QUARTIC              IQUART         OFF          [  0]   ***   
       RAMAN_INT            IRAMIN         OFF          [  0]   ***   
       RAMAN_ORB            IRAMRE         UNRELAXED    [  0]   ***   
       RDO                  IRDOFM              ON      [  1]   ***   
       REFERENCE            IREFNC             RHF      [  0]   ***   
       RELATIVIST           IRELAT         OFF          [  0]   ***   
       RELAX_DENS           IRDENS              ON      [  1]   ***   
       RESET_FLAGS          IRESET             OFF      [  0]   ***   
       RESTART_CC           ICCRES         OFF          [  0]   ***   
       ROT_EVEC             ROTVEC              0               ***   
       SAVE_INTS            ISVINT             OFF      [  0]   ***   
       SCALE_ON             ISTCRT              0               ***   
       SCF_CONV             ISCFCV          10D-  9             ***   
       SCF_DAMPING          IDAMP               0             x 10-3  
       SCF_EXPORDE          IRPPOR              6               ***   
       SCF_EXPSTAR          IRPPLS              8               ***   
       SCF_EXTRAPO          IRPP                ON      [  1]   ***   
       SCF_MAXCYC           ISCFCY            150              cycles 
       SCF_NOSTOP           ISCFST         OFF          [  0]   ***   
       SCF_PRINT            ISCFPR              0               ***   
       SCF_PROG             ISCFPR         SCF          [  0]   ***   
       SD_FIELD             IFINSD              0             x 10-6  
       SOPERT               IPERSO         OFF          [  0]   ***   
       SPHERICAL            IDFGHI             ON       [  1]   ***   
       SPINORBIT            ISOCAL         OFF          [  0]   ***   
       SPINROTATIO          ISRCON         OFF          [  0]   ***   
       SPIN_FLIP            ISPFLP         OFF          [  0]   ***   
       SPIN_ORBIT           ISPORB         OFF          [  0]   ***   
       SPIN_SCAL            ISCSMP         OFF          [  0]   ***   
       STEEPSCALE           ISTPSC              1000          x 10-3  
       SUBGROUP             ISUBGP         DEFAULT      [  0]   ***   
       SUBGRPAXIS           ISBXYZ         X            [  0]   ***   
       SYMMETRY             ISYM             ON         [  0]   ***   
       SYM_CHECK            ISYMCK         OVERRIDE     [  1]   ***   
       T3_EXTRAPOL          IT3EXT         OFF          [  0]   ***   
       T4_EXTRAPOL          IT4EXP         OFF          [  0]   ***   
       TAMP_SUM             IEVERY              5               ***   
       TESTSUITE            ITESTS         OFF          [  0]   ***   
       THERMOCH             ITHERM         OFF          [  0]   ***   
       TOL_CHOLESK          ITOLCH          10D-  4             ***   
       TRANGRAD             IRESRM         OFF          [  0]   ***   
       TRANS_INV            ITRAIN         USE          [  0]   ***   
       TREAT_PERT           ITREAT         SIMULTANEOUS [  0]   ***   
       TRIP_ALGORI          ITRALG         NORMAL       [  0]   ***   
       UIJ_THRESHO          IUIJTH              1               ***   
       UNITS                IUNITS         BOHR         [  1]   ***   
       UNOS                 IUNOS          OFF          [  0]   ***   
       UPDATE_HESS          IHUPDT         ON           [  1]   ***   
       VIBPHASE             ISETPH         STANDARD     [  0]   ***   
       VIBRATION            IVIB              NO        [  0]   ***   
       VIB_ALGORIT          IGEALG         STANDARD     [  0]   ***   
       VNATORB              IVNORB         OFF          [  0]   ***   
       VTRAN                IVTRAN         FULL/PARTIAL [  0]   ***   
       XFIELD               IXEFLD              0             x 10-6  
       XFORM_TOL            IXFTOL          10D- 11             ***   
       YFIELD               IYEFLD              0             x 10-6  
       ZFIELD               IZEFLD              0             x 10-6  
       ZSCALE_EXP           IZEXPS         OFF          [  0]   ***   
    -------------------------------------------------------------------
   6 entries found in Z-matrix 
   Job Title : MIN4                                                                            
   There are 10 unique internal coordinates.
   Of these, 10 will be optimized.
   User supplied Z-matrix: 
--------------------------------------------------------------------------------
       SYMBOL    BOND      LENGTH    ANGLE     ANGLE     DIHED     ANGLE
                  TO      (ANGST)    WRT      (DEG)      WRT      (DEG)
--------------------------------------------------------------------------------
        C    
        O          1         R1   
        H          1         R2         2        A2   
        H          1         R3         2        A3         3        D3   
        H          1         R3         2        A3         3        D4   
        H          2         R5         1        A5         3        D5   
                  *Initial values for internal coordinates* 
                      Name             Value
                        R1              2.6965739977
                        R2              2.0816479171
                        A2            112.3015477730
                        R3              2.0745266572
                        A3            109.3669652716
                        D3           -121.3954018697
                        D4            119.9955496866
                        R5              1.8364715965
                        A5            106.9392437608
                        D5           -179.9645221187
--------------------------------------------------------------------------------
  1  C          6    12.00000
  2  O          8    15.99491
  3  H          1     1.00783
  4  H          1     1.00783
  5  H          1     1.00783
  6  H          1     1.00783
   Rotational constants (in cm-1): 
          0.7904965512             0.8213439820             4.2170457253
   Rotational constants (in MHz): 
      23698.4937324053         24623.2765734199        126423.8680615905
********************************************************************************
   The full molecular point group is C1  .
   The largest Abelian subgroup of the full molecular point group is C1  .
   The computational point group is C1  .
********************************************************************************
--------------------------------------------------------------------------------
   Analysis of internal coordinates specified by Z-matrix 
--------------------------------------------------------------------------------
   *The nuclear repulsion energy is   40.089975045366664 a.u.
  *ERROR* Parameters  8 and  5 are not equivalent [both called A3   ].
  *ERROR* Parameters  4 and  7 are not equivalent [both called R3   ].
   *There are  12 degrees of freedom within the tot. symm. molecular subspace.
   *Z-matrix requests optimization of  10 coordinates.
   *The optimization is constrained.
   *The following  12 parameters can have non-zero 
    derivatives within the totally symmetric subspace:
             D5   [12]  D4   [ 9]  D3   [ 6]  A2   [ 3]  A3   [ 8]  A3   [ 5]
             A5   [11]  R2   [ 2]  R3   [ 4]  R3   [ 7]  R5   [10]  R1   [ 1]
   *The following  10 parameters are to be optimized:
             R1   [ 1]  R2   [ 2]  A2   [ 3]  R3   [ 4]  A3   [ 5]  D3   [ 6]
             D4   [ 9]  R5   [10]  A5   [11]  D5   [12]
   *The following coordinates must be varied in an  unconstrained optimization.

--------------------------------------------------------------------------------
 ----------------------------------------------------------------
 Z-matrix   Atomic            Coordinates (in bohr)
  Symbol    Number           X              Y              Z
 ----------------------------------------------------------------
     C         6        -1.38134146    -0.02046975     0.00164781
     O         8         1.31093333     0.13173998     0.00164512
     H         1        -2.27872727     1.85760337     0.02989865
     H         1        -2.00926553    -1.10158535     1.65711187
     H         1        -2.01437603    -1.01125054    -1.70752787
     H         1         1.94430171    -1.59184672    -0.02521212
 ----------------------------------------------------------------
   Interatomic distance matrix (Angstroms) 
 
                 C             O             H             H             H    
                [ 1]        [ 2]        [ 3]        [ 4]        [ 5]
  C    [ 1]     0.00000
  O    [ 2]     1.42697     0.00000
  H    [ 3]     1.10156     2.10776     0.00000
  H    [ 4]     1.09779     2.06890     1.79275     0.00000
  H    [ 5]     1.09779     2.06890     1.78034     1.78113     0.00000
  H    [ 6]     1.94647     0.97182     2.88563     2.28842     2.29680
 
                 H    
                [ 6]
  H    [ 6]     0.00000
   Rotational constants (in cm-1): 
          4.2170457253             0.8213439820             0.7904965512
   Rotational constants (in MHz): 
     126423.8680615905         24623.2765734199         23698.4937324052
  There are  116 basis functions.
  @CHECKOUT-I, Total execution time (CPU/WALL):        0.08/       0.12 seconds.
--executable xjoda finished with status     0 in        0.14 seconds (walltime).
 --invoking executable--
/opt/vulcan/opt/vulcan/linux-x86_64/intel-13.0.0/cfour-2.0-yhj426etc3g7hslvbmpgvdymp2w76rob/bin/xvmol
 Serial version of molecule started
********************************************************************************
                    Input from MOL file
********************************************************************************
INTGRL        1    0    1    0    0    0    0    0    0                         
         *** CFOUR Program System (Release V0.1) ***                            
MIN4                                                                            
    6    0            0.10E-08              0    0                              
   9999.00      3.00                                                            
          6.00000000    1    4    1    1    1    1                              
C #1  -1.381341458953568  -0.020469751876251   0.001647808324468                
   10    4                                                                      
   8236.00000000000       5.310000000000000E-004 -1.130000000000000E-004        
  0.000000000000000E+000  0.000000000000000E+000                                
   1235.00000000000       4.108000000000000E-003 -8.780000000000000E-004        
  0.000000000000000E+000  0.000000000000000E+000                                
   280.800000000000       2.108700000000000E-002 -4.540000000000000E-003        
  0.000000000000000E+000  0.000000000000000E+000                                
   79.2700000000000       8.185300000000000E-002 -1.813300000000000E-002        
  0.000000000000000E+000  0.000000000000000E+000                                
   25.5900000000000       0.234817000000000      -5.576000000000000E-002        
  0.000000000000000E+000  0.000000000000000E+000                                
   8.99700000000000       0.434401000000000      -0.126895000000000             
  0.000000000000000E+000  0.000000000000000E+000                                
   3.31900000000000       0.346129000000000      -0.170352000000000             
  0.000000000000000E+000  0.000000000000000E+000                                
  0.905900000000000       3.937800000000000E-002  0.140382000000000             
   1.00000000000000       0.000000000000000E+000                                
  0.364300000000000      -8.983000000000000E-003  0.598684000000000             
  0.000000000000000E+000  0.000000000000000E+000                                
  0.128500000000000       2.385000000000000E-003  0.395389000000000             
  0.000000000000000E+000   1.00000000000000                                     
    5    3                                                                      
   18.7100000000000       1.403100000000000E-002  0.000000000000000E+000        
  0.000000000000000E+000                                                        
   4.13300000000000       8.686600000000000E-002  0.000000000000000E+000        
  0.000000000000000E+000                                                        
   1.20000000000000       0.290216000000000       0.000000000000000E+000        
  0.000000000000000E+000                                                        
  0.382700000000000       0.501008000000000        1.00000000000000             
  0.000000000000000E+000                                                        
  0.120900000000000       0.343406000000000       0.000000000000000E+000        
   1.00000000000000                                                             
    2    2                                                                      
   1.09700000000000        1.00000000000000       0.000000000000000E+000        
  0.318000000000000       0.000000000000000E+000   1.00000000000000             
    1    1                                                                      
  0.761000000000000        1.00000000000000                                     
          8.00000000    1    4    1    1    1    1                              
O #2   1.310933326885173   0.131739979660092   0.001645122706600                
   10    4                                                                      
   15330.0000000000       5.080000000000000E-004 -1.150000000000000E-004        
  0.000000000000000E+000  0.000000000000000E+000                                
   2299.00000000000       3.929000000000000E-003 -8.950000000000000E-004        
  0.000000000000000E+000  0.000000000000000E+000                                
   522.400000000000       2.024300000000000E-002 -4.636000000000000E-003        
  0.000000000000000E+000  0.000000000000000E+000                                
   147.300000000000       7.918100000000000E-002 -1.872400000000000E-002        
  0.000000000000000E+000  0.000000000000000E+000                                
   47.5500000000000       0.230687000000000      -5.846300000000000E-002        
  0.000000000000000E+000  0.000000000000000E+000                                
   16.7600000000000       0.433118000000000      -0.136463000000000             
  0.000000000000000E+000  0.000000000000000E+000                                
   6.20700000000000       0.350260000000000      -0.175740000000000             
  0.000000000000000E+000  0.000000000000000E+000                                
   1.75200000000000       4.272800000000000E-002  0.160934000000000             
   1.00000000000000       0.000000000000000E+000                                
  0.688200000000000      -8.154000000000000E-003  0.603418000000000             
  0.000000000000000E+000  0.000000000000000E+000                                
  0.238400000000000       2.381000000000000E-003  0.378765000000000             
  0.000000000000000E+000   1.00000000000000                                     
    5    3                                                                      
   34.4600000000000       1.592800000000000E-002  0.000000000000000E+000        
  0.000000000000000E+000                                                        
   7.74900000000000       9.974000000000000E-002  0.000000000000000E+000        
  0.000000000000000E+000                                                        
   2.28000000000000       0.310492000000000       0.000000000000000E+000        
  0.000000000000000E+000                                                        
  0.715600000000000       0.491026000000000        1.00000000000000             
  0.000000000000000E+000                                                        
  0.214000000000000       0.336337000000000       0.000000000000000E+000        
   1.00000000000000                                                             
    2    2                                                                      
   2.31400000000000        1.00000000000000       0.000000000000000E+000        
  0.645000000000000       0.000000000000000E+000   1.00000000000000             
    1    1                                                                      
   1.42800000000000        1.00000000000000                                     
          1.00000000    1    3    1    1    1                                   
H #3  -2.278727265794892   1.857603370880087   0.029898652181470                
    5    3                                                                      
   33.8700000000000       6.068000000000000E-003  0.000000000000000E+000        
  0.000000000000000E+000                                                        
   5.09500000000000       4.530800000000000E-002  0.000000000000000E+000        
  0.000000000000000E+000                                                        
   1.15900000000000       0.202822000000000       0.000000000000000E+000        
  0.000000000000000E+000                                                        
  0.325800000000000       0.503903000000000        1.00000000000000             
  0.000000000000000E+000                                                        
  0.102700000000000       0.383421000000000       0.000000000000000E+000        
   1.00000000000000                                                             
    2    2                                                                      
   1.40700000000000        1.00000000000000       0.000000000000000E+000        
  0.388000000000000       0.000000000000000E+000   1.00000000000000             
    1    1                                                                      
   1.05700000000000        1.00000000000000                                     
          1.00000000    1    3    1    1    1                                   
H #4  -2.009265528337717  -1.101585353773138   1.657111873144476                
    5    3                                                                      
   33.8700000000000       6.068000000000000E-003  0.000000000000000E+000        
  0.000000000000000E+000                                                        
   5.09500000000000       4.530800000000000E-002  0.000000000000000E+000        
  0.000000000000000E+000                                                        
   1.15900000000000       0.202822000000000       0.000000000000000E+000        
  0.000000000000000E+000                                                        
  0.325800000000000       0.503903000000000        1.00000000000000             
  0.000000000000000E+000                                                        
  0.102700000000000       0.383421000000000       0.000000000000000E+000        
   1.00000000000000                                                             
    2    2                                                                      
   1.40700000000000        1.00000000000000       0.000000000000000E+000        
  0.388000000000000       0.000000000000000E+000   1.00000000000000             
    1    1                                                                      
   1.05700000000000        1.00000000000000                                     
          1.00000000    1    3    1    1    1                                   
H #5  -2.014376029414687  -1.011250544578447  -1.707527871616221                
    5    3                                                                      
   33.8700000000000       6.068000000000000E-003  0.000000000000000E+000        
  0.000000000000000E+000                                                        
   5.09500000000000       4.530800000000000E-002  0.000000000000000E+000        
  0.000000000000000E+000                                                        
   1.15900000000000       0.202822000000000       0.000000000000000E+000        
  0.000000000000000E+000                                                        
  0.325800000000000       0.503903000000000        1.00000000000000             
  0.000000000000000E+000                                                        
  0.102700000000000       0.383421000000000       0.000000000000000E+000        
   1.00000000000000                                                             
    2    2                                                                      
   1.40700000000000        1.00000000000000       0.000000000000000E+000        
  0.388000000000000       0.000000000000000E+000   1.00000000000000             
    1    1                                                                      
   1.05700000000000        1.00000000000000                                     
          1.00000000    1    3    1    1    1                                   
H #6   1.944301709539365  -1.591846718288748  -0.025212116206719                
    5    3                                                                      
   33.8700000000000       6.068000000000000E-003  0.000000000000000E+000        
  0.000000000000000E+000                                                        
   5.09500000000000       4.530800000000000E-002  0.000000000000000E+000        
  0.000000000000000E+000                                                        
   1.15900000000000       0.202822000000000       0.000000000000000E+000        
  0.000000000000000E+000                                                        
  0.325800000000000       0.503903000000000        1.00000000000000             
  0.000000000000000E+000                                                        
  0.102700000000000       0.383421000000000       0.000000000000000E+000        
   1.00000000000000                                                             
    2    2                                                                      
   1.40700000000000        1.00000000000000       0.000000000000000E+000        
  0.388000000000000       0.000000000000000E+000   1.00000000000000             
    1    1                                                                      
   1.05700000000000        1.00000000000000                                     
FINISH                                                                          
 
********************************************************************************
 One- and two-electron integrals over symmetry-adapted AOs are calculated.

  Spherical harmonics are used.
  
  Integrals less than  0.10E-13 are neglected.

  Nuclear repulsion energy :   40.0899750454 a.u.
  required memory for a1 array                5020257  words 
  required memory for a2 array                2070308  words 
 @GETMEM-I,  Allocated      69 MB of main memory.
  @MOLECU-I, One electron integrals (CPU/WALL):        0.03/       0.03 seconds.
  @TWOEL-I,   22813661 integrals of symmetry type  I I I I
  @TWOEL-I, Total number of 2-e integrals   22813661.
  @MOLECU-I, Two electron integrals (CPU/WALL):       28.63/       8.75 seconds.
  @CHECKOUT-I, Total execution time (CPU/WALL):       28.72/       8.86 seconds.
--executable xvmol finished with status     0 in        9.71 seconds (walltime).
 --invoking executable--
/opt/vulcan/opt/vulcan/linux-x86_64/intel-13.0.0/cfour-2.0-yhj426etc3g7hslvbmpgvdymp2w76rob/bin/xvmol2ja
 @GETMEM-I,  Allocated    6675 MB of main memory.
  @CHECKOUT-I, Total execution time (CPU/WALL):        0.01/       0.01 seconds.
--executable xvmol2ja finished with status     0 in        0.22 seconds (walltime).
 --invoking executable--
/opt/vulcan/opt/vulcan/linux-x86_64/intel-13.0.0/cfour-2.0-yhj426etc3g7hslvbmpgvdymp2w76rob/bin/xvscf
  There are  116 functions in the AO basis.

  There are 1 irreducible representations.

       Irrep        # of functions
         1                116


  Parameters for SCF calculation: 
        SCF reference function:  RHF  
  Maximum number of iterations:  150
     Full symmetry point group: C1  
     Computational point group: C1  
        Initial density matrix: MOREAD                 
     SCF convergence tolerance: 10**(- 9)
  DIIS convergence acceleration:  ON
          Latest start for DIIS:   8
                     DIIS order:   6

  Memory information:     709913 words required.
  Fock matrices are constructed from AO integral file.
 @GETMEM-I,  Allocated       5 MB of main memory.
  Initialization and symmetry analysis required      0.001 seconds.

  @INITGES-I, Occupancies from core Hamiltonian:

          Alpha population by irrep:   9
           Beta population by irrep:   9


 read in density matrix from initden.dat
 unsymmetric error:  0.000000000000000E+000
 total no. of electrons in initial guess :   15.8211923853440     
  --------------------------------------------------------------------
  Iteration         Total Energy            Largest Density Difference
  --------------------------------------------------------------------
       0          -112.480017087054279              0.0000000000D+00
       1          -114.626433954956241              0.1663411294D+01
       2          -114.994364939797805              0.9856082167D+00
       3          -115.062833612458860              0.4560230975D+00
       4          -115.079756434027047              0.2317673177D+00
       5          -115.086600889617415              0.7530153450D-01
       6          -115.086640097248733              0.7806629884D-02
       7          -115.086643123958140              0.2196409179D-02
       8          -115.086643250473429              0.5106271513D-03
       9          -115.086643257135904              0.8975855034D-04
      10          -115.086643257329769              0.1131690739D-04
      11          -115.086643257347646              0.4051179331D-05
      12          -115.086643257349351              0.8436659594D-06
      13          -115.086643257348840              0.2478796142D-06
      14          -115.086643257349095              0.1724899831D-06
      15          -115.086643257349465              0.5993428717D-07
      16          -115.086643257349692              0.1382933571D-07
      17          -115.086643257349550              0.2841825569D-08

  SCF has converged.

 Density matrix saved to file den.dat
 total electron number:   18.0000000000001     
     E(SCF)=      -115.086643257349863              0.7988548711D-09

  Eigenvector printing suppressed.

 @PUTMOS-I, Writing converged MOs to NEWMOS. 
 @PUTMOS-I, Symmetry   1 Full Blocks 29 Partial Blocksize   0
  @DMPJOB-I, Rotating orbitals to semicanonical basis.
             *** Eigenvalues correspond to new basis. ***



 
  ORBITAL EIGENVALUES (ALPHA)  (1H = 27.2113838 eV)

       MO #        E(hartree)               E(eV)           FULLSYM    COMPSYM
       ----   --------------------   --------------------   -------   ---------
    1     1         -20.5524298203        -559.2600562651       A         A (1)
    2     2         -11.2731774540        -306.7587585676       A         A (1)
    3     3          -1.3489586374         -36.7070312383       A         A (1)
    4     4          -0.9194542209         -25.0196217099       A         A (1)
    5     5          -0.6809691866         -18.5301139069       A         A (1)
    6     6          -0.6168623205         -16.7856773666       A         A (1)
    7     7          -0.5933036406         -16.1446130858       A         A (1)
    8     8          -0.4988535767         -13.5744961441       A         A (1)
    9     9          -0.4465177655         -12.1503663003       A         A (1)
  +++++++++++++++++++++++++++++++++++++++++++++++++++++++++++++++++++++++++++++
   10    10           0.1368687086           3.7243869634       A         A (1)
   11    11           0.1765669203           4.8046302391       A         A (1)
   12    12           0.2190897554           5.9617354257       A         A (1)
   13    13           0.2249262724           6.1205551301       A         A (1)
   14    14           0.2872277700           7.8158650929       A         A (1)
   15    15           0.3956702407          10.7667347850       A         A (1)
   16    16           0.3993941899          10.8680685976       A         A (1)
   17    17           0.5414740355          14.7342578096       A         A (1)
   18    18           0.5702774167          15.5180376704       A         A (1)
   19    19           0.6226065369          16.9419854436       A         A (1)
   20    20           0.6227982160          16.9472012973       A         A (1)
   21    21           0.6320304190          17.1984223184       A         A (1)
   22    22           0.6845509966          18.6275799121       A         A (1)
   23    23           0.7154341588          19.4679534930       A         A (1)
   24    24           0.7218554776          19.6426864628       A         A (1)
   25    25           0.8287410842          22.5511917296       A         A (1)
   26    26           0.8615795524          23.4447718925       A         A (1)
   27    27           0.8706492713          23.6915714937       A         A (1)
   28    28           0.9266957535          25.2166738319       A         A (1)
   29    29           1.0658348828          29.0028420848       A         A (1)
   30    30           1.0930050905          29.7421810343       A         A (1)
   31    31           1.1740580415          31.9477439927       A         A (1)
   32    32           1.1839388351          32.2166140611       A         A (1)
   33    33           1.2499256447          34.0122064651       A         A (1)
   34    34           1.2793689985          34.8134008653       A         A (1)
   35    35           1.2903321511          35.1117234174       A         A (1)
   36    36           1.3811143255          37.5820320093       A         A (1)
   37    37           1.4475672759          39.3903087502       A         A (1)
   38    38           1.4944873494          40.6670688778       A         A (1)
   39    39           1.5208134633          41.3834388672       A         A (1)
   40    40           1.5377937116          41.8454949214       A         A (1)
   41    41           1.5493767845          42.1606863647       A         A (1)
   42    42           1.6235527180          44.1791161613       A         A (1)
   43    43           1.7606373809          47.9093795383       A         A (1)
   44    44           2.0814434145          56.6389556497       A         A (1)
   45    45           2.1679391218          58.9926235399       A         A (1)
   46    46           2.1854587082          59.4693557312       A         A (1)
   47    47           2.3111361476          62.8892127707       A         A (1)
   48    48           2.3345113689          63.5252848906       A         A (1)
   49    49           2.4908630152          67.7798295495       A         A (1)
   50    50           2.5185976483          68.5345272942       A         A (1)
   51    51           2.5862560136          70.3756050424       A         A (1)
   52    52           2.8055606656          76.3431881005       A         A (1)
   53    53           2.9319585876          79.7826504693       A         A (1)
   54    54           3.0518237601          83.0443476859       A         A (1)
   55    55           3.1029690340          84.4360813634       A         A (1)
   56    56           3.1139483414          84.7348435125       A         A (1)
   57    57           3.1683802584          86.2160112965       A         A (1)
   58    58           3.1917432015          86.8517493097       A         A (1)
   59    59           3.2389237257          88.1355966629       A         A (1)
   60    60           3.3028165816          89.8742096865       A         A (1)
   61    61           3.3040367400          89.9074118863       A         A (1)
   62    62           3.3519444972          91.2110482557       A         A (1)
   63    63           3.3818570725          92.0250108234       A         A (1)
   64    64           3.5065414309          95.4178447560       A         A (1)
   65    65           3.6026073163          98.0319304350       A         A (1)
   66    66           3.6200887589          98.5076246784       A         A (1)
   67    67           3.6792649055         100.1178895178       A         A (1)
   68    68           3.6957816956         100.5673342319       A         A (1)
   69    69           3.7196411978         101.2165843042       A         A (1)
   70    70           3.7638031431         102.4182919471       A         A (1)
   71    71           3.8059600474         103.5654396515       A         A (1)
   72    72           3.8439573810         104.5993996799       A         A (1)
   73    73           3.8923549511         105.9163645368       A         A (1)
   74    74           4.0225321976         109.4586675561       A         A (1)
   75    75           4.0323977829         109.7271237824       A         A (1)
   76    76           4.1129062190         111.9178697396       A         A (1)
   77    77           4.1386072608         112.6172306522       A         A (1)
   78    78           4.1456854541         112.8098380874       A         A (1)
   79    79           4.2270206253         115.0230806490       A         A (1)
   80    80           4.2509824763         115.6751157728       A         A (1)
   81    81           4.2638788015         116.0260426273       A         A (1)
   82    82           4.3847878780         119.3161459163       A         A (1)
   83    83           4.4154136670         120.1495160163       A         A (1)
   84    84           4.4671783633         121.5581050350       A         A (1)
   85    85           4.5281037269         123.2159684877       A         A (1)
   86    86           4.5701581209         124.3603267439       A         A (1)
   87    87           4.7191736790         128.4152462904       A         A (1)
   88    88           4.8031061628         130.6991653232       A         A (1)
   89    89           4.9428547095         134.5019166657       A         A (1)
   90    90           5.0040193634         136.1662915386       A         A (1)
   91    91           5.0216637264         136.6464190731       A         A (1)
   92    92           5.2158016332         141.9291801677       A         A (1)
   93    93           5.2290260060         142.2890336523       A         A (1)
   94    94           5.2851908480         143.8173567255       A         A (1)
   95    95           5.2989009938         144.1904287647       A         A (1)
   96    96           5.4186864775         147.4499575363       A         A (1)
   97    97           5.5152950488         150.0788104505       A         A (1)
   98    98           5.5194671673         150.1923395680       A         A (1)
   99    99           5.5655944735         151.4475274031       A         A (1)
  100   100           5.7815847097         157.3249206209       A         A (1)
  101   101           5.9619136977         162.2319219275       A         A (1)
  102   102           6.1779855453         168.1115359054       A         A (1)
  103   103           6.2232822880         169.3441229559       A         A (1)
  104   104           6.2284865359         169.4857377444       A         A (1)
  105   105           6.3658914980         173.2247169068       A         A (1)
  106   106           6.6127257810         179.9414193192       A         A (1)
  107   107           6.9507740996         189.1401818676       A         A (1)
  108   108           7.1062723857         193.3715054149       A         A (1)
  109   109           7.1230436527         193.8278747973       A         A (1)
  110   110           7.2439698355         197.1184435701       A         A (1)
  111   111           7.3460967970         199.8974595197       A         A (1)
  112   112           7.4138610555         201.7414187668       A         A (1)
  113   113           7.6063745820         206.9799782271       A         A (1)
  114   114           7.8626909165         213.9547003831       A         A (1)
  115   115          11.9493370736         325.1579974994       A         A (1)
  116   116          13.5891305816         369.7790480295       A         A (1)


  VSCF finished.

  @CHECKOUT-I, Total execution time (CPU/WALL):       12.70/       6.19 seconds.
--executable xvscf finished with status     0 in        6.23 seconds (walltime).
 --invoking executable--
/opt/vulcan/opt/vulcan/linux-x86_64/intel-13.0.0/cfour-2.0-yhj426etc3g7hslvbmpgvdymp2w76rob/bin/xvtran
 @GETMEM-I,  Allocated    6675 MB of main memory.
  Full RHF integral transformation
  Transformation of IIII integrals :
  1 pass through the AO integral file was required.
    22813661 AO integrals were read.
    23028291 MO integrals were written to HF2.
  Summary of active molecular orbitals: 
------------------------------------------------------------------------
 
  Index      Eigenvalue    Symmetry    Index      Eigenvalue    Symmetry
------------------------------------------------------------------------
     1       -20.5524298        1        59         3.2389237        1
     2       -11.2731775        1        60         3.3028166        1
     3        -1.3489586        1        61         3.3040367        1
     4        -0.9194542        1        62         3.3519445        1
     5        -0.6809692        1        63         3.3818571        1
     6        -0.6168623        1        64         3.5065414        1
     7        -0.5933036        1        65         3.6026073        1
     8        -0.4988536        1        66         3.6200888        1
     9        -0.4465178        1        67         3.6792649        1
    10         0.1368687        1        68         3.6957817        1
    11         0.1765669        1        69         3.7196412        1
    12         0.2190898        1        70         3.7638031        1
    13         0.2249263        1        71         3.8059600        1
    14         0.2872278        1        72         3.8439574        1
    15         0.3956702        1        73         3.8923550        1
    16         0.3993942        1        74         4.0225322        1
    17         0.5414740        1        75         4.0323978        1
    18         0.5702774        1        76         4.1129062        1
    19         0.6226065        1        77         4.1386073        1
    20         0.6227982        1        78         4.1456855        1
    21         0.6320304        1        79         4.2270206        1
    22         0.6845510        1        80         4.2509825        1
    23         0.7154342        1        81         4.2638788        1
    24         0.7218555        1        82         4.3847879        1
    25         0.8287411        1        83         4.4154137        1
    26         0.8615796        1        84         4.4671784        1
    27         0.8706493        1        85         4.5281037        1
    28         0.9266958        1        86         4.5701581        1
    29         1.0658349        1        87         4.7191737        1
    30         1.0930051        1        88         4.8031062        1
    31         1.1740580        1        89         4.9428547        1
    32         1.1839388        1        90         5.0040194        1
    33         1.2499256        1        91         5.0216637        1
    34         1.2793690        1        92         5.2158016        1
    35         1.2903322        1        93         5.2290260        1
    36         1.3811143        1        94         5.2851908        1
    37         1.4475673        1        95         5.2989010        1
    38         1.4944873        1        96         5.4186865        1
    39         1.5208135        1        97         5.5152950        1
    40         1.5377937        1        98         5.5194672        1
    41         1.5493768        1        99         5.5655945        1
    42         1.6235527        1       100         5.7815847        1
    43         1.7606374        1       101         5.9619137        1
    44         2.0814434        1       102         6.1779855        1
    45         2.1679391        1       103         6.2232823        1
    46         2.1854587        1       104         6.2284865        1
    47         2.3111361        1       105         6.3658915        1
    48         2.3345114        1       106         6.6127258        1
    49         2.4908630        1       107         6.9507741        1
    50         2.5185976        1       108         7.1062724        1
    51         2.5862560        1       109         7.1230437        1
    52         2.8055607        1       110         7.2439698        1
    53         2.9319586        1       111         7.3460968        1
    54         3.0518238        1       112         7.4138611        1
    55         3.1029690        1       113         7.6063746        1
    56         3.1139483        1       114         7.8626909        1
    57         3.1683803        1       115        11.9493371        1
    58         3.1917432        1       116        13.5891306        1
------------------------------------------------------------------------
  @CHECKOUT-I, Total execution time (CPU/WALL):       84.61/      77.57 seconds.
--executable xvtran finished with status     0 in       77.65 seconds (walltime).
 --invoking executable--
/opt/vulcan/opt/vulcan/linux-x86_64/intel-13.0.0/cfour-2.0-yhj426etc3g7hslvbmpgvdymp2w76rob/bin/xintprc
 @GETMEM-I,  Allocated    6675 MB of main memory.
  @GMOIAA-I, Processing MO integrals for spin case AA.
  @GMOIAA-I, Generation of integral list completed.
                      TYPE                NUMBER
                      ----               --------
                      PPPP              16695531
                      PPPH               5564214
                      PPHH                464166
                      PHPH                260010
                      PHHH                 43335
                      HHHH                  1035

                     TOTAL              23028291

  @FORMT2-I, Second-order MP correlation energies:
            ------------------------------------------------
            E(SCF)                  =   -115.086643257350 a.u.
            E2(AA)                  =     -0.051800046722 a.u.
            E2(AB)                  =     -0.354409629403 a.u.
            E2(TOT)                 =     -0.458009722847 a.u.
            Total MP2 energy        =   -115.544652980197 a.u.
            ------------------------------------------------
   Largest T2 amplitudes for spin case AB:
       _       _                 _       _                 _       _
   i   j   a   b             i   j   a   b             i   j   a   b
-----------------------------------------------------------------------------
[  9   9  24  24]-0.02172 [  5   5  17  17]-0.01843 [  8   8  22  22]-0.01771
[  7   7  18  18]-0.01595 [  7   7  17  17]-0.01572 [  6   6  24  24]-0.01390
[  8   9  22  24] 0.01308 [  9   8  24  22] 0.01308 [  8   8  17  17]-0.01306
[  6   6  12  12]-0.01304 [  6   6  20  20]-0.01282 [  8   8  18  18]-0.01212
[  5   5  18  18]-0.01196 [  5   5  22  22]-0.01195 [  7   7  25  25]-0.01133
-----------------------------------------------------------------------------
   Norm of T2AB vector (   927369 symmetry allowed elements):  0.2935193602.
-----------------------------------------------------------------------------
  @CHECKOUT-I, Total execution time (CPU/WALL):        2.74/       2.09 seconds.
--executable xintprc finished with status     0 in        2.29 seconds (walltime).
  calling xvcc 
 --invoking executable--
/opt/vulcan/opt/vulcan/linux-x86_64/intel-13.0.0/cfour-2.0-yhj426etc3g7hslvbmpgvdymp2w76rob/bin/xvcc
 @GETMEM-I,  Allocated    6675 MB of main memory.
   CCSD(T) energy will be calculated.
   The total correlation energy is -0.458009722847 a.u.
   The total correlation energy is -0.465357658882 a.u.
  Convergence information after     1 iterations: 
  Largest element of residual vector : -0.71694647E-02.
  Largest element of DIIS residual   : -0.71694647E-02.
   The total correlation energy is -0.475095577816 a.u.
  Convergence information after     2 iterations: 
  Largest element of residual vector : -0.15010025E-02.
  Largest element of DIIS residual   : -0.16013439E-02.
   The total correlation energy is -0.475960495757 a.u.
  Convergence information after     3 iterations: 
  Largest element of residual vector :  0.83278187E-03.
  Largest element of DIIS residual   : -0.54621346E-03.
   The total correlation energy is -0.476884883120 a.u.
  Convergence information after     4 iterations: 
  Largest element of residual vector :  0.18647068E-03.
  Largest element of DIIS residual   :  0.16867454E-03.
   The total correlation energy is -0.476951518430 a.u.
  Convergence information after     5 iterations: 
  Largest element of residual vector :  0.11048469E-03.
  Largest element of DIIS residual   : -0.67145535E-04.
   The total correlation energy is -0.476956387557 a.u.
  Convergence information after     6 iterations: 
  Largest element of residual vector : -0.51517525E-04.
  Largest element of DIIS residual   : -0.42666891E-04.
   The total correlation energy is -0.476957502838 a.u.
  Convergence information after     7 iterations: 
  Largest element of residual vector : -0.21320732E-04.
  Largest element of DIIS residual   : -0.12151580E-04.
   The total correlation energy is -0.476957369679 a.u.
  Convergence information after     8 iterations: 
  Largest element of residual vector : -0.10544461E-04.
  Largest element of DIIS residual   : -0.57285439E-05.
   The total correlation energy is -0.476957351677 a.u.
  Convergence information after     9 iterations: 
  Largest element of residual vector : -0.29296412E-05.
  Largest element of DIIS residual   : -0.13995145E-05.
   The total correlation energy is -0.476957561560 a.u.
  Convergence information after    10 iterations: 
  Largest element of residual vector : -0.10429970E-05.
  Largest element of DIIS residual   : -0.36980159E-06.
   The total correlation energy is -0.476957630269 a.u.
  Convergence information after    11 iterations: 
  Largest element of residual vector : -0.25253641E-06.
  Largest element of DIIS residual   :  0.17705124E-06.
  Amplitude equations converged in    11iterations.
   The total correlation energy is -0.476957644072 a.u.
   The CC iterations have converged.

   Largest T1 amplitudes for spin case AA:
   i       a                 i       a                 i       a    
-----------------------------------------------------------------------------
[  6      24    ]-0.00806 [  8      18    ] 0.00695 [  6      15    ] 0.00693
[  9      24    ] 0.00681 [  7      13    ]-0.00578 [  6      20    ] 0.00545
[  6      12    ] 0.00544 [  7      17    ] 0.00528 [  5      14    ]-0.00502
[  7      16    ]-0.00479 [  7      22    ]-0.00463 [  6      19    ]-0.00442
[  8      11    ] 0.00440 [  9      15    ]-0.00432 [  7      14    ]-0.00431
-----------------------------------------------------------------------------
   Norm of T1AA vector (      963 symmetry allowed elements):  0.0320963277.
-----------------------------------------------------------------------------
   Largest T2 amplitudes for spin case AB:
       _       _                 _       _                 _       _
   i   j   a   b             i   j   a   b             i   j   a   b
-----------------------------------------------------------------------------
[  9   9  24  24]-0.02269 [  5   5  17  17]-0.02089 [  8   8  22  22]-0.01941
[  7   7  18  18]-0.01766 [  7   7  17  17]-0.01754 [  6   6  20  20]-0.01535
[  8   8  17  17]-0.01506 [  6   6  24  24]-0.01482 [  8   8  18  18]-0.01469
[  6   6  12  12]-0.01444 [  5   5  22  22]-0.01316 [  6   6  21  21]-0.01316
[  5   5  18  18]-0.01313 [  9   8  24  22] 0.01261 [  8   9  22  24] 0.01261
-----------------------------------------------------------------------------
   Norm of T2AB vector (   927369 symmetry allowed elements):  0.3269928408.
-----------------------------------------------------------------------------
       Summary of iterative solution of CC equations 
      -----------------------------------------------------------
                       Correlation           Total
       Iteration         Energy              Energy
      -----------------------------------------------------------
            0        -0.458009722847    -115.544652980197  DIIS 
            1        -0.465357658882    -115.552000916232  DIIS 
            2        -0.475095577816    -115.561738835166  DIIS 
            3        -0.475960495757    -115.562603753107  DIIS 
            4        -0.476884883120    -115.563528140470  DIIS 
            5        -0.476951518430    -115.563594775780  DIIS 
            6        -0.476956387557    -115.563599644907  DIIS 
            7        -0.476957502838    -115.563600760188  DIIS 
            8        -0.476957369679    -115.563600627029  DIIS 
            9        -0.476957351677    -115.563600609027  DIIS 
           10        -0.476957561560    -115.563600818910  DIIS 
           11        -0.476957644072    -115.563600901422  DIIS 
      -----------------------------------------------------------
      A miracle has come to pass. The CC iterations have converged.
        E(CCSD)           =    -115.563600901422
        E(CCSD + T(CCSD)) =    -115.579291616396
        E(CCSD(T))        =    -115.578811946173
  @CHECKOUT-I, Total execution time (CPU/WALL):      322.31/      84.48 seconds.
--executable xvcc finished with status     0 in       84.66 seconds (walltime).
 --invoking executable--
/opt/vulcan/opt/vulcan/linux-x86_64/intel-13.0.0/cfour-2.0-yhj426etc3g7hslvbmpgvdymp2w76rob/bin/xlambda
 @GETMEM-I,  Allocated    6675 MB of main memory.
  The Lambda equations are solved for CCSD(T).
  Initial lambda amplitudes: 
  Convergence information after     1 iterations: 
  Largest element of residual vector :  0.36985338E-02.
  Largest element of DIIS residual   :  0.36985338E-02.
  Convergence information after     2 iterations: 
  Largest element of residual vector :  0.12884503E-02.
  Largest element of DIIS residual   : -0.10530862E-02.
  Convergence information after     3 iterations: 
  Largest element of residual vector : -0.34169951E-03.
  Largest element of DIIS residual   : -0.17130138E-03.
  Convergence information after     4 iterations: 
  Largest element of residual vector : -0.20633732E-03.
  Largest element of DIIS residual   : -0.15725415E-03.
  Convergence information after     5 iterations: 
  Largest element of residual vector : -0.68755656E-04.
  Largest element of DIIS residual   :  0.31810720E-04.
  Convergence information after     6 iterations: 
  Largest element of residual vector : -0.26262577E-04.
  Largest element of DIIS residual   : -0.16784631E-04.
  Convergence information after     7 iterations: 
  Largest element of residual vector :  0.83568573E-05.
  Largest element of DIIS residual   : -0.54333510E-05.
  Convergence information after     8 iterations: 
  Largest element of residual vector : -0.30182953E-05.
  Largest element of DIIS residual   : -0.15949024E-05.
  Convergence information after     9 iterations: 
  Largest element of residual vector : -0.12451873E-05.
  Largest element of DIIS residual   : -0.64469598E-06.
  Convergence information after    10 iterations: 
  Largest element of residual vector : -0.40254727E-06.
  Largest element of DIIS residual   :  0.21608412E-06.
  Convergence information after    11 iterations: 
  Largest element of residual vector :  0.15153475E-06.
  Largest element of DIIS residual   :  0.91719013E-07.
  Amplitude equations converged in    11 iterations.
      The lambda equations have converged.
  @CHECKOUT-I, Total execution time (CPU/WALL):       59.91/      17.40 seconds.
--executable xlambda finished with status     0 in       17.45 seconds (walltime).
 --invoking executable--
/opt/vulcan/opt/vulcan/linux-x86_64/intel-13.0.0/cfour-2.0-yhj426etc3g7hslvbmpgvdymp2w76rob/bin/xdens
 @GETMEM-I,  Allocated    6675 MB of main memory.
  CCSD(T) density and intermediates are calculated.
  The perturbed orbitals are chosen canonical.
  The iterative expansion of D(ai) converged after  20 iterations.
  ----------------------------------------------------------------------
                 Natural orbital occupation numbers
  ----------------------------------------------------------------------
  1.99952  1.99904  1.98005  1.96879  1.96328  1.95857  1.95293  1.95235
  1.94622  0.03845  0.02971  0.02707  0.02454  0.02049  0.01806  0.01405
  0.00970  0.00955  0.00913  0.00872  0.00854  0.00681  0.00673  0.00554
  0.00391  0.00384  0.00268  0.00256  0.00205  0.00178  0.00175  0.00149
  0.00148  0.00137  0.00125  0.00107  0.00105  0.00097  0.00094  0.00091
  0.00088  0.00073  0.00070  0.00069  0.00058  0.00053  0.00052  0.00049
  0.00048  0.00046  0.00045  0.00043  0.00042  0.00041  0.00034  0.00034
  0.00032  0.00032  0.00025  0.00022  0.00018  0.00018  0.00017  0.00017
  0.00016  0.00015  0.00015  0.00014  0.00012  0.00012  0.00012  0.00011
  0.00011  0.00010  0.00009  0.00009  0.00009  0.00008  0.00008  0.00008
  0.00007  0.00006  0.00006  0.00006  0.00006  0.00005  0.00005  0.00005
  0.00004  0.00004  0.00004  0.00004  0.00003  0.00003  0.00003  0.00003
  0.00002  0.00002  0.00002  0.00002  0.00002  0.00001  0.00001  0.00001
  0.00001  0.00001  0.00001  0.00001  0.00001  0.00001  0.00001  0.00001
  0.00001  0.00001  0.00000  0.00000
  Trace of density matrix :  18.0000000000.
  ----------------------------------------------------------------------
  Density calculation successfully completed.
  @CHECKOUT-I, Total execution time (CPU/WALL):       19.04/       8.43 seconds.
--executable xdens finished with status     0 in        8.64 seconds (walltime).
 --invoking executable--
/opt/vulcan/opt/vulcan/linux-x86_64/intel-13.0.0/cfour-2.0-yhj426etc3g7hslvbmpgvdymp2w76rob/bin/xanti
 @GETMEM-I,  Allocated    6675 MB of main memory.
 CCSD(T) MO gammas will be sorted to Mulliken order.
  @CHECKOUT-I, Total execution time (CPU/WALL):        3.09/       2.49 seconds.
--executable xanti finished with status     0 in        2.55 seconds (walltime).
 --invoking executable--
/opt/vulcan/opt/vulcan/linux-x86_64/intel-13.0.0/cfour-2.0-yhj426etc3g7hslvbmpgvdymp2w76rob/bin/xbcktrn
 @GETMEM-I,  Allocated    6675 MB of main memory.
  @CHECKOUT-I, Total execution time (CPU/WALL):       11.46/       3.05 seconds.
--executable xbcktrn finished with status     0 in        3.16 seconds (walltime).
 --invoking executable--
/opt/vulcan/opt/vulcan/linux-x86_64/intel-13.0.0/cfour-2.0-yhj426etc3g7hslvbmpgvdymp2w76rob/bin/xvdint
 @GETMEM-I,  Allocated    6675 MB of main memory.
 One- and two-electron integral derivatives are calculated
 for RHF-CC/MBPT gradients and dipole moments.
 Spherical gaussians are used.

                     Kinetic energy integral gradient
                     --------------------------------

 C #1       0.0855847214           -0.0215292996           -0.0063388861
 O #2      -0.2636180074           -0.6402154961           -0.0091132213
 H #3       0.2012460845           -0.3643483856           -0.0042287064
 H #4       0.1230189669            0.2120101505           -0.3143043664
 H #5       0.1246599102            0.1928060849            0.3246845039
 H #6      -0.2708916756            0.6212769458            0.0093006762



                   Nuclear attraction integral gradient
                   ------------------------------------

 C #1     -10.6001526504            0.0016136268            0.0763691013
 O #2      14.1813496186            6.9408901239            0.0928820007
 H #3      -2.9149323119            4.3448579162            0.0485939396
 H #4      -2.0178709293           -2.5466238342            3.7665844473
 H #5      -2.0370485760           -2.3127977278           -3.8875885366
 H #6       3.3886548489           -6.4279401048           -0.0968409523



                      Reorthonormalization gradient
                      -----------------------------

 C #1       0.1115139562            0.0107503101           -0.0022928651
 O #2      -0.1407485677           -0.2832418067           -0.0037768036
 H #3       0.0714078334           -0.1341357792           -0.0010787303
 H #4       0.0353210675            0.0730825893           -0.1050963280
 H #5       0.0360408470            0.0656289445            0.1082914294
 H #6      -0.1135351365            0.2679157420            0.0039532976



                Electronic contributions to dipole moment
                -----------------------------------------

                               au             Debye

                    x      1.80432284      4.58613202
                    y      0.35928359      0.91320795
                    z      0.01350021      0.03431412

  Conversion factor used: 1 a.u. =   2.54174691 Debye 


  Evaluation of 1e integral derivatives required    0.64 seconds.
  Evaluation of 2el integral derivatives

                      Two-electron integral gradient
                      ------------------------------

 C #1       4.8552525248           -0.0180961559           -0.0456076285
 O #2      -6.6602654560           -3.3172967870           -0.0418468036
 H #3       1.5384913895           -2.1989802507           -0.0177874737
 H #4       0.9548846424            1.2926290407           -1.8584799667
 H #5       0.9673186360            1.1662550480            1.9188001704
 H #6      -1.6556817367            3.0754891050            0.0449217020


  Evaluation of 2e integral derivatives required   71.37 seconds.

                            Molecular gradient
                            ------------------

 C #1      -0.0005971418            0.0127271192            0.0015800486
 O #2       0.0001517952            0.0016797906           -0.0001504904
 H #3      -0.0125171963            0.0069586746           -0.0009847830
 H #4       0.0036316944           -0.0048357419            0.0036661950
 H #5       0.0031532790           -0.0033887960           -0.0039402613
 H #6       0.0061775695           -0.0131410465           -0.0001707090


  Molecular gradient norm 0.259E-01

                           Total dipole moment
                           -------------------

                               au             Debye

                    x     -0.35432641     -0.90060805
                    y     -0.55669433     -1.41497610
                    z     -0.00918142     -0.02333684

  Conversion factor used: 1 a.u. =   2.54174691 Debye 


  @CHECKOUT-I, Total execution time (CPU/WALL):       72.01/      19.00 seconds.
--executable xvdint finished with status     0 in       19.04 seconds (walltime).
 --invoking executable--
/opt/vulcan/opt/vulcan/linux-x86_64/intel-13.0.0/cfour-2.0-yhj426etc3g7hslvbmpgvdymp2w76rob/bin/xjoda
 @GETREC: requested length of vector OCCUPYA0 is longer than actual
 Actual --                      1  Requested --                      8
   JODA beginning optimization cycle #  1.
  igrd and ihes are                      0                     0
  fetching hessian                    324
  @CONVQ-W, Nominally equivalent internal coordinate gradients vary by at least .22193E-03.
   Problem with gradients equivalent to parameter [  4].
  @CONVQ-W, Nominally equivalent internal coordinate gradients vary by at least .59720E-03.
   Problem with gradients equivalent to parameter [  5].
   Internal coordinate forces and energy gradients (atomic units): 
           R       dV/dR             R       dV/dR             R       dV/dR
 [R1   ]  2.69657  0.0056723 [R2   ]  2.08165  0.0116609 [A2   ]  1.96003  0.0172782
 [R3   ]  2.07453  0.0041245 [A3   ]  1.90881 -0.0099453 [D3   ] -2.11875 -0.0045047
 [R3   ]  2.07453  0.0041245 [A3   ]  1.90881 -0.0099453 [D4   ]  2.09432  0.0023301
 [R5   ]  1.83647  0.0144663 [A5   ]  1.86644  0.0023250 [D5   ] -3.14097 -0.0000619
                     0                     0                     0 ****
   Optimization cycle  1.  Updating structure with Newton-Raphson step.
  @EFOL-I, Current internal coordinate Hessian written to FCMINT.
   There are  10 independent internal coordinates which will be optimized.
   Hessian matrix in totally symmetric symmetry coordinates: 
              R1        R2        A2        R3        A3   
  R1         1.000000  0.000000  0.000000  0.000000  0.000000
  R2         0.000000  1.000000  0.000000  0.000000  0.000000
  A2         0.000000  0.000000  0.250000  0.000000  0.000000
  R3         0.000000  0.000000  0.000000  1.000000  0.000000
  A3         0.000000  0.000000  0.000000  0.000000  0.250000
  D3         0.000000  0.000000  0.000000  0.000000  0.000000
  D4         0.000000  0.000000  0.000000  0.000000  0.000000
  R5         0.000000  0.000000  0.000000  0.000000  0.000000
  A5         0.000000  0.000000  0.000000  0.000000  0.000000
  D5         0.000000  0.000000  0.000000  0.000000  0.000000
 
              D3        D4        R5        A5        D5   
  R1         0.000000  0.000000  0.000000  0.000000  0.000000
  R2         0.000000  0.000000  0.000000  0.000000  0.000000
  A2         0.000000  0.000000  0.000000  0.000000  0.000000
  R3         0.000000  0.000000  0.000000  0.000000  0.000000
  A3         0.000000  0.000000  0.000000  0.000000  0.000000
  D3         0.100000  0.000000  0.000000  0.000000  0.000000
  D4         0.000000  0.100000  0.000000  0.000000  0.000000
  R5         0.000000  0.000000  1.000000  0.000000  0.000000
  A5         0.000000  0.000000  0.000000  0.250000  0.000000
  D5         0.000000  0.000000  0.000000  0.000000  0.100000
   The eigenvectors of the Hessian matrix: 
                   1         2         3         4         5
  R1         0.000000  0.000000  0.000000  0.000000  0.000000
  R2         0.000000  0.000000  0.000000  0.000000  0.000000
  A2         0.000000  0.000000  0.000000  0.000000  0.000000
  R3         0.000000  0.000000  0.000000  0.000000  0.000000
  A3         0.000000  0.000000  0.000000  1.000000  0.000000
  D3         1.000000  0.000000  0.000000  0.000000  0.000000
  D4         0.000000  1.000000  0.000000  0.000000  0.000000
  R5         0.000000  0.000000  0.000000  0.000000  0.000000
  A5         0.000000  0.000000  0.000000  0.000000  1.000000
  D5         0.000000  0.000000  1.000000  0.000000  0.000000
 
                   6         7         8         9        10
  R1         0.000000  0.000000  0.000000  0.000000  1.000000
  R2         0.000000  1.000000  0.000000  0.000000  0.000000
  A2         1.000000  0.000000  0.000000  0.000000  0.000000
  R3         0.000000  0.000000  0.000000  1.000000  0.000000
  A3         0.000000  0.000000  0.000000  0.000000  0.000000
  D3         0.000000  0.000000  0.000000  0.000000  0.000000
  D4         0.000000  0.000000  0.000000  0.000000  0.000000
  R5         0.000000  0.000000  1.000000  0.000000  0.000000
  A5         0.000000  0.000000  0.000000  0.000000  0.000000
  D5         0.000000  0.000000  0.000000  0.000000  0.000000
   The eigenvalues of the Hessian matrix: 
     0.10000    0.10000    0.10000    0.25000    0.25000    0.25000
     1.00000    1.00000    1.00000    1.00000
   Gradients along Hessian eigenvectors: 
    -0.00450    0.00233   -0.00006   -0.01406    0.00233    0.01728
     0.01166    0.01447    0.00583    0.00567
   There are  0 negative eigenvalues.
   Summary of Optimization Cycle: 
   The maximum unscaled step is:    0.09702.
   Scale factor set to:  1.00000.
   Forces are in hartree/bohr and hartree/radian.
   Parameter values are in Angstroms and degrees.
--------------------------------------------------------------------------
  Parameter     dV/dR           Step          Rold            Rnew
--------------------------------------------------------------------------
    R1      0.0056723366   -0.0030016706    1.4269652080    1.4239635374
    R2      0.0116608735   -0.0061706672    1.1015604080    1.0953897408
    A2      0.0172781615   -3.9598629309  112.3015477730  108.3416848422
    R3      0.0041245168   -0.0021825998    1.0977920003    1.0956094005
    A3     -0.0099452649    2.2792868096  109.3669652716  111.6462520811
    D3     -0.0045046672    2.5809841961 -121.3954018697 -118.8144176736
    D4      0.0023301149   -1.3350575228  119.9955496866  118.6604921639
    R5      0.0144663249   -0.0076552479    0.9718187137    0.9641634658
    A5      0.0023250130   -0.5328537319  106.9392437608  106.4063900289
    D5     -0.0000618712    0.0354496027 -179.9645221187 -179.9290725159
--------------------------------------------------------------------------
  Minimum force:  0.000061871 / RMS force:  0.009071999
 Updating structure...
   Rotational constants (in cm-1): 
          0.7949266954             0.8242242174             4.2484334933
   Rotational constants (in MHz): 
      23831.3061339738         24709.6238690969        127364.8498039920
 ----------------------------------------------------------------
 Z-matrix   Atomic            Coordinates (in bohr)
  Symbol    Number           X              Y              Z
 ----------------------------------------------------------------
[...]
                             Z-matrix center   4:
       XX =   -0.0807428781  YY =   -0.0592094780  ZZ =    0.1399523561
       XY =    0.0692638316  XZ =   -0.1213407437  YZ =   -0.1695924601
                             Z-matrix center   5:
       XX =   -0.0807566744  YY =   -0.0588455135  ZZ =    0.1396021879
       XY =    0.0693826904  XZ =    0.1212511879  YZ =    0.1698130474
                             Z-matrix center   6:
       XX =   -0.1178207575  YY =    0.3936658735  ZZ =   -0.2758451160
       XY =   -0.2367474941  XZ =   -0.0000008619  YZ =    0.0000060351
   Electrostatic potential at atomic centers 
          Z-matrix                             Potential
           center                               [<1/r>]
              1                            -14.6875382456
              2                            -22.3407032830
              3                             -1.1257198020
              4                             -1.1263119778
              5                             -1.1263018005
              6                             -1.0162618036
  @DRVPRP-I, Properties computed from the correlated density matrix follow.
   Components of electric dipole moment 
        X =   -0.3365471063   Y =   -0.5487902265   Z =   -0.0000358716
   Components of second moment 
       XX =   51.3741215676  YY =   16.9725333764  ZZ =   15.8224842583
       XY =    0.0461672131  XZ =   -0.0000749048  YZ =    0.0000363163
   Components of electric quadrupole moment 
       XX =  -34.9766323811  YY =   16.6257793521  ZZ =   18.3508530290
       XY =   -0.0692269601  XZ =    0.0001123573  YZ =   -0.0000544744
   Components of electric octopole moment 
      XXX =    0.4607598606 YYY =    4.1701950567 ZZZ =    0.0032915556
      XXY =   -4.4505161228 XXZ =   -0.0003554570 XYY =    2.6167778720
      YYZ =   -0.0029360985 XZZ =   -3.0775377325 YZZ =    0.2803210661
      XYZ =    0.0001229895
  Relativistic correction to the energy 
      Darwin =    0.2604482880 p**4   =   -0.3267417313 Total  =   -0.0662934433
   Charge densities at atomic centers 
          Z-matrix                               Charge
           center                               Density
              1                            120.8224169837
              2                            298.3739101120
              3                              0.4387232195
              4                              0.4386353511
              5                              0.4386344789
              6                              0.4186455428
   Electric field gradient at atomic centers 
                             Z-matrix center   1:
       XX =    0.3563017888  YY =   -0.1946540653  ZZ =   -0.1616477235
       XY =    0.0155000566  XZ =    0.0000161254  YZ =    0.0000221508
                             Z-matrix center   2:
       XX =    1.3882251503  YY =    0.4947684150  ZZ =   -1.8829935652
       XY =   -0.6572598253  XZ =   -0.0000336936  YZ =   -0.0000187159
                             Z-matrix center   3:
       XX =   -0.0852251412  YY =    0.2441345314  ZZ =   -0.1589093901
       XY =   -0.1418563147  XZ =    0.0000802826  YZ =   -0.0002273400
                             Z-matrix center   4:
       XX =   -0.0812217762  YY =   -0.0584178999  ZZ =    0.1396396761
       XY =    0.0689961307  XZ =   -0.1210966455  YZ =   -0.1681861599
                             Z-matrix center   5:
       XX =   -0.0812353595  YY =   -0.0580569089  ZZ =    0.1392922684
       XY =    0.0691151485  XZ =    0.1210078435  YZ =    0.1684051664
                             Z-matrix center   6:
       XX =   -0.1211572487  YY =    0.4032185508  ZZ =   -0.2820613020
       XY =   -0.2446656500  XZ =   -0.0000009483  YZ =    0.0000066993
   Electrostatic potential at atomic centers 
          Z-matrix                             Potential
           center                               [<1/r>]
              1                            -14.7130379898
              2                            -22.3428262059
              3                             -1.1194651335
              4                             -1.1215905576
              5                             -1.1215794023
              6                             -1.0113464158
 
  Mulliken population analysis of SCF density.
   Total density is analyzed.
 
  Population analysis by orbitals.
 -------------------------------------------------------
     Z-matrix
      Center          Function          Population
 -------------------------------------------------------
         1                S              1.99960109
         1                S              1.47309468
         1                S             -0.01761345
         1                S             -0.24987656
         1                P              0.85690876
         1                P             -0.05118185
         1                P             -0.11936052
         1                P              1.26701082
         1                P             -0.08039560
         1                P             -0.15350233
         1                P              1.24872461
         1                P             -0.08664870
         1                P             -0.18487628
         1                D              0.00659384
         1                D              0.01416959
         1                D              0.00479850
         1                D              0.01984166
         1                D              0.00662517
         1                D              0.01812156
         1                D              0.00355590
         1                D              0.00755926
         1                D              0.00383039
         1                D              0.00627019
         1                D              0.00353830
         1                D              0.00603384
         1                F              0.00132776
         1                F              0.00158032
         1                F              0.00242253
         1                F              0.00093419
         1                F             -0.00002810
         1                F              0.00112322
         1                F              0.00055223
         1                F              0.00013803
         1                F              0.00098024
         1                F              0.00046727
         2                S              1.99816594
         2                S              1.81042662
         2                S             -0.00743732
         2                S             -0.04947863
         2                P              1.34623977
         2                P              0.00701703
         2                P             -0.04418612
         2                P              1.51567015
         2                P             -0.02066766
         2                P             -0.07769040
         2                P              1.82810872
         2                P             -0.00195712
         2                P              0.07291493
         2                D              0.00084916
         2                D              0.00673693
         2                D              0.00063414
         2                D              0.00494279
         2                D              0.00020165
         2                D              0.00268044
         2                D              0.00099926
         2                D              0.00603591
         2                D              0.00015026
         2                D              0.00085552
         2                D              0.00036793
         2                D              0.00271380
         2                F              0.00025448
         2                F              0.00010925
         2                F              0.00015243
         2                F              0.00021025
         2                F              0.00002503
         2                F              0.00031343
         2                F              0.00008055
         2                F              0.00002863
         2                F              0.00019648
         2                F              0.00006372
         3                S              1.39248175
         3                S             -0.21750920
         3                S             -0.29221319
         3                P              0.00143022
         3                P              0.00228559
         3                P              0.00648146
         3                P              0.00399600
         3                P              0.00090374
         3                P              0.00969344
         3                D              0.00015376
         3                D              0.00067536
         3                D              0.00004951
         3                D              0.00044532
         3                D              0.00067338
         3                D              0.00013799
         4                S              1.39686840
         4                S             -0.19801490
         4                S             -0.27850337
         4                P              0.00148669
         4                P              0.00341193
         4                P              0.00221768
         4                P              0.00738202
         4                P              0.00492921
         4                P              0.00474133
         4                D              0.00016415
         4                D              0.00018497
         4                D              0.00051291
         4                D              0.00024857
         4                D              0.00056909
         4                D              0.00040923
         5                S              1.39686786
         5                S             -0.19801893
         5                S             -0.27850060
         5                P              0.00148638
         5                P              0.00341454
         5                P              0.00222235
         5                P              0.00737960
         5                P              0.00492454
         5                P              0.00474581
         5                D              0.00016412
         5                D              0.00018548
         5                D              0.00051236
         5                D              0.00024903
         5                D              0.00056887
         5                D              0.00040904
         6                S              1.17276394
         6                S             -0.22530972
         6                S             -0.25603392
         6                P              0.00447828
         6                P              0.01698405
         6                P              0.01179413
         6                P              0.01269096
         6                P              0.00436567
         6                P              0.02990242
         6                D              0.00069109
         6                D              0.00160885
         6                D              0.00038539
         6                D              0.00149662
         6                D              0.00288977
         6                D              0.00034044
 -------------------------------------------------------
  Population analysis by atoms (atomic charges).
 -------------------------------------------------------
     Z-matrix
      Center          Function          Population
 -------------------------------------------------------
         1                               6.01232055
         2                               8.40572798
         3                               0.90968513
         4                               0.94660790
         5                               0.94661046
         6                               0.77904798
 -------------------------------------------------------
 
  Mulliken population analysis of CCSD(T) density.
   Total density is analyzed.
 
  Population analysis by orbitals.
 -------------------------------------------------------
     Z-matrix
      Center          Function          Population
 -------------------------------------------------------
         1                S              1.99554250
         1                S              1.46680494
         1                S             -0.00587095
         1                S             -0.23204325
         1                P              0.88649351
         1                P             -0.06191864
         1                P             -0.11487653
         1                P              1.28151206
         1                P             -0.08374228
         1                P             -0.14317276
         1                P              1.26709124
         1                P             -0.08871396
         1                P             -0.17182398
         1                D              0.00692203
         1                D              0.01324508
         1                D              0.00652411
         1                D              0.02203127
         1                D              0.00847793
         1                D              0.01840250
         1                D              0.00456552
         1                D              0.00864967
         1                D              0.00563884
         1                D              0.00791859
         1                D              0.00450797
         1                D              0.00706749
         1                F              0.00128930
         1                F              0.00199499
         1                F              0.00277186
         1                F              0.00123390
         1                F              0.00060871
         1                F              0.00141127
         1                F              0.00075500
         1                F              0.00064409
         1                F              0.00136889
         1                F              0.00069447
         2                S              1.99516026
         2                S              1.79323569
         2                S              0.00344009
         2                S             -0.05141180
         2                P              1.35217885
         2                P             -0.01414233
         2                P             -0.05181827
         2                P              1.51824503
         2                P             -0.03912246
         2                P             -0.08154350
         2                P              1.80958059
         2                P             -0.02582754
         2                P              0.08359760
         2                D              0.00193954
         2                D              0.00878669
         2                D              0.00229004
         2                D              0.00925188
         2                D              0.00204900
         2                D              0.00741638
         2                D              0.00211642
         2                D              0.00810282
         2                D              0.00202863
         2                D              0.00536127
         2                D              0.00162547
         2                D              0.00549491
         2                F              0.00042445
         2                F              0.00047464
         2                F              0.00051972
         2                F              0.00055844
         2                F              0.00045647
         2                F              0.00066050
         2                F              0.00025764
         2                F              0.00037297
         2                F              0.00054235
         2                F              0.00023878
         3                S              1.38328872
         3                S             -0.23463839
         3                S             -0.29191390
         3                P              0.00212117
         3                P              0.00373369
         3                P              0.00677450
         3                P              0.00166351
         3                P              0.00163688
         3                P              0.01146439
         3                D              0.00022452
         3                D              0.00083542
         3                D              0.00016384
         3                D              0.00052983
         3                D              0.00082276
         3                D              0.00019832
         4                S              1.38711285
         4                S             -0.21500917
         4                S             -0.27676170
         4                P              0.00216291
         4                P              0.00509563
         4                P              0.00286709
         4                P              0.00829400
         4                P              0.00536210
         4                P              0.00353695
         4                D              0.00025230
         4                D              0.00030599
         4                D              0.00065181
         4                D              0.00032730
         4                D              0.00069548
         4                D              0.00051778
         5                S              1.38711169
         5                S             -0.21501444
         5                S             -0.27675918
         5                P              0.00216261
         5                P              0.00509877
         5                P              0.00287144
         5                P              0.00828774
         5                P              0.00535777
         5                P              0.00354559
         5                D              0.00025227
         5                D              0.00030655
         5                D              0.00065122
         5                D              0.00032782
         5                D              0.00069523
         5                D              0.00051756
         6                S              1.18001925
         6                S             -0.23166566
         6                S             -0.25460021
         6                P              0.00476175
         6                P              0.01823047
         6                P              0.01124151
         6                P              0.01191825
         6                P              0.00482981
         6                P              0.03569633
         6                D              0.00069798
         6                D              0.00150894
         6                D              0.00050299
         6                D              0.00139390
         6                D              0.00280777
         6                D              0.00038105
 -------------------------------------------------------
  Population analysis by atoms (atomic charges).
 -------------------------------------------------------
     Z-matrix
      Center          Function          Population
 -------------------------------------------------------
         1                               6.12200542
         2                               8.35254124
         3                               0.88690527
         4                               0.92541131
         5                               0.92541264
         6                               0.78772413
 -------------------------------------------------------
  @CHECKOUT-I, Total execution time (CPU/WALL):        0.25/       0.07 seconds.
--executable xprops finished with status     0 in        0.22 seconds (walltime).
  The final electronic energy is      -115.580781666053142 a.u. 
  This computation required                         2323.11 seconds (walltime).
