
    -----------------------------------------------------------------------
          Psi4: An Open-Source Ab Initio Electronic Structure Package
                               Psi4 1.4a2.dev629 

                         Git: Rev {master} 2938fc2 dirty


    D. G. A. Smith, L. A. Burns, A. C. Simmonett, R. M. Parrish,
    M. C. Schieber, R. Galvelis, P. Kraus, H. Kruse, R. Di Remigio,
    A. Alenaizan, A. M. James, S. Lehtola, J. P. Misiewicz, M. Scheurer,
    R. A. Shaw, J. B. Schriber, Y. Xie, Z. L. Glick, D. A. Sirianni,
    J. S. O'Brien, J. M. Waldrop, A. Kumar, E. G. Hohenstein,
    B. P. Pritchard, B. R. Brooks, H. F. Schaefer III, A. Yu. Sokolov,
    K. Patkowski, A. E. DePrince III, U. Bozkaya, R. A. King,
    F. A. Evangelista, J. M. Turney, T. D. Crawford, C. D. Sherrill,
    J. Chem. Phys. 152(18) 184108 (2020). https://doi.org/10.1063/5.0006002

                            Additional Code Authors
    E. T. Seidl, C. L. Janssen, E. F. Valeev, M. L. Leininger,
    J. F. Gonthier, R. M. Richard, H. R. McAlexander, M. Saitow, X. Wang,
    P. Verma, and M. H. Lechner

             Previous Authors, Complete List of Code Contributors,
                       and Citations for Specific Modules
    https://github.com/psi4/psi4/blob/master/codemeta.json
    https://github.com/psi4/psi4/graphs/contributors
    http://psicode.org/psi4manual/master/introduction.html#citing-psifour

    -----------------------------------------------------------------------


    Psi4 started on: Monday, 06 September 2021 06:17PM

    Process ID: 29587
    Host:       n014
    PSIDATADIR: /opt/psi/4/master/share/psi4
    Memory:     500.0 MiB
    Threads:    1
    
  ==> Input File <==

--------------------------------------------------------------------------
# o-Benzyne preliminary computations

memory 14 gb

molecule {
  0 1
  units bohr
 H   -0.0000000000   -1.4297313388    0.9934220601
 O    0.0000000000   -0.0000001559   -0.1205006228
 H    0.0000000000    1.4297314947    0.9934221828
}

set {
  basis cc-pvtz
  reference rhf
  e_convergence 10 
  d_convergence 10
  r_convergence 8
  maxiter 300
  freeze_core True
}

e, wfn = energy('ccsd(t)', return_wfn = True)
psi4.print_out('Giraffe The Energy is %.12f \n'%(e))
--------------------------------------------------------------------------

  Memory set to  13.039 GiB by Python driver.

Scratch directory: /tmp/

*** tstart() called on n014
*** at Mon Sep  6 18:17:24 2021

   => Loading Basis Set <=

    Name: CC-PVTZ
    Role: ORBITAL
    Keyword: BASIS
    atoms 1, 3 entry H          line    23 file /opt/psi/4/master/share/psi4/basis/cc-pvtz.gbs 
    atoms 2    entry O          line   262 file /opt/psi/4/master/share/psi4/basis/cc-pvtz.gbs 


         ---------------------------------------------------------
                                   SCF
               by Justin Turney, Rob Parrish, Andy Simmonett
                          and Daniel G. A. Smith
                              RHF Reference
                        1 Threads,  13351 MiB Core
         ---------------------------------------------------------

  ==> Geometry <==

    Molecular point group: cs
    Full point group: Cs

    Geometry (in Bohr), charge = 0, multiplicity = 1:

       Center              X                  Y                   Z               Mass       
    ------------   -----------------  -----------------  -----------------  -----------------
         H            1.429731209071    -0.989258160125     0.000000000000     1.007825032230
         O            0.000000026171     0.124664522775     0.000000000000    15.994914619570
         H           -1.429731624429    -0.989258282825     0.000000000000     1.007825032230

  Running in cs symmetry.

  Rotational constants: A =     27.10281  B =     14.61067  C =      9.49310 [cm^-1]
  Rotational constants: A = 812521.86601  B = 438016.90907  C = 284595.98646 [MHz]
  Nuclear repulsion =    9.177571562958676

  Charge       = 0
  Multiplicity = 1
  Electrons    = 10
  Nalpha       = 5
  Nbeta        = 5

  ==> Algorithm <==

  SCF Algorithm Type is PK.
  DIIS enabled.
  MOM disabled.
  Fractional occupation disabled.
  Guess Type is SAD.
  Energy threshold   = 1.00e-10
  Density threshold  = 1.00e-10
  Integral threshold = 0.00e+00

  ==> Primary Basis <==

  Basis Set: CC-PVTZ
    Blend: CC-PVTZ
    Number of shells: 22
    Number of basis function: 58
    Number of Cartesian functions: 65
    Spherical Harmonics?: true
    Max angular momentum: 3

  ==> Integral Setup <==

  Using in-core PK algorithm.
   Calculation information:
      Number of atoms:                   3
      Number of AO shells:              22
      Number of primitives:             42
      Number of atomic orbitals:        65
      Number of basis functions:        58

      Integral cutoff                 1.00e-12
      Number of threads:                 1

  Performing in-core PK
  Using 2929232 doubles for integral storage.
  We computed 32131 shell quartets total.
  Whereas there are 32131 unique shell quartets.

  ==> DiskJK: Disk-Based J/K Matrices <==

    J tasked:                  Yes
    K tasked:                  Yes
    wK tasked:                  No
    Memory [MiB]:            10013
    Schwarz Cutoff:          1E-12

    OpenMP threads:              1

  Minimum eigenvalue in the overlap matrix is 2.5147338340E-03.
  Reciprocal condition number of the overlap matrix is 4.9203034796E-04.
    Using symmetric orthogonalization.

  ==> Pre-Iterations <==

  SCF Guess: Superposition of Atomic Densities via on-the-fly atomic UHF (no occupation information).

   -------------------------
    Irrep   Nso     Nmo    
   -------------------------
     A'        40      40 
     A"        18      18 
   -------------------------
    Total      58      58
   -------------------------

  ==> Iterations <==

                        Total Energy        Delta E     RMS |[F,P]|

   @RHF iter SAD:   -75.49959905254109   -7.54996e+01   0.00000e+00 
   @RHF iter   1:   -75.97854632828917   -4.78947e-01   1.02934e-02 DIIS
   @RHF iter   2:   -76.03110078222227   -5.25545e-02   6.65017e-03 DIIS
   @RHF iter   3:   -76.05659839237242   -2.54976e-02   4.96662e-04 DIIS
   @RHF iter   4:   -76.05698817596274   -3.89784e-04   1.21495e-04 DIIS
   @RHF iter   5:   -76.05701284885032   -2.46729e-05   2.51645e-05 DIIS
   @RHF iter   6:   -76.05701440787243   -1.55902e-06   4.88052e-06 DIIS
   @RHF iter   7:   -76.05701446783108   -5.99587e-08   7.82950e-07 DIIS
   @RHF iter   8:   -76.05701446910122   -1.27014e-09   1.20976e-07 DIIS
   @RHF iter   9:   -76.05701446913235   -3.11360e-11   3.37934e-08 DIIS
   @RHF iter  10:   -76.05701446913487   -2.51532e-12   4.31639e-09 DIIS
   @RHF iter  11:   -76.05701446913504   -1.70530e-13   6.05632e-10 DIIS
   @RHF iter  12:   -76.05701446913497    7.10543e-14   9.75435e-11 DIIS
  Energy and wave function converged.


  ==> Post-Iterations <==

    Orbital Energies [Eh]
    ---------------------

    Doubly Occupied:                                                      

       1Ap   -20.555245     2Ap    -1.344969     3Ap    -0.708079  
       4Ap    -0.578075     1App   -0.504442  

    Virtual:                                                              

       5Ap     0.142007     6Ap     0.203956     7Ap     0.542841  
       8Ap     0.602479     9Ap     0.668307     2App    0.787320  
      10Ap     0.798651    11Ap     0.805413     3App    0.861490  
       4App    0.953533    12Ap     1.133517    13Ap     1.197065  
      14Ap     1.524436    15Ap     1.564221     5App    2.037811  
      16Ap     2.054814     6App    2.064528    17Ap     2.171532  
      18Ap     2.234279    19Ap     2.587267    20Ap     2.963361  
       7App    3.352469    21Ap     3.488451     8App    3.583599  
      22Ap     3.655986     9App    3.798693    23Ap     3.876810  
      24Ap     3.885332    10App    3.961752    11App    4.018162  
      25Ap     4.074468    26Ap     4.190891    12App    4.309048  
      27Ap     4.381651    28Ap     4.585864    13App    4.683161  
      29Ap     4.861718    30Ap     5.154444    31Ap     5.250853  
      32Ap     5.525909    14App    6.049899    33Ap     6.568464  
      15App    6.917243    16App    6.939560    17App    7.002955  
      34Ap     7.017262    35Ap     7.050500    36Ap     7.170217  
      18App    7.234212    37Ap     7.452634    38Ap     7.791456  
      39Ap     8.284113    40Ap    12.845122  

    Final Occupation by Irrep:
             Ap   App 
    DOCC [     4,    1 ]

  @RHF Final Energy:   -76.05701446913497

   => Energetics <=

    Nuclear Repulsion Energy =              9.1775715629586756
    One-Electron Energy =                -123.0875503030477347
    Two-Electron Energy =                  37.8529642709540894
    Total Energy =                        -76.0570144691349697

Computation Completed


Properties will be evaluated at   0.000000,   0.000000,   0.000000 [a0]

Properties computed using the SCF density matrix

  Nuclear Dipole Moment: [e a0]
     X:    -0.0000      Y:    -0.9812      Z:     0.0000

  Electronic Dipole Moment: [e a0]
     X:     0.0000      Y:     0.1817      Z:     0.0000

  Dipole Moment: [e a0]
     X:    -0.0000      Y:    -0.7995      Z:     0.0000     Total:     0.7995

  Dipole Moment: [D]
     X:    -0.0000      Y:    -2.0322      Z:     0.0000     Total:     2.0322


*** tstop() called on n014 at Mon Sep  6 18:17:25 2021
Module time:
	user time   =       1.35 seconds =       0.02 minutes
	system time =       0.01 seconds =       0.00 minutes
	total time  =          1 seconds =       0.02 minutes
Total time:
	user time   =       1.35 seconds =       0.02 minutes
	system time =       0.01 seconds =       0.00 minutes
	total time  =          1 seconds =       0.02 minutes
 MINTS: Wrapper to libmints.
   by Justin Turney

   Calculation information:
      Number of threads:                 1
      Number of atoms:                   3
      Number of AO shells:              22
      Number of SO shells:              22
      Number of primitives:             42
      Number of atomic orbitals:        65
      Number of basis functions:        58

      Number of irreps:                  2
      Integral cutoff                 0.00e+00
      Number of functions per irrep: [  40   18 ]

 OEINTS: Overlap, kinetic, potential, dipole, and quadrupole integrals
         stored in file 35.

      Computing two-electron integrals...done
      Computed 714901 non-zero two-electron integrals.
        Stored in file 33.


*** tstart() called on n014
*** at Mon Sep  6 18:17:25 2021


	Wfn Parameters:
	--------------------
	Wavefunction         = CCSD_T
	Number of irreps     = 2
	Number of MOs        = 58
	Number of active MOs = 57
	AO-Basis             = NONE
	Semicanonical        = false
	Reference            = RHF
	Print Level          = 1

	IRREP	# MOs	# FZDC	# DOCC	# SOCC	# VIRT	# FZVR
	-----	-----	------	------	------	------	------
	 Ap	   40	    1	    3	    0	    36	    0
	 App	   18	    0	    1	    0	    17	    0
	Transforming integrals...
	IWL integrals will be deleted.
	(OO|OO)...
	Presorting SO-basis two-electron integrals.
	Sorting File: SO Ints (nn|nn) nbuckets = 1
	Transforming the one-electron integrals and constructing Fock matrices
	Starting first half-transformation.
	Sorting half-transformed integrals.
	First half integral transformation complete.
	Starting second half-transformation.
	Two-electron integral transformation complete.
	(OO|OV)...
	Starting second half-transformation.
	Two-electron integral transformation complete.
	(OO|VV)...
	Starting second half-transformation.
	Two-electron integral transformation complete.
	(OV|OO)...
	Starting first half-transformation.
	Sorting half-transformed integrals.
	First half integral transformation complete.
	Starting second half-transformation.
	Two-electron integral transformation complete.
	(OV|OV)...
	Starting second half-transformation.
	Two-electron integral transformation complete.
	(OV|VV)...
	Starting second half-transformation.
	Two-electron integral transformation complete.
	(VV|OO)...
	Starting first half-transformation.
	Sorting half-transformed integrals.
	First half integral transformation complete.
	Starting second half-transformation.
	Two-electron integral transformation complete.
	(VV|OV)...
	Starting second half-transformation.
	Two-electron integral transformation complete.
	(VV|VV)...
	Starting second half-transformation.
	Two-electron integral transformation complete.
	Frozen core energy     =    -61.31240059474570

	Size of irrep 0 of <ab|cd> integrals:      2.512 (MW) /     20.098 (MB)
	Size of irrep 1 of <ab|cd> integrals:      1.498 (MW) /     11.985 (MB)
	Total:                                     4.010 (MW) /     32.083 (MB)

	Size of irrep 0 of <ia|bc> integrals:      0.198 (MW) /      1.585 (MB)
	Size of irrep 1 of <ia|bc> integrals:      0.106 (MW) /      0.852 (MB)
	Total:                                     0.305 (MW) /      2.437 (MB)

	Size of irrep 0 of tijab amplitudes:       0.016 (MW) /      0.127 (MB)
	Size of irrep 1 of tijab amplitudes:       0.007 (MW) /      0.059 (MB)
	Total:                                     0.023 (MW) /      0.186 (MB)

	Nuclear Rep. energy          =      9.17757156295868
	SCF energy                   =    -76.05701446913497
	One-electron energy          =    -41.57323886293485
	Two-electron energy          =     17.65105342558688
	Reference energy             =    -76.05701446913500

*** tstop() called on n014 at Mon Sep  6 18:17:27 2021
Module time:
	user time   =       0.83 seconds =       0.01 minutes
	system time =       0.26 seconds =       0.00 minutes
	total time  =          2 seconds =       0.03 minutes
Total time:
	user time   =       2.39 seconds =       0.04 minutes
	system time =       0.30 seconds =       0.01 minutes
	total time  =          3 seconds =       0.05 minutes
            **************************
            *                        *
            *        CCENERGY        *
            *                        *
            **************************

    Nuclear Rep. energy (wfn)     =    9.177571562958676
    SCF energy          (wfn)     =  -76.057014469134970
    Reference energy    (file100) =  -76.057014469134998

    Input parameters:
    -----------------
    Wave function   =     CCSD_T
    Reference wfn   =     RHF
    Brueckner       =     No
    Memory (Mbytes) =     14000.0
    Maxiter         =    300
    R_Convergence   =     1.0e-08
    E_Convergence   =     1.0e-10
    Restart         =     Yes
    DIIS            =     Yes
    AO Basis        =     NONE
    ABCD            =     NEW
    Cache Level     =     2
    Cache Type      =     LOW
    Print Level     =     1
    Num. of threads =     1
    # Amps to Print =     10
    Print MP2 Amps? =     No
    Analyze T2 Amps =     No
    Print Pair Ener =     No
    Local CC        =     No
    SCS-MP2         =     False
    SCSN-MP2        =     False
    SCS-CCSD        =     False

MP2 correlation energy -0.2616332068657144
                Solving CC Amplitude Equations
                ------------------------------
  Iter             Energy              RMS        T1Diag      D1Diag    New D1Diag    D2Diag
  ----     ---------------------    ---------   ----------  ----------  ----------   --------
     0        -0.261633206865714    0.000e+00    0.000000    0.000000    0.000000    0.116110
     1        -0.261970407963959    2.908e-02    0.005692    0.009277    0.009277    0.119777
     2        -0.266810402257945    1.003e-02    0.005890    0.009440    0.009440    0.124448
     3        -0.267516901338099    3.215e-03    0.006476    0.010574    0.010574    0.126090
     4        -0.267509503372727    6.543e-04    0.006513    0.010666    0.010666    0.126297
     5        -0.267531321444201    2.068e-04    0.006534    0.010757    0.010757    0.126345
     6        -0.267531856791870    6.197e-05    0.006540    0.010793    0.010793    0.126341
     7        -0.267531935987871    1.988e-05    0.006543    0.010809    0.010809    0.126339
     8        -0.267531623138126    5.091e-06    0.006544    0.010814    0.010814    0.126339
     9        -0.267531534344525    1.049e-06    0.006544    0.010815    0.010815    0.126339
    10        -0.267531547452804    2.349e-07    0.006544    0.010815    0.010815    0.126339
    11        -0.267531546151337    4.575e-08    0.006544    0.010815    0.010815    0.126339
    12        -0.267531547784493    1.014e-08    0.006544    0.010815    0.010815    0.126339
    13        -0.267531547820125    2.446e-09    0.006544    0.010815    0.010815    0.126339
    14        -0.267531547828930    6.069e-10    0.006544    0.010815    0.010815    0.126339

    Iterations converged.


    Largest TIA Amplitudes:
              3  36        -0.0074935902
              2   0         0.0058303864
              1   9        -0.0058116052
              3  38        -0.0049045951
              2   5        -0.0045333546
              2  10        -0.0041769944
              0   4        -0.0040083190
              2   4         0.0038788084
              1  20        -0.0038363026
              2  21        -0.0037721385

    Largest TIjAb Amplitudes:
      3   3  36  36        -0.0476604209
      2   2   4   4        -0.0296666388
      1   1   2   2        -0.0269533401
      2   3   4  36         0.0259613176
      3   2  36   4         0.0259613176
      1   1   3   3        -0.0254748208
      1   1   6   6        -0.0226739846
      1   3   6  36         0.0222566727
      3   1  36   6         0.0222566727
      2   2   2   2        -0.0221018873

    SCF energy       (wfn)                    =  -76.057014469134970
    Reference energy (file100)                =  -76.057014469134998

    Opposite-spin MP2 correlation energy      =   -0.198091092644905
    Same-spin MP2 correlation energy          =   -0.063542114220809
    Singles MP2 correlation energy            =   -0.000000000000000
    MP2 correlation energy                    =   -0.261633206865714
      * MP2 total energy                      =  -76.318647676000708

    Opposite-spin CCSD correlation energy     =   -0.210868279755425
    Same-spin CCSD correlation energy         =   -0.056663268073506
    Singles CCSD correlation energy           =    0.000000000000000
    CCSD correlation energy                   =   -0.267531547828930
      * CCSD total energy                     =  -76.324546016963922

            **************************
            *                        *
            *        CCTRIPLES       *
            *                        *
            **************************


    Wave function   =    CCSD_T
    Reference wfn   =      RHF

    Nuclear Rep. energy (wfn)                =    9.177571562958676
    SCF energy          (wfn)                =  -76.057014469134970
    Reference energy    (file100)            =  -76.057014469134998
    CCSD energy         (file100)            =   -0.267531547828930
    Total CCSD energy   (file100)            =  -76.324546016963922

    Number of ijk index combinations:               20
    Memory available in words        :      1750000000
    ~Words needed per explicit thread:          186624
    Number of threads for explicit ijk threading:    1

    MKL num_threads set to 1 for explicit threading.

    (T) energy                                =   -0.007662436340979
      * CCSD(T) total energy                  =  -76.332208453304901

Giraffe The Energy is -76.332208453305 

    Psi4 stopped on: Monday, 06 September 2021 06:17PM
    Psi4 wall time for execution: 0:00:07.81

*** Psi4 exiting successfully. Buy a developer a beer!
