
 Primary working directories    : /tmp/795519.107.gen4.q
 Secondary working directories  : /tmp/795519.107.gen4.q
 Wavefunction directory         : /home/vulcan/mel64643/wfu/
 Main file repository           : /tmp/795519.107.gen4.q/

 ARCHNAME  : Linux/x86_64
 FC        : /opt/intel/compilers_and_libraries_2016.1.150/linux/bin/intel64/ifort
 FCVERSION : 16.0.1
 BLASLIB   : -mkl
 id        : ccgc

 Nodes     nprocs
 n067         1
 ga_uses_ma=false, calling ma_init with nominal heap.
 GA-space will be limited to   8.0 MW (determined by -G option)

 Using customized tuning parameters: mindgm=10; mindgv=16; mindgc=4; mindgr=1; noblas=0; mincuda=1000; minvec=7
 default implementation of scratch files=df  

 ***,Optimization of min3
 memory,1000,m
 gthresh,energy=1.0d-12,orbital=1.0d-10,oneint=1.0d-16,twoint=1.0d-16,optgrad=1.0d-6,compress=1.0d-13
 geomtyp=xyz
 
  bohr
  geometry = {
  6
  arbitrary comment
  C   -1.3742581919   -0.0258833959    0.0000003236
  O    1.2984259410    0.1181282334    0.0000003599
  H   -2.0778136069    1.9163749360   -0.0000801631
  H   -2.1066733042   -0.9807010921    1.6795854262
  H   -2.1066663288   -0.9808321138   -1.6795130602
  H    1.9432613307   -1.5772186876   -0.0000012964
 }
 
 basis=cc-pvdz
 {rhf;maxit,200}
 {ccsd(t);maxit,200}

 Variables initialized (661), CPU time= 0.01 sec
 Commands  initialized (458), CPU time= 0.00 sec, 486 directives.
 Default parameters read. Elapsed time= 0.04 sec

 Checking input...
 Passed
1


                                         ***  PROGRAM SYSTEM MOLPRO  ***
                         Copyright, University College Cardiff Consultants Limited, 2008

                                    Version 2010.1 linked May 16 2016 07:17:05


 **********************************************************************************************************************************
 LABEL *   Optimization of min3                                                          
 Linux-4.4.3/n067(x86_64) 64 bit mpp version                                             DATE: 24-Oct-22          TIME: 15:43:06  
 **********************************************************************************************************************************

 SHA1:             9e8077add272b0f3cad6f7df79ec5211205f459d
 **********************************************************************************************************************************

 THRESHOLDS:

 ZERO    =  1.00D-12  ONEINT  =  1.00D-16  TWOINT  =  1.00D-16  PREFAC  =  1.00D-14  LOCALI  =  1.00D-09  EORDER  =  1.00D-04
 ENERGY  =  1.00D-12  ETEST   =  0.00D+00  EDENS   =  0.00D+00  THRDEDEF=  1.00D-06  GRADIENT=  1.00D-02  STEP    =  1.00D-03
 ORBITAL =  1.00D-10  CIVEC   =  1.00D-05  COEFF   =  1.00D-04  PRINTCI =  5.00D-02  PUNCHCI =  9.90D+01  OPTGRAD =  1.00D-06
 OPTENERG=  1.00D-06  OPTSTEP =  3.00D-04  THRGRAD =  1.00D-10  COMPRESS=  1.00D-13  VARMIN  =  1.00D-07  VARMAX  =  1.00D-03
 THRDOUB =  0.00D+00  THRDIV  =  1.00D-05  THRRED  =  1.00D-07  THRPSP  =  1.00D+00  THRDC   =  1.00D-10  THRCS   =  1.00D-10
 THRNRM  =  1.00D-08  THREQ   =  0.00D+00  THRDE   =  1.00D+00  THRREF  =  1.00D-05  SPARFAC =  1.00D+00  THRDLP  =  1.00D-07
 THRDIA  =  1.00D-10  THRDLS  =  1.00D-07  THRGPS  =  0.00D+00  THRKEX  =  0.00D+00  THRDIS  =  2.00D-01  THRVAR  =  1.00D-10
 THRLOC  =  1.00D-06  THRGAP  =  1.00D-06  THRLOCT = -1.00D+00  THRGAPT = -1.00D+00  THRORB  =  1.00D-06  THRMLTP =  0.00D+00
 THRCPQCI=  1.00D-10  KEXTA   =  0.00D+00  THRCOARS=  0.00D+00  SYMTOL  =  1.00D-06  GRADTOL =  1.00D-06  THROVL  =  1.00D-08
 THRORTH =  1.00D-08  GRID    =  1.00D-06  GRIDMAX =  1.00D-03  DTMAX   =  0.00D+00

 SETTING GEOMTYP        =    XYZ
 ZUNIT=BOHR
 

 Variable memory set to 1000000000 words,  buffer space   230000 words

 SETTING BASIS          =    CC-PVDZ


 Recomputing integrals since basis changed


 Using spherical harmonics

 Library entry C      S cc-pVDZ              selected for orbital group  1
 Library entry C      P cc-pVDZ              selected for orbital group  1
 Library entry C      D cc-pVDZ              selected for orbital group  1
 Library entry O      S cc-pVDZ              selected for orbital group  2
 Library entry O      P cc-pVDZ              selected for orbital group  2
 Library entry O      D cc-pVDZ              selected for orbital group  2
 Library entry H      S cc-pVDZ              selected for orbital group  3
 Library entry H      P cc-pVDZ              selected for orbital group  3

1PROGRAM * SEWARD (Integral evaluation for generally contracted gaussian basis sets)     Author: Roland Lindh, 1990

 Geometry written to block  1 of record 700


 Point group  C1  



 ATOMIC COORDINATES

 NR  ATOM    CHARGE       X              Y              Z

   1  C       6.00   -1.374258192   -0.025883396    0.000000324
   2  O       8.00    1.298425941    0.118128233    0.000000360
   3  H       1.00   -2.077813607    1.916374936   -0.000080163
   4  H       1.00   -2.106673304   -0.980701092    1.679585426
   5  H       1.00   -2.106666329   -0.980832114   -1.679513060
   6  H       1.00    1.943261331   -1.577218688   -0.000001296

 Bond lengths in Bohr (Angstrom)

 1-2  2.676561194  1-3  2.065758373  1-4  2.066183643  1-5  2.066183423  2-6  1.813839536
     ( 1.416375182)     ( 1.093152250)     ( 1.093377293)     ( 1.093377177)     ( 0.959842543)

 Bond angles

  1-2-6  107.74034015   2-1-3  106.82792506   2-1-4  112.26109474   2-1-5  112.26110113

  3-1-4  108.28797163   3-1-5  108.28781845   4-1-5  108.75559975

 NUCLEAR CHARGE:                   18
 NUMBER OF PRIMITIVE AOS:          82
 NUMBER OF SYMMETRY AOS:           80
 NUMBER OF CONTRACTIONS:           48   (  48A   )
 NUMBER OF CORE ORBITALS:           2   (   2A   )
 NUMBER OF VALENCE ORBITALS:       12   (  12A   )


 NUCLEAR REPULSION ENERGY   40.36856607


 Eigenvalues of metric

         1 0.965E-02 0.176E-01 0.370E-01 0.372E-01 0.383E-01 0.472E-01 0.477E-01 0.521E-01


 Contracted 2-electron integrals neglected if value below      1.0D-16
 AO integral compression algorithm  1   Integral accuracy      1.0D-16

     6.291 MB (compressed) written to integral file ( 98.2%)

     Node minimum: 6.291 MB, node maximum: 6.291 MB


 NUMBER OF SORTED TWO-ELECTRON INTEGRALS:     692076.     BUFFER LENGTH:  32768
 NUMBER OF SEGMENTS:   1  SEGMENT LENGTH:     692076      RECORD LENGTH: 524288

 Memory used in sort:       1.25 MW

 SORT1 READ      832256. AND WROTE      682147. INTEGRALS IN      2 RECORDS. CPU TIME:     0.00 SEC, REAL TIME:     0.01 SEC
 SORT2 READ      682147. AND WROTE      692076. INTEGRALS IN     24 RECORDS. CPU TIME:     0.02 SEC, REAL TIME:     0.03 SEC

 FILE SIZES:   FILE 1:     8.0 MBYTE,  FILE 4:     8.4 MBYTE,   TOTAL:     16.4 MBYTE

 OPERATOR DM      FOR CENTER  0  COORDINATES:    0.000000    0.000000    0.000000


 **********************************************************************************************************************************
 DATASETS  * FILE   NREC   LENGTH (MB)   RECORD NAMES
              1      19        8.03       500      610      700      900      950      970     1000      129      960     1100   
                                          VAR    BASINP    GEOM    SYMINP    ZMAT    AOBASIS   BASIS     P2S    ABASIS      S 
                                         1400     1410     1200     1210     1080     1600     1650     1300     1700   
                                           T        V       H0       H01     AOSYM     SMH    MOLCAS    ERIS     OPER   

 PROGRAMS   *        TOTAL       INT
 CPU TIMES  *         0.24      0.18
 REAL TIME  *         0.40 SEC
 DISK USED  *        23.34 MB      
 GA USED    *         0.00 MB       (max)       0.00 MB       (current)
 **********************************************************************************************************************************

1PROGRAM * RHF-SCF (CLOSED SHELL)       Authors: W. Meyer, H.-J. Werner


 NUMBER OF ELECTRONS:       9+    9-    SPACE SYMMETRY=1    SPIN SYMMETRY: Singlet 
 CONVERGENCE THRESHOLDS:    1.00E-10 (Density)    1.00E-13 (Energy)
 MAX. NUMBER OF ITERATIONS:      200
 INTERPOLATION TYPE:            DIIS
 INTERPOLATION STEPS:              2 (START)      1 (STEP)
 LEVEL SHIFTS:                  0.00 (CLOSED)  0.00 (OPEN) 



 Orbital guess generated from atomic densities. Full valence occupancy:   14

 Molecular orbital dump at record        2100.2

 ITERATION    DDIFF          GRAD             ENERGY        2-EL.EN.            DIPOLE MOMENTS         DIIS
    1      0.000D+00      0.000D+00      -115.01439631    164.511658   -0.48210   -0.89851   -0.00000    0
    2      0.000D+00      0.109D-01      -115.04274607    162.284638   -0.30770   -0.53633   -0.00000    1
    3      0.205D-01      0.528D-02      -115.04873973    163.311613   -0.39049   -0.61146   -0.00000    2
    4      0.637D-02      0.112D-02      -115.04920258    163.154852   -0.38074   -0.60059   -0.00000    3
    5      0.204D-02      0.202D-03      -115.04922345    163.161325   -0.38363   -0.59640   -0.00000    4
    6      0.432D-03      0.354D-04      -115.04922425    163.161485   -0.38396   -0.59621   -0.00000    5
    7      0.928D-04      0.736D-05      -115.04922428    163.160301   -0.38410   -0.59605   -0.00000    6
    8      0.151D-04      0.238D-05      -115.04922428    163.160683   -0.38414   -0.59602   -0.00000    7
    9      0.509D-05      0.495D-06      -115.04922428    163.160642   -0.38415   -0.59602   -0.00000    6
   10      0.142D-05      0.899D-07      -115.04922428    163.160641   -0.38415   -0.59602   -0.00000    6
   11      0.240D-06      0.337D-07      -115.04922428    163.160647   -0.38415   -0.59602   -0.00000    6
   12      0.615D-07      0.141D-07      -115.04922428    163.160645   -0.38415   -0.59602   -0.00000    7
   13      0.263D-07      0.313D-08      -115.04922428    163.160645   -0.38415   -0.59602   -0.00000    7
   14      0.775D-08      0.649D-09      -115.04922428    163.160645   -0.38415   -0.59602   -0.00000    7
   15      0.164D-08      0.152D-09      -115.04922428    163.160645   -0.38415   -0.59602   -0.00000    7
   16      0.337D-09      0.453D-10      -115.04922428    163.160645   -0.38415   -0.59602   -0.00000    7
   17      0.864D-10      0.164D-10      -115.04922428    163.160645   -0.38415   -0.59602   -0.00000    7
   18      0.420D-10      0.300D-11      -115.04922428    163.160645   -0.38415   -0.59602   -0.00000    7
   19      0.701D-11      0.617D-12      -115.04922428    163.160645   -0.38415   -0.59602   -0.00000    0

 Final occupancy:   9

 !RHF STATE 1.1 Energy               -115.049224281657
 Nuclear energy                        40.36856607
 One-electron energy                 -236.99811287
 Two-electron energy                   81.58032252
 Virial quotient                       -1.00087448
 !RHF STATE 1.1 Dipole moment          -0.38415379    -0.59601869    -0.00000281
 Dipole moment /Debye                  -0.97635760    -1.51482917    -0.00000715

 Orbital energies:

         1.1          2.1          3.1          4.1          5.1          6.1          7.1          8.1          9.1         10.1
    -20.549718   -11.274454    -1.351148    -0.920903    -0.683769    -0.614603    -0.585395    -0.496051    -0.442693     0.184583

        11.1
      0.224364


 **********************************************************************************************************************************
 DATASETS  * FILE   NREC   LENGTH (MB)   RECORD NAMES
              1      19        8.03       500      610      700      900      950      970     1000      129      960     1100   
                                          VAR    BASINP    GEOM    SYMINP    ZMAT    AOBASIS   BASIS     P2S    ABASIS      S 
                                         1400     1410     1200     1210     1080     1600     1650     1300     1700   
                                           T        V       H0       H01     AOSYM     SMH    MOLCAS    ERIS     OPER   

              2       3        0.39       700     1000     2100   
                                         GEOM     BASIS     RHF  

 PROGRAMS   *        TOTAL       RHF       INT
 CPU TIMES  *         0.33      0.09      0.18
 REAL TIME  *         0.53 SEC
 DISK USED  *        23.34 MB      
 GA USED    *         0.00 MB       (max)       0.00 MB       (current)
 **********************************************************************************************************************************


1PROGRAM * CCSD (Closed-shell coupled cluster)     Authors: C. Hampel, H.-J. Werner, 1991, M. Deegan, P.J. Knowles, 1992


 Convergence thresholds:  THRVAR = 1.00D-08  THRDEN = 1.00D-12

 CCSD(T)     terms to be evaluated (factor= 1.000)


 Number of core orbitals:           2 (   2 )
 Number of closed-shell orbitals:   7 (   7 )
 Number of external orbitals:      39 (  39 )

 Molecular orbitals read from record     2100.2  Type=RHF/CANONICAL (state 1.1)

 Number of N-1 electron functions:               7
 Number of N-2 electron functions:              28
 Number of singly external CSFs:               273
 Number of doubly external CSFs:             37401
 Total number of CSFs:                       37675

 Length of J-op  integral file:               0.00 MB
 Length of K-op  integral file:               0.19 MB
 Length of 3-ext integral record:             0.00 MB

 Memory could be reduced to 0.96 Mwords without degradation in triples

 Integral transformation finished. Total CPU:   0.02 sec, npass=  1  Memory used:   0.66 MW

 Reference energy:                   -115.04922428

 MP2 singlet pair energy:              -0.21855026
 MP2 triplet pair energy:              -0.11980561
 MP2 correlation energy:               -0.33835587
 MP2 total energy:                   -115.38758015

 SCS-MP2 correlation energy:           -0.33680603   (PS=  1.200000  PT=  0.333333)
 SCS-MP2 total energy:               -115.38603031

 ITER.      SQ.NORM     CORR.ENERGY   TOTAL ENERGY   ENERGY CHANGE        DEN1      VAR(S)    VAR(P)  DIIS     TIME
   1      1.10722566    -0.36116795  -115.41039223    -0.02281208    -0.01415002  0.91D-03  0.17D-02  1  1     0.06
   2      1.11573476    -0.36311179  -115.41233607    -0.00194384    -0.00923842  0.20D-04  0.16D-03  2  2     0.10
   3      1.11760527    -0.36323842  -115.41246271    -0.00012664    -0.00119824  0.94D-05  0.85D-05  3  3     0.14
   4      1.11811678    -0.36323723  -115.41246151     0.00000120    -0.00025339  0.33D-06  0.67D-06  4  4     0.17
   5      1.11821393    -0.36323765  -115.41246194    -0.00000043    -0.00003571  0.98D-07  0.49D-07  5  5     0.21
   6      1.11823279    -0.36323632  -115.41246060     0.00000134    -0.00000433  0.16D-07  0.41D-08  6  6     0.25
   7      1.11823750    -0.36323590  -115.41246018     0.00000041    -0.00000035  0.20D-08  0.71D-09  6  1     0.29
   8      1.11823876    -0.36323601  -115.41246029    -0.00000010     0.00000074  0.25D-09  0.71D-10  6  3     0.33
   9      1.11823981    -0.36323588  -115.41246016     0.00000012    -0.00000038  0.13D-10  0.10D-10  6  2     0.36
  10      1.11823986    -0.36323588  -115.41246016     0.00000000     0.00000000  0.13D-11  0.12D-11  6  4     0.40
  11      1.11823982    -0.36323588  -115.41246016     0.00000000     0.00000003  0.33D-12  0.84D-13  6  5     0.44
  12      1.11823977    -0.36323588  -115.41246017    -0.00000000     0.00000003  0.32D-13  0.13D-13  6  6     0.48
  13      1.11823975    -0.36323589  -115.41246017    -0.00000000     0.00000001  0.38D-14  0.15D-14  6  3     0.52
  14      1.11823975    -0.36323589  -115.41246017    -0.00000000     0.00000000  0.28D-15  0.14D-15  6  1     0.56
  15      1.11823975    -0.36323588  -115.41246017     0.00000000    -0.00000000  0.36D-16  0.31D-16  6  2     0.60
  16      1.11823975    -0.36323588  -115.41246017     0.00000000    -0.00000000  0.31D-17  0.16D-17  6  5     0.64
  17      1.11823975    -0.36323588  -115.41246017    -0.00000000     0.00000000  0.12D-18  0.12D-18  6  4     0.68
  18      1.11823975    -0.36323588  -115.41246017     0.00000000    -0.00000000  0.26D-19  0.12D-19  6  3     0.72
  19      1.11823975    -0.36323588  -115.41246017     0.00000000    -0.00000000  0.25D-20  0.10D-20  6  6     0.76
  20      1.11823975    -0.36323588  -115.41246017     0.00000000    -0.00000000  0.41D-21  0.16D-21  6  1     0.80

 Norm of t1 vector:      0.04149434      S-energy:    -0.00000000      T1 diagnostic:  0.00784169
                                                                       D1 diagnostic:  0.01734053


 Total CPU time for triples:      0.20 sec


 RESULTS
 =======

  Reference energy                   -115.049224281657
  CCSD singlet pair energy             -0.254481709611
  CCSD triplet pair energy             -0.108754175371
  CCSD correlation energy              -0.363235884982

  Triples (T) contribution             -0.007718630868
  Total correlation energy             -0.370954515851

  CCSD total energy                  -115.412460166639
  CCSD[T] energy                     -115.420466733471
  CCSD-T energy                      -115.420029852991
 !CCSD(T) total energy               -115.420178797508

 Timing summary (sec):

 STEP                 CPU(USER)    SYS     CPU(TOT)    WALL
 Transformation          0.02      0.00      0.02      0.02
 CCSD iterations         0.78      0.04      0.82      0.85
 Triples                 0.20      0.01      0.21      0.21

 Program statistics:

 Available memory in ccsd:               999999704
 Min. memory needed in ccsd:                136801
 Max. memory used in ccsd:                  163198
 Max. memory used in cckext:                182024 (20 integral passes)



 **********************************************************************************************************************************
 DATASETS  * FILE   NREC   LENGTH (MB)   RECORD NAMES
              1      20       10.56       500      610      700      900      950      970     1000      129      960     1100   
                                          VAR    BASINP    GEOM    SYMINP    ZMAT    AOBASIS   BASIS     P2S    ABASIS      S 
                                         1400     1410     1200     1210     1080     1600     1650     1300     1700     1380   
                                           T        V       H0       H01     AOSYM     SMH    MOLCAS    ERIS     OPER     JKOP   

              2       3        0.39       700     1000     2100   
                                         GEOM     BASIS     RHF  

 PROGRAMS   *        TOTAL   CCSD(T)       RHF       INT
 CPU TIMES  *         1.34      1.01      0.09      0.18
 REAL TIME  *         1.63 SEC
 DISK USED  *        24.76 MB      
 GA USED    *         0.00 MB       (max)       0.00 MB       (current)
 **********************************************************************************************************************************

        CCSD(T)         RHF-SCF 
   -115.42017880   -115.04922428
 **********************************************************************************************************************************
 Variable memory released
