
    -----------------------------------------------------------------------
          Psi4: An Open-Source Ab Initio Electronic Structure Package
                               Psi4 1.4a2.dev629 

                         Git: Rev {master} 2938fc2 dirty


    D. G. A. Smith, L. A. Burns, A. C. Simmonett, R. M. Parrish,
    M. C. Schieber, R. Galvelis, P. Kraus, H. Kruse, R. Di Remigio,
    A. Alenaizan, A. M. James, S. Lehtola, J. P. Misiewicz, M. Scheurer,
    R. A. Shaw, J. B. Schriber, Y. Xie, Z. L. Glick, D. A. Sirianni,
    J. S. O'Brien, J. M. Waldrop, A. Kumar, E. G. Hohenstein,
    B. P. Pritchard, B. R. Brooks, H. F. Schaefer III, A. Yu. Sokolov,
    K. Patkowski, A. E. DePrince III, U. Bozkaya, R. A. King,
    F. A. Evangelista, J. M. Turney, T. D. Crawford, C. D. Sherrill,
    J. Chem. Phys. 152(18) 184108 (2020). https://doi.org/10.1063/5.0006002

                            Additional Code Authors
    E. T. Seidl, C. L. Janssen, E. F. Valeev, M. L. Leininger,
    J. F. Gonthier, R. M. Richard, H. R. McAlexander, M. Saitow, X. Wang,
    P. Verma, and M. H. Lechner

             Previous Authors, Complete List of Code Contributors,
                       and Citations for Specific Modules
    https://github.com/psi4/psi4/blob/master/codemeta.json
    https://github.com/psi4/psi4/graphs/contributors
    http://psicode.org/psi4manual/master/introduction.html#citing-psifour

    -----------------------------------------------------------------------


    Psi4 started on: Monday, 24 October 2022 12:09PM

    Process ID: 31419
    Host:       n059
    PSIDATADIR: /opt/psi/4/master/share/psi4
    Memory:     500.0 MiB
    Threads:    4
    
  ==> Input File <==

--------------------------------------------------------------------------
# o-Benzyne preliminary computations

memory 14 gb

molecule {
  0 1
  units bohr
 H   -0.0000000000   -1.4190102621    0.9944799011
 O    0.0000000000   -0.0000000000   -0.1226161821
 H    0.0000000000    1.4190102621    0.9944799011
}

set {
  basis cc-pvtz
  reference rhf
  e_convergence 10 
  d_convergence 10
  r_convergence 8
  maxiter 300
  freeze_core True
}

e, wfn = energy('ccsd(t)', return_wfn = True)
psi4.print_out('Giraffe The Energy is %.12f \n'%(e))
--------------------------------------------------------------------------

  Memory set to  13.039 GiB by Python driver.

Scratch directory: /tmp/795444.4.gen4.q/

*** tstart() called on n059
*** at Mon Oct 24 12:09:41 2022

   => Loading Basis Set <=

    Name: CC-PVTZ
    Role: ORBITAL
    Keyword: BASIS
    atoms 1, 3 entry H          line    23 file /opt/psi/4/master/share/psi4/basis/cc-pvtz.gbs 
    atoms 2    entry O          line   262 file /opt/psi/4/master/share/psi4/basis/cc-pvtz.gbs 


         ---------------------------------------------------------
                                   SCF
               by Justin Turney, Rob Parrish, Andy Simmonett
                          and Daniel G. A. Smith
                              RHF Reference
                        4 Threads,  13351 MiB Core
         ---------------------------------------------------------

  ==> Geometry <==

    Molecular point group: c2v
    Full point group: C2v

    Geometry (in Bohr), charge = 0, multiplicity = 1:

       Center              X                  Y                   Z               Mass       
    ------------   -----------------  -----------------  -----------------  -----------------
         H            0.000000000000    -1.419010262100     0.992076416598     1.007825032230
         O            0.000000000000     0.000000000000    -0.125019666602    15.994914619570
         H           -0.000000000000     1.419010262100     0.992076416598     1.007825032230

  Running in c2v symmetry.

  Rotational constants: A =     26.94905  B =     14.83228  C =      9.56685 [cm^-1]
  Rotational constants: A = 807912.15503  B = 444660.67669  C = 286807.08735 [MHz]
  Nuclear repulsion =    9.211909119201454

  Charge       = 0
  Multiplicity = 1
  Electrons    = 10
  Nalpha       = 5
  Nbeta        = 5

  ==> Algorithm <==

  SCF Algorithm Type is PK.
  DIIS enabled.
  MOM disabled.
  Fractional occupation disabled.
  Guess Type is SAD.
  Energy threshold   = 1.00e-10
  Density threshold  = 1.00e-10
  Integral threshold = 0.00e+00

  ==> Primary Basis <==

  Basis Set: CC-PVTZ
    Blend: CC-PVTZ
    Number of shells: 22
    Number of basis function: 58
    Number of Cartesian functions: 65
    Spherical Harmonics?: true
    Max angular momentum: 3

  ==> Integral Setup <==

  Using in-core PK algorithm.
   Calculation information:
      Number of atoms:                   3
      Number of AO shells:              22
      Number of primitives:             42
      Number of atomic orbitals:        65
      Number of basis functions:        58

      Integral cutoff                 1.00e-12
      Number of threads:                 4

  Performing in-core PK
  Using 2929232 doubles for integral storage.
  We computed 43467 shell quartets total.
  Whereas there are 32131 unique shell quartets.
    35.28 percent of shell quartets recomputed by reordering.

  ==> DiskJK: Disk-Based J/K Matrices <==

    J tasked:                  Yes
    K tasked:                  Yes
    wK tasked:                  No
    Memory [MiB]:            10013
    Schwarz Cutoff:          1E-12

    OpenMP threads:              4

  Minimum eigenvalue in the overlap matrix is 2.2204393572E-03.
  Reciprocal condition number of the overlap matrix is 5.0856305681E-04.
    Using symmetric orthogonalization.

  ==> Pre-Iterations <==

  SCF Guess: Superposition of Atomic Densities via on-the-fly atomic UHF (no occupation information).

   -------------------------
    Irrep   Nso     Nmo    
   -------------------------
     A1        23      23 
     A2         7       7 
     B1        11      11 
     B2        17      17 
   -------------------------
    Total      58      58
   -------------------------

  ==> Iterations <==

                        Total Energy        Delta E     RMS |[F,P]|

   @RHF iter SAD:   -75.50442186484079   -7.55044e+01   0.00000e+00 
   @RHF iter   1:   -75.97880216717510   -4.74380e-01   1.43753e-02 DIIS
   @RHF iter   2:   -76.03143997095371   -5.26378e-02   9.25871e-03 DIIS
   @RHF iter   3:   -76.05678555013094   -2.53456e-02   6.90476e-04 DIIS
   @RHF iter   4:   -76.05716991187677   -3.84362e-04   1.67690e-04 DIIS
   @RHF iter   5:   -76.05719387524475   -2.39634e-05   3.47164e-05 DIIS
   @RHF iter   6:   -76.05719538635832   -1.51111e-06   6.70815e-06 DIIS
   @RHF iter   7:   -76.05719544403982   -5.76815e-08   1.06612e-06 DIIS
   @RHF iter   8:   -76.05719544522738   -1.18756e-09   1.60593e-07 DIIS
   @RHF iter   9:   -76.05719544525473   -2.73559e-11   4.46549e-08 DIIS
   @RHF iter  10:   -76.05719544525707   -2.33058e-12   5.89142e-09 DIIS
   @RHF iter  11:   -76.05719544525714   -7.10543e-14   8.25250e-10 DIIS
   @RHF iter  12:   -76.05719544525715   -1.42109e-14   1.33389e-10 DIIS
   @RHF iter  13:   -76.05719544525715    0.00000e+00   1.62040e-11 DIIS
  Energy and wave function converged.


  ==> Post-Iterations <==

    Orbital Energies [Eh]
    ---------------------

    Doubly Occupied:                                                      

       1A1   -20.554917     2A1    -1.347193     1B2    -0.708839  
       3A1    -0.579880     1B1    -0.504913  

    Virtual:                                                              

       4A1     0.142249     2B2     0.204390     3B2     0.543293  
       5A1     0.606604     6A1     0.667298     2B1     0.787219  
       7A1     0.796464     4B2     0.805832     1A2     0.863448  
       3B1     0.951513     8A1     1.131715     5B2     1.200759  
       6B2     1.526131     9A1     1.570849     4B1     2.041897  
       7B2     2.049487     2A2     2.064599    10A1     2.173518  
      11A1     2.232419    12A1     2.586464     8B2     2.968048  
       5B1     3.346807    13A1     3.487315     3A2     3.590858  
       9B2     3.664455     6B1     3.800634    10B2     3.880592  
      14A1     3.887989     4A2     3.966111     7B1     4.017437  
      11B2     4.074265    15A1     4.195851     5A2     4.311763  
      16A1     4.380283    12B2     4.604253     8B1     4.685344  
      13B2     4.869762    17A1     5.171143    18A1     5.252499  
      14B2     5.526285     9B1     6.059094    19A1     6.589039  
      10B1     6.926916     6A2     6.943813    11B1     7.005167  
      20A1     7.027567    15B2     7.049440    21A1     7.178590  
       7A2     7.243591    22A1     7.452140    16B2     7.802991  
      17B2     8.303485    23A1    12.898976  

    Final Occupation by Irrep:
             A1    A2    B1    B2 
    DOCC [     3,    0,    1,    1 ]

  @RHF Final Energy:   -76.05719544525715

   => Energetics <=

    Nuclear Repulsion Energy =              9.2119091192014544
    One-Electron Energy =                -123.1467272556230910
    Two-Electron Energy =                  37.8776226911644969
    Total Energy =                        -76.0571954452571504

Computation Completed


Properties will be evaluated at   0.000000,   0.000000,   0.000000 [a0]

Properties computed using the SCF density matrix

  Nuclear Dipole Moment: [e a0]
     X:     0.0000      Y:     0.0000      Z:     0.9840

  Electronic Dipole Moment: [e a0]
     X:     0.0000      Y:     0.0000      Z:    -0.1820

  Dipole Moment: [e a0]
     X:     0.0000      Y:     0.0000      Z:     0.8020     Total:     0.8020

  Dipole Moment: [D]
     X:     0.0000      Y:     0.0000      Z:     2.0386     Total:     2.0386


*** tstop() called on n059 at Mon Oct 24 12:09:42 2022
Module time:
	user time   =       2.12 seconds =       0.04 minutes
	system time =       0.06 seconds =       0.00 minutes
	total time  =          1 seconds =       0.02 minutes
Total time:
	user time   =       2.12 seconds =       0.04 minutes
	system time =       0.06 seconds =       0.00 minutes
	total time  =          1 seconds =       0.02 minutes
 MINTS: Wrapper to libmints.
   by Justin Turney

   Calculation information:
      Number of threads:                 4
      Number of atoms:                   3
      Number of AO shells:              22
      Number of SO shells:              16
      Number of primitives:             42
      Number of atomic orbitals:        65
      Number of basis functions:        58

      Number of irreps:                  4
      Integral cutoff                 0.00e+00
      Number of functions per irrep: [  23    7   11   17 ]

 OEINTS: Overlap, kinetic, potential, dipole, and quadrupole integrals
         stored in file 35.

      Computing two-electron integrals...done
      Computed 359414 non-zero two-electron integrals.
        Stored in file 33.


*** tstart() called on n059
*** at Mon Oct 24 12:09:42 2022


	Wfn Parameters:
	--------------------
	Wavefunction         = CCSD_T
	Number of irreps     = 4
	Number of MOs        = 58
	Number of active MOs = 57
	AO-Basis             = NONE
	Semicanonical        = false
	Reference            = RHF
	Print Level          = 1

	IRREP	# MOs	# FZDC	# DOCC	# SOCC	# VIRT	# FZVR
	-----	-----	------	------	------	------	------
	 A1	   23	    1	    2	    0	    20	    0
	 A2	   7	    0	    0	    0	    7	    0
	 B1	   11	    0	    1	    0	    10	    0
	 B2	   17	    0	    1	    0	    16	    0
	Transforming integrals...
	IWL integrals will be deleted.
	(OO|OO)...
	Presorting SO-basis two-electron integrals.
	Sorting File: SO Ints (nn|nn) nbuckets = 1
	Transforming the one-electron integrals and constructing Fock matrices
	Starting first half-transformation.
	Sorting half-transformed integrals.
	First half integral transformation complete.
	Starting second half-transformation.
	Two-electron integral transformation complete.
	(OO|OV)...
	Starting second half-transformation.
	Two-electron integral transformation complete.
	(OO|VV)...
	Starting second half-transformation.
	Two-electron integral transformation complete.
	(OV|OO)...
	Starting first half-transformation.
	Sorting half-transformed integrals.
	First half integral transformation complete.
	Starting second half-transformation.
	Two-electron integral transformation complete.
	(OV|OV)...
	Starting second half-transformation.
	Two-electron integral transformation complete.
	(OV|VV)...
	Starting second half-transformation.
	Two-electron integral transformation complete.
	(VV|OO)...
	Starting first half-transformation.
	Sorting half-transformed integrals.
	First half integral transformation complete.
	Starting second half-transformation.
	Two-electron integral transformation complete.
	(VV|OV)...
	Starting second half-transformation.
	Two-electron integral transformation complete.
	(VV|VV)...
	Starting second half-transformation.
	Two-electron integral transformation complete.
	Frozen core energy     =    -61.32032063813742

	Size of irrep 0 of <ab|cd> integrals:      0.648 (MW) /      5.184 (MB)
	Size of irrep 1 of <ab|cd> integrals:      0.360 (MW) /      2.880 (MB)
	Size of irrep 2 of <ab|cd> integrals:      0.389 (MW) /      3.115 (MB)
	Size of irrep 3 of <ab|cd> integrals:      0.608 (MW) /      4.867 (MB)
	Total:                                     2.006 (MW) /     16.046 (MB)

	Size of irrep 0 of <ia|bc> integrals:      0.053 (MW) /      0.425 (MB)
	Size of irrep 1 of <ia|bc> integrals:      0.024 (MW) /      0.192 (MB)
	Size of irrep 2 of <ia|bc> integrals:      0.029 (MW) /      0.235 (MB)
	Size of irrep 3 of <ia|bc> integrals:      0.046 (MW) /      0.368 (MB)
	Total:                                     0.152 (MW) /      1.220 (MB)

	Size of irrep 0 of tijab amplitudes:       0.005 (MW) /      0.039 (MB)
	Size of irrep 1 of tijab amplitudes:       0.001 (MW) /      0.010 (MB)
	Size of irrep 2 of tijab amplitudes:       0.002 (MW) /      0.020 (MB)
	Size of irrep 3 of tijab amplitudes:       0.003 (MW) /      0.025 (MB)
	Total:                                     0.012 (MW) /      0.093 (MB)

	Nuclear Rep. energy          =      9.21190911920145
	SCF energy                   =    -76.05719544525715
	One-electron energy          =    -41.61591927565749
	Two-electron energy          =     17.66713534933633
	Reference energy             =    -76.05719544525714

*** tstop() called on n059 at Mon Oct 24 12:09:42 2022
Module time:
	user time   =       0.33 seconds =       0.01 minutes
	system time =       0.06 seconds =       0.00 minutes
	total time  =          0 seconds =       0.00 minutes
Total time:
	user time   =       3.00 seconds =       0.05 minutes
	system time =       0.13 seconds =       0.00 minutes
	total time  =          1 seconds =       0.02 minutes
            **************************
            *                        *
            *        CCENERGY        *
            *                        *
            **************************

    Nuclear Rep. energy (wfn)     =    9.211909119201454
    SCF energy          (wfn)     =  -76.057195445257150
    Reference energy    (file100) =  -76.057195445257136

    Input parameters:
    -----------------
    Wave function   =     CCSD_T
    Reference wfn   =     RHF
    Brueckner       =     No
    Memory (Mbytes) =     14000.0
    Maxiter         =    300
    R_Convergence   =     1.0e-08
    E_Convergence   =     1.0e-10
    Restart         =     Yes
    DIIS            =     Yes
    AO Basis        =     NONE
    ABCD            =     NEW
    Cache Level     =     2
    Cache Type      =     LOW
    Print Level     =     1
    Num. of threads =     4
    # Amps to Print =     10
    Print MP2 Amps? =     No
    Analyze T2 Amps =     No
    Print Pair Ener =     No
    Local CC        =     No
    SCS-MP2         =     False
    SCSN-MP2        =     False
    SCS-CCSD        =     False

MP2 correlation energy -0.2614400692520319
                Solving CC Amplitude Equations
                ------------------------------
  Iter             Energy              RMS        T1Diag      D1Diag    New D1Diag    D2Diag
  ----     ---------------------    ---------   ----------  ----------  ----------   --------
     0        -0.261440069252032    0.000e+00    0.000000    0.000000    0.000000    0.115846
     1        -0.261830193886575    2.895e-02    0.005670    0.009239    0.009239    0.119495
     2        -0.266640511733320    9.950e-03    0.005867    0.009396    0.009396    0.124123
     3        -0.267339480936235    3.183e-03    0.006446    0.010514    0.010514    0.125743
     4        -0.267331707586628    6.457e-04    0.006483    0.010601    0.010601    0.125947
     5        -0.267353224903686    2.025e-04    0.006503    0.010688    0.010688    0.125994
     6        -0.267353788837904    6.005e-05    0.006508    0.010723    0.010723    0.125990
     7        -0.267353880203465    1.932e-05    0.006511    0.010739    0.010739    0.125989
     8        -0.267353580175863    4.975e-06    0.006512    0.010743    0.010743    0.125989
     9        -0.267353493379868    1.020e-06    0.006512    0.010744    0.010744    0.125988
    10        -0.267353506064731    2.273e-07    0.006512    0.010744    0.010744    0.125988
    11        -0.267353504796615    4.411e-08    0.006512    0.010744    0.010744    0.125988
    12        -0.267353506366258    9.733e-09    0.006512    0.010744    0.010744    0.125988
    13        -0.267353506396870    2.347e-09    0.006512    0.010744    0.010744    0.125988
    14        -0.267353506404610    5.809e-10    0.006512    0.010744    0.010744    0.125988

    Iterations converged.


    Largest TIA Amplitudes:
              2  27        -0.0074205912
              3  41        -0.0057691820
              1   0         0.0057456754
              2  28        -0.0049517677
              1   3        -0.0045667172
              1   5        -0.0041276127
              0   2        -0.0039652016
              1   2         0.0038830208
              3  46        -0.0038218209
              1  11        -0.0037719572

    Largest TIjAb Amplitudes:
      2   2  27  27        -0.0476024091
      1   1   2   2        -0.0295947602
      3   3  38  38        -0.0268067909
      1   2   2  27         0.0258999173
      2   1  27   2         0.0258999173
      3   3   1   1        -0.0251285202
      3   3  39  39        -0.0227242869
      2   3  27  39         0.0222606517
      3   2  39  27         0.0222606517
      1   1  38  38        -0.0220399976

    SCF energy       (wfn)                    =  -76.057195445257150
    Reference energy (file100)                =  -76.057195445257136

    Opposite-spin MP2 correlation energy      =   -0.197934639994511
    Same-spin MP2 correlation energy          =   -0.063505429257521
    Singles MP2 correlation energy            =   -0.000000000000000
    MP2 correlation energy                    =   -0.261440069252032
      * MP2 total energy                      =  -76.318635514509168

    Opposite-spin CCSD correlation energy     =   -0.210688723893449
    Same-spin CCSD correlation energy         =   -0.056664782511162
    Singles CCSD correlation energy           =    0.000000000000000
    CCSD correlation energy                   =   -0.267353506404610
      * CCSD total energy                     =  -76.324548951661740

            **************************
            *                        *
            *        CCTRIPLES       *
            *                        *
            **************************


    Wave function   =    CCSD_T
    Reference wfn   =      RHF

    Nuclear Rep. energy (wfn)                =    9.211909119201454
    SCF energy          (wfn)                =  -76.057195445257150
    Reference energy    (file100)            =  -76.057195445257136
    CCSD energy         (file100)            =   -0.267353506404610
    Total CCSD energy   (file100)            =  -76.324548951661740

    Number of ijk index combinations:               20
    Memory available in words        :      1750000000
    ~Words needed per explicit thread:           32000
    Number of threads for explicit ijk threading:    4

    MKL num_threads set to 1 for explicit threading.

    (T) energy                                =   -0.007640207590082
      * CCSD(T) total energy                  =  -76.332189159251826

Giraffe The Energy is -76.332189159252 

    Psi4 stopped on: Monday, 24 October 2022 12:09PM
    Psi4 wall time for execution: 0:00:03.95

*** Psi4 exiting successfully. Buy a developer a beer!
