
 Primary working directories    : /tmp/795519.65.gen4.q
 Secondary working directories  : /tmp/795519.65.gen4.q
 Wavefunction directory         : /home/vulcan/mel64643/wfu/
 Main file repository           : /tmp/795519.65.gen4.q/

 ARCHNAME  : Linux/x86_64
 FC        : /opt/intel/compilers_and_libraries_2016.1.150/linux/bin/intel64/ifort
 FCVERSION : 16.0.1
 BLASLIB   : -mkl
 id        : ccgc

 Nodes     nprocs
 n051         1
 ga_uses_ma=false, calling ma_init with nominal heap.
 GA-space will be limited to   8.0 MW (determined by -G option)

 Using customized tuning parameters: mindgm=10; mindgv=16; mindgc=4; mindgr=1; noblas=0; mincuda=1000; minvec=7
 default implementation of scratch files=df  

 ***,Optimization of min3
 memory,1000,m
 gthresh,energy=1.0d-12,orbital=1.0d-10,oneint=1.0d-16,twoint=1.0d-16,optgrad=1.0d-6,compress=1.0d-13
 geomtyp=xyz
 
  bohr
  geometry = {
  6
  arbitrary comment
  C   -1.3745227142   -0.0251351374    0.0027237947
  O    1.3039466239    0.1212489675   -0.0008983205
  H   -2.0696378517    1.9078243836   -0.0010056336
  H   -2.1116768563   -0.9812607770    1.6804606868
  H   -2.1114767609   -0.9806927198   -1.6814785454
  H    1.9396433991   -1.5721168370    0.0001896080
 }
 
 basis=cc-pvdz
 {rhf;maxit,200}
 {ccsd(t);maxit,200}

 Variables initialized (661), CPU time= 0.00 sec
 Commands  initialized (458), CPU time= 0.00 sec, 486 directives.
 Default parameters read. Elapsed time= 0.05 sec

 Checking input...
 Passed
1


                                         ***  PROGRAM SYSTEM MOLPRO  ***
                         Copyright, University College Cardiff Consultants Limited, 2008

                                    Version 2010.1 linked May 16 2016 07:17:05


 **********************************************************************************************************************************
 LABEL *   Optimization of min3                                                          
 Linux-4.4.3/n051(x86_64) 64 bit mpp version                                             DATE: 24-Oct-22          TIME: 15:42:06  
 **********************************************************************************************************************************

 SHA1:             9e8077add272b0f3cad6f7df79ec5211205f459d
 **********************************************************************************************************************************

 THRESHOLDS:

 ZERO    =  1.00D-12  ONEINT  =  1.00D-16  TWOINT  =  1.00D-16  PREFAC  =  1.00D-14  LOCALI  =  1.00D-09  EORDER  =  1.00D-04
 ENERGY  =  1.00D-12  ETEST   =  0.00D+00  EDENS   =  0.00D+00  THRDEDEF=  1.00D-06  GRADIENT=  1.00D-02  STEP    =  1.00D-03
 ORBITAL =  1.00D-10  CIVEC   =  1.00D-05  COEFF   =  1.00D-04  PRINTCI =  5.00D-02  PUNCHCI =  9.90D+01  OPTGRAD =  1.00D-06
 OPTENERG=  1.00D-06  OPTSTEP =  3.00D-04  THRGRAD =  1.00D-10  COMPRESS=  1.00D-13  VARMIN  =  1.00D-07  VARMAX  =  1.00D-03
 THRDOUB =  0.00D+00  THRDIV  =  1.00D-05  THRRED  =  1.00D-07  THRPSP  =  1.00D+00  THRDC   =  1.00D-10  THRCS   =  1.00D-10
 THRNRM  =  1.00D-08  THREQ   =  0.00D+00  THRDE   =  1.00D+00  THRREF  =  1.00D-05  SPARFAC =  1.00D+00  THRDLP  =  1.00D-07
 THRDIA  =  1.00D-10  THRDLS  =  1.00D-07  THRGPS  =  0.00D+00  THRKEX  =  0.00D+00  THRDIS  =  2.00D-01  THRVAR  =  1.00D-10
 THRLOC  =  1.00D-06  THRGAP  =  1.00D-06  THRLOCT = -1.00D+00  THRGAPT = -1.00D+00  THRORB  =  1.00D-06  THRMLTP =  0.00D+00
 THRCPQCI=  1.00D-10  KEXTA   =  0.00D+00  THRCOARS=  0.00D+00  SYMTOL  =  1.00D-06  GRADTOL =  1.00D-06  THROVL  =  1.00D-08
 THRORTH =  1.00D-08  GRID    =  1.00D-06  GRIDMAX =  1.00D-03  DTMAX   =  0.00D+00

 SETTING GEOMTYP        =    XYZ
 ZUNIT=BOHR
 

 Variable memory set to 1000000000 words,  buffer space   230000 words

 SETTING BASIS          =    CC-PVDZ


 Recomputing integrals since basis changed


 Using spherical harmonics

 Library entry C      S cc-pVDZ              selected for orbital group  1
 Library entry C      P cc-pVDZ              selected for orbital group  1
 Library entry C      D cc-pVDZ              selected for orbital group  1
 Library entry O      S cc-pVDZ              selected for orbital group  2
 Library entry O      P cc-pVDZ              selected for orbital group  2
 Library entry O      D cc-pVDZ              selected for orbital group  2
 Library entry H      S cc-pVDZ              selected for orbital group  3
 Library entry H      P cc-pVDZ              selected for orbital group  3

1PROGRAM * SEWARD (Integral evaluation for generally contracted gaussian basis sets)     Author: Roland Lindh, 1990

 Geometry written to block  1 of record 700


 Point group  C1  



 ATOMIC COORDINATES

 NR  ATOM    CHARGE       X              Y              Z

   1  C       6.00   -1.374522714   -0.025135137    0.002723795
   2  O       8.00    1.303946624    0.121248967   -0.000898321
   3  H       1.00   -2.069637852    1.907824384   -0.001005634
   4  H       1.00   -2.111676856   -0.981260777    1.680460687
   5  H       1.00   -2.111476761   -0.980692720   -1.681478545
   6  H       1.00    1.939643399   -1.572116837    0.000189608

 Bond lengths in Bohr (Angstrom)

 1-2  2.682468904  1-3  2.054149818  1-4  2.066972072  1-5  2.071890220  2-6  1.808756291
     ( 1.419501408)     ( 1.087009267)     ( 1.093794512)     ( 1.096397084)     ( 0.957152606)

 Bond angles

  1-2-6  107.44805654   2-1-3  106.65076989   2-1-4  112.48502665   2-1-5  112.28610178

  3-1-4  108.42556201   3-1-5  108.18889206   4-1-5  108.63968277

 NUCLEAR CHARGE:                   18
 NUMBER OF PRIMITIVE AOS:          82
 NUMBER OF SYMMETRY AOS:           80
 NUMBER OF CONTRACTIONS:           48   (  48A   )
 NUMBER OF CORE ORBITALS:           2   (   2A   )
 NUMBER OF VALENCE ORBITALS:       12   (  12A   )


 NUCLEAR REPULSION ENERGY   40.34591746


 Eigenvalues of metric

         1 0.965E-02 0.176E-01 0.367E-01 0.374E-01 0.379E-01 0.474E-01 0.478E-01 0.515E-01


 Contracted 2-electron integrals neglected if value below      1.0D-16
 AO integral compression algorithm  1   Integral accuracy      1.0D-16

     6.816 MB (compressed) written to integral file (100.0%)

     Node minimum: 6.816 MB, node maximum: 6.816 MB


 NUMBER OF SORTED TWO-ELECTRON INTEGRALS:     692076.     BUFFER LENGTH:  32768
 NUMBER OF SEGMENTS:   1  SEGMENT LENGTH:     692076      RECORD LENGTH: 524288

 Memory used in sort:       1.25 MW

 SORT1 READ      832256. AND WROTE      682150. INTEGRALS IN      2 RECORDS. CPU TIME:     0.00 SEC, REAL TIME:     0.01 SEC
 SORT2 READ      682150. AND WROTE      692076. INTEGRALS IN     26 RECORDS. CPU TIME:     0.02 SEC, REAL TIME:     0.02 SEC

 FILE SIZES:   FILE 1:     8.4 MBYTE,  FILE 4:     8.4 MBYTE,   TOTAL:     16.8 MBYTE

 OPERATOR DM      FOR CENTER  0  COORDINATES:    0.000000    0.000000    0.000000


 **********************************************************************************************************************************
 DATASETS  * FILE   NREC   LENGTH (MB)   RECORD NAMES
              1      19        8.40       500      610      700      900      950      970     1000      129      960     1100   
                                          VAR    BASINP    GEOM    SYMINP    ZMAT    AOBASIS   BASIS     P2S    ABASIS      S 
                                         1400     1410     1200     1210     1080     1600     1650     1300     1700   
                                           T        V       H0       H01     AOSYM     SMH    MOLCAS    ERIS     OPER   

 PROGRAMS   *        TOTAL       INT
 CPU TIMES  *         0.21      0.17
 REAL TIME  *         1.81 SEC
 DISK USED  *        24.23 MB      
 GA USED    *         0.00 MB       (max)       0.00 MB       (current)
 **********************************************************************************************************************************

1PROGRAM * RHF-SCF (CLOSED SHELL)       Authors: W. Meyer, H.-J. Werner


 NUMBER OF ELECTRONS:       9+    9-    SPACE SYMMETRY=1    SPIN SYMMETRY: Singlet 
 CONVERGENCE THRESHOLDS:    1.00E-10 (Density)    1.00E-13 (Energy)
 MAX. NUMBER OF ITERATIONS:      200
 INTERPOLATION TYPE:            DIIS
 INTERPOLATION STEPS:              2 (START)      1 (STEP)
 LEVEL SHIFTS:                  0.00 (CLOSED)  0.00 (OPEN) 



 Orbital guess generated from atomic densities. Full valence occupancy:   14

 Molecular orbital dump at record        2100.2

 ITERATION    DDIFF          GRAD             ENERGY        2-EL.EN.            DIPOLE MOMENTS         DIIS
    1      0.000D+00      0.000D+00      -115.01436773    164.453943   -0.49271   -0.89933    0.00088    0
    2      0.000D+00      0.110D-01      -115.04270775    162.237912   -0.31436   -0.53470    0.00131    1
    3      0.205D-01      0.529D-02      -115.04871153    163.260838   -0.39776   -0.60963    0.00172    2
    4      0.638D-02      0.112D-02      -115.04917340    163.104905   -0.38755   -0.59856    0.00187    3
    5      0.204D-02      0.201D-03      -115.04919419    163.111297   -0.39033   -0.59428    0.00194    4
    6      0.431D-03      0.352D-04      -115.04919497    163.111461   -0.39062   -0.59408    0.00196    5
    7      0.925D-04      0.729D-05      -115.04919500    163.110273   -0.39075   -0.59391    0.00196    6
    8      0.148D-04      0.235D-05      -115.04919500    163.110650   -0.39078   -0.59389    0.00196    7
    9      0.499D-05      0.484D-06      -115.04919501    163.110609   -0.39079   -0.59389    0.00196    6
   10      0.139D-05      0.852D-07      -115.04919501    163.110608   -0.39079   -0.59389    0.00196    6
   11      0.230D-06      0.318D-07      -115.04919501    163.110614   -0.39080   -0.59389    0.00196    6
   12      0.575D-07      0.131D-07      -115.04919501    163.110612   -0.39080   -0.59389    0.00196    7
   13      0.243D-07      0.294D-08      -115.04919501    163.110612   -0.39080   -0.59389    0.00196    7
   14      0.731D-08      0.637D-09      -115.04919501    163.110612   -0.39080   -0.59389    0.00196    7
   15      0.163D-08      0.146D-09      -115.04919501    163.110612   -0.39080   -0.59389    0.00196    7
   16      0.325D-09      0.440D-10      -115.04919501    163.110612   -0.39080   -0.59389    0.00196    7
   17      0.849D-10      0.159D-10      -115.04919501    163.110612   -0.39080   -0.59389    0.00196    7
   18      0.407D-10      0.275D-11      -115.04919501    163.110612   -0.39080   -0.59389    0.00196    0

 Final occupancy:   9

 !RHF STATE 1.1 Energy               -115.049195005090
 Nuclear energy                        40.34591746
 One-electron energy                 -236.95041853
 Two-electron energy                   81.55530606
 Virial quotient                       -1.00084823
 !RHF STATE 1.1 Dipole moment          -0.39079595    -0.59388609     0.00195884
 Dipole moment /Debye                  -0.99323918    -1.50940901     0.00497855

 Orbital energies:

         1.1          2.1          3.1          4.1          5.1          6.1          7.1          8.1          9.1         10.1
    -20.549762   -11.274460    -1.350903    -0.921619    -0.683790    -0.613621    -0.585260    -0.497511    -0.442977     0.184732

        11.1
      0.224783


 **********************************************************************************************************************************
 DATASETS  * FILE   NREC   LENGTH (MB)   RECORD NAMES
              1      19        8.40       500      610      700      900      950      970     1000      129      960     1100   
                                          VAR    BASINP    GEOM    SYMINP    ZMAT    AOBASIS   BASIS     P2S    ABASIS      S 
                                         1400     1410     1200     1210     1080     1600     1650     1300     1700   
                                           T        V       H0       H01     AOSYM     SMH    MOLCAS    ERIS     OPER   

              2       3        0.39       700     1000     2100   
                                         GEOM     BASIS     RHF  

 PROGRAMS   *        TOTAL       RHF       INT
 CPU TIMES  *         0.29      0.08      0.17
 REAL TIME  *         1.93 SEC
 DISK USED  *        24.23 MB      
 GA USED    *         0.00 MB       (max)       0.00 MB       (current)
 **********************************************************************************************************************************


1PROGRAM * CCSD (Closed-shell coupled cluster)     Authors: C. Hampel, H.-J. Werner, 1991, M. Deegan, P.J. Knowles, 1992


 Convergence thresholds:  THRVAR = 1.00D-08  THRDEN = 1.00D-12

 CCSD(T)     terms to be evaluated (factor= 1.000)


 Number of core orbitals:           2 (   2 )
 Number of closed-shell orbitals:   7 (   7 )
 Number of external orbitals:      39 (  39 )

 Molecular orbitals read from record     2100.2  Type=RHF/CANONICAL (state 1.1)

 Number of N-1 electron functions:               7
 Number of N-2 electron functions:              28
 Number of singly external CSFs:               273
 Number of doubly external CSFs:             37401
 Total number of CSFs:                       37675

 Length of J-op  integral file:               0.00 MB
 Length of K-op  integral file:               0.19 MB
 Length of 3-ext integral record:             0.00 MB

 Memory could be reduced to 0.96 Mwords without degradation in triples

 Integral transformation finished. Total CPU:   0.01 sec, npass=  1  Memory used:   0.66 MW

 Reference energy:                   -115.04919501

 MP2 singlet pair energy:              -0.21854411
 MP2 triplet pair energy:              -0.11981151
 MP2 correlation energy:               -0.33835563
 MP2 total energy:                   -115.38755063

 SCS-MP2 correlation energy:           -0.33680232   (PS=  1.200000  PT=  0.333333)
 SCS-MP2 total energy:               -115.38599733

 ITER.      SQ.NORM     CORR.ENERGY   TOTAL ENERGY   ENERGY CHANGE        DEN1      VAR(S)    VAR(P)  DIIS     TIME
   1      1.10721517    -0.36115675  -115.41035175    -0.02280112    -0.01413603  0.91D-03  0.17D-02  1  1     0.06
   2      1.11571956    -0.36309662  -115.41229162    -0.00193987    -0.00923594  0.20D-04  0.16D-03  2  2     0.10
   3      1.11759145    -0.36322331  -115.41241832    -0.00012669    -0.00119879  0.95D-05  0.85D-05  3  3     0.14
   4      1.11810396    -0.36322183  -115.41241684     0.00000148    -0.00025391  0.33D-06  0.67D-06  4  4     0.17
   5      1.11820153    -0.36322222  -115.41241722    -0.00000039    -0.00003587  0.98D-07  0.49D-07  5  5     0.21
   6      1.11822044    -0.36322087  -115.41241587     0.00000135    -0.00000434  0.16D-07  0.40D-08  6  6     0.25
   7      1.11822515    -0.36322045  -115.41241546     0.00000042    -0.00000035  0.20D-08  0.71D-09  6  1     0.29
   8      1.11822640    -0.36322055  -115.41241556    -0.00000010     0.00000074  0.25D-09  0.71D-10  6  3     0.33
   9      1.11822746    -0.36322043  -115.41241543     0.00000012    -0.00000038  0.12D-10  0.10D-10  6  2     0.37
  10      1.11822738    -0.36322043  -115.41241544    -0.00000000     0.00000007  0.11D-11  0.86D-12  6  5     0.40
  11      1.11822741    -0.36322043  -115.41241543     0.00000000    -0.00000000  0.19D-12  0.49D-13  6  4     0.44
  12      1.11822740    -0.36322043  -115.41241544    -0.00000000     0.00000001  0.18D-13  0.98D-14  6  1     0.48
  13      1.11822740    -0.36322043  -115.41241544    -0.00000000    -0.00000000  0.23D-14  0.92D-15  6  6     0.52
  14      1.11822740    -0.36322043  -115.41241544     0.00000000    -0.00000000  0.22D-15  0.12D-15  6  3     0.56
  15      1.11822740    -0.36322043  -115.41241544    -0.00000000    -0.00000000  0.24D-16  0.16D-16  6  2     0.60
  16      1.11822740    -0.36322043  -115.41241544    -0.00000000    -0.00000000  0.55D-17  0.16D-17  6  5     0.63
  17      1.11822740    -0.36322043  -115.41241544    -0.00000000    -0.00000000  0.53D-18  0.25D-18  6  4     0.67
  18      1.11822740    -0.36322043  -115.41241544     0.00000000    -0.00000000  0.84D-19  0.42D-19  6  1     0.71
  19      1.11822740    -0.36322043  -115.41241544    -0.00000000    -0.00000000  0.99D-20  0.42D-20  6  6     0.75
  20      1.11822740    -0.36322043  -115.41241544     0.00000000     0.00000000  0.15D-20  0.57D-21  6  3     0.79

 Norm of t1 vector:      0.04159862      S-energy:    -0.00000000      T1 diagnostic:  0.00786140
                                                                       D1 diagnostic:  0.01744285


 Total CPU time for triples:      0.20 sec


 RESULTS
 =======

  Reference energy                   -115.049195005090
  CCSD singlet pair energy             -0.254461833311
  CCSD triplet pair energy             -0.108758598139
  CCSD correlation energy              -0.363220431450

  Triples (T) contribution             -0.007725812660
  Total correlation energy             -0.370946244110

  CCSD total energy                  -115.412415436540
  CCSD[T] energy                     -115.420430525799
  CCSD-T energy                      -115.419991724923
 !CCSD(T) total energy               -115.420141249200

 Timing summary (sec):

 STEP                 CPU(USER)    SYS     CPU(TOT)    WALL
 Transformation          0.02      0.00      0.02      0.02
 CCSD iterations         0.77      0.04      0.81      0.85
 Triples                 0.20      0.01      0.21      0.21

 Program statistics:

 Available memory in ccsd:               999999704
 Min. memory needed in ccsd:                136801
 Max. memory used in ccsd:                  163198
 Max. memory used in cckext:                182024 (20 integral passes)



 **********************************************************************************************************************************
 DATASETS  * FILE   NREC   LENGTH (MB)   RECORD NAMES
              1      20       10.93       500      610      700      900      950      970     1000      129      960     1100   
                                          VAR    BASINP    GEOM    SYMINP    ZMAT    AOBASIS   BASIS     P2S    ABASIS      S 
                                         1400     1410     1200     1210     1080     1600     1650     1300     1700     1380   
                                           T        V       H0       H01     AOSYM     SMH    MOLCAS    ERIS     OPER     JKOP   

              2       3        0.39       700     1000     2100   
                                         GEOM     BASIS     RHF  

 PROGRAMS   *        TOTAL   CCSD(T)       RHF       INT
 CPU TIMES  *         1.29      1.00      0.08      0.17
 REAL TIME  *         4.34 SEC
 DISK USED  *        25.66 MB      
 GA USED    *         0.00 MB       (max)       0.00 MB       (current)
 **********************************************************************************************************************************

        CCSD(T)         RHF-SCF 
   -115.42014125   -115.04919501
 **********************************************************************************************************************************
 Variable memory released
