
 Working directory              : /scratch/mel64643/tmp/40073462/
 Global scratch directory       : /scratch/mel64643/tmp/40073462/
 Wavefunction directory         : /home/mel64643/wfu/
 Main file repository           : /scratch/mel64643/tmp/40073462/

 id        : ccgc

 Nodes     nprocs
 a1-8         3
 Distribution of processes:   nprocs(total)=    4   nprocs(compute)=    3   nprocs(helper)=    1
 GA implementation: MPI file
 GA implementation (serial work in mppx): MPI file

 Using customized tuning parameters: mindgm=1; mindgv=20; mindgc=4; mindgr=1; noblas=0; minvec=7
 default implementation of scratch files=sf  


 Variables initialized (1015), CPU time= 0.01 sec
 ***,Optimization of min3
 memory,1000,m
 gthresh,energy=1.0d-12,orbital=1.0d-10,oneint=1.0d-16,twoint=1.0d-16,optgrad=1.0d-6,compress=1.0d-13
 geomtyp=xyz
 
  bohr
  geometry = {
  6
  arbitrary comment
  C   -1.3821932895   -0.0220704262    0.0000002517
  O    1.3107785287    0.1154100666    0.0000002275
  H   -2.0747300987    1.9011028963   -0.0000794642
  H   -2.1232086387   -0.9744246158    1.6901526451
  H   -2.1232020405   -0.9745565661   -1.6900807046
  H    1.9688313787   -1.5755934747   -0.0000013656
 }
 
 basis=cc-pvdz
 {rhf;maxit,200}
 {ccsd(t);maxit,200}
 Commands initialized (818), CPU time= 0.01 sec, 672 directives.
 Default parameters read. Elapsed time= 0.11 sec

 Checking input...
 Passed
1


                                         ***  PROGRAM SYSTEM MOLPRO  ***
                                       Copyright, TTI GmbH Stuttgart, 2015
                                    Version 2022.1 linked Mar  4 2022 00:40:14


 **********************************************************************************************************************************
 LABEL *   Optimization of min3                                                          
  64 bit mpp version                                                                     DATE: 07-Aug-25          TIME: 21:27:35  
 **********************************************************************************************************************************

 SHA1:             31073afc4d8441e10870424e0d77336a33bc4286
 **********************************************************************************************************************************

 Memory per process:      1000 MW
 Total memory per node:   3000 MW

 GA preallocation disabled
 GA check disabled

 Variable memory set to 1000.0 MW


 THRESHOLDS:

 ZERO    =  1.00D-12  ONEINT  =  1.00D-16  TWOINT  =  1.00D-16  PREFAC  =  1.00D-14  XXXXXX  =  1.00D-09  EORDER  =  1.00D-04
 ENERGY  =  1.00D-12  ETEST   =  0.00D+00  EDENS   =  0.00D+00  THRDEDEF=  1.00D-06  GRADIENT=  1.00D-05  STEP    =  1.00D-03
 ORBITAL =  1.00D-10  CIVEC   =  1.00D-05  COEFF   =  1.00D-04  PRINTCI =  5.00D-02  PUNCHCI =  9.90D+01  OPTGRAD =  1.00D-06
 OPTENERG=  1.00D-06  OPTSTEP =  3.00D-04  THRGRAD =  1.00D-10  COMPRESS=  1.00D-13  VARMIN  =  1.00D-07  VARMAX  =  1.00D-03
 THRDOUB =  0.00D+00  THRDIV  =  1.00D-05  THRRED  =  1.00D-07  THRPSP  =  1.00D+00  THRDC   =  1.00D-10  THRCS   =  1.00D-10
 THRNRM  =  1.00D-08  THREQ   =  0.00D+00  THRDE   =  1.00D+00  THRREF  =  1.00D-05  SPARFAC =  1.00D+00  THRDLP  =  1.00D-07
 THRDIA  =  1.00D-10  THRDLS  =  1.00D-07  THRGPS  =  0.00D+00  THRKEX  =  0.00D+00  THRDIS  =  2.00D-01  THRVAR  =  1.00D-10
 THRLOC  =  1.00D-06  THRGAP  =  1.00D-06  THRLOCT = -1.00D+00  THRGAPT = -1.00D+00  THRORB  =  1.00D-06  THRMLTP =  0.00D+00
 THRCPQCI=  1.00D-10  KEXTA   =  0.00D+00  THRCOARS=  0.00D+00  SYMTOL  =  1.00D-06  GRADTOL =  1.00D-06  THROVL  =  1.00D-08
 THRORTH =  1.00D-08  THRDLOVL= -1.00D+00  GRID    =  1.00D-06  GRIDMAX =  1.00D-03  DTMAX   =  0.00D+00  THROCCDE=  1.00D-01
 THROCCDE=  1.00D-01  THRPRINT=  2.50D-01

 SETTING GEOMTYP        =    XYZ
 ZUNIT=BOHR

 SETTING BASIS          =    CC-PVDZ


 Recomputing integrals since basis changed


 Using spherical harmonics

 Library entry C      S cc-pVDZ              selected for orbital group  1
 Library entry C      P cc-pVDZ              selected for orbital group  1
 Library entry C      D cc-pVDZ              selected for orbital group  1
 Library entry O      S cc-pVDZ              selected for orbital group  2
 Library entry O      P cc-pVDZ              selected for orbital group  2
 Library entry O      D cc-pVDZ              selected for orbital group  2
 Library entry H      S cc-pVDZ              selected for orbital group  3
 Library entry H      P cc-pVDZ              selected for orbital group  3


 PROGRAM * SEWARD (Integral evaluation for generally contracted gaussian basis sets)     Author: Roland Lindh, 1990

 Geometry written to block  1 of record 700


 Point group  C1  



 ATOMIC COORDINATES

 NR  ATOM    CHARGE       X              Y              Z

   1  C       6.00   -1.382193289   -0.022070426    0.000000252
   2  O       8.00    1.310778529    0.115410067    0.000000227
   3  H       1.00   -2.074730099    1.901102896   -0.000079464
   4  H       1.00   -2.123208639   -0.974424616    1.690152645
   5  H       1.00   -2.123202040   -0.974556566   -1.690080705
   6  H       1.00    1.968831379   -1.575593475   -0.000001366

 Bond lengths in Bohr (Angstrom)

 1-2  2.696478834  1-3  2.044065279  1-4  2.076703485  1-5  2.076703507  2-6  1.814532042
     ( 1.426915148)     ( 1.081672764)     ( 1.098944158)     ( 1.098944170)     ( 0.960209005)

 Bond angles

  1-2-6  108.34096147   2-1-3  106.88150021   2-1-4  112.31758418   2-1-5  112.31758714

  3-1-4  108.09574977   3-1-5  108.09559159   4-1-5  108.94681765

 NUCLEAR CHARGE:                   18
 NUMBER OF PRIMITIVE AOS:          82
 NUMBER OF SYMMETRY AOS:           80
 NUMBER OF CONTRACTIONS:           48   (   48A   )
 NUMBER OF INNER CORE ORBITALS:     0   (    0A   )
 NUMBER OF OUTER CORE ORBITALS:     2   (    2A   )
 NUMBER OF VALENCE ORBITALS:       12   (   12A   )


 NUCLEAR REPULSION ENERGY   40.18919603

 Eigenvalues of metric

         1 0.969E-02 0.178E-01 0.365E-01 0.379E-01 0.379E-01 0.478E-01 0.483E-01 0.514E-01


 Contracted 2-electron integrals neglected if value below      1.0D-16
 AO integral compression algorithm  1   Integral accuracy      1.0D-16

     6.554 MB (compressed) written to integral file (100.0%)

     Node minimum: 2.097 MB, node maximum: 2.359 MB


 NUMBER OF SORTED TWO-ELECTRON INTEGRALS:     231084.     BUFFER LENGTH:  32768
 NUMBER OF SEGMENTS:   1  SEGMENT LENGTH:     231084      RECORD LENGTH: 524288

 Memory used in sort:       0.79 MW

 SORT1 READ      832256. AND WROTE      227681. INTEGRALS IN      1 RECORDS. CPU TIME:     0.01 SEC, REAL TIME:     0.03 SEC
 SORT2 READ      682146. AND WROTE      692076. INTEGRALS IN     24 RECORDS. CPU TIME:     0.01 SEC, REAL TIME:     0.03 SEC

 Node minimum:      230300.  Node maximum:      231084. integrals

 OPERATOR DM      FOR CENTER  0  COORDINATES:    0.000000    0.000000    0.000000


 **********************************************************************************************************************************
 DATASETS  * FILE   NREC   LENGTH (MB)   RECORD NAMES
              1      18       28.73       500      610      700      900      950      970     1000      129      960     1100   
                                          VAR    BASINP    GEOM    SYMINP    ZMAT    AOBASIS   BASIS     P2S    ABASIS      S 
                                         1400     1410     1200     1210     1080     1600     1650     1700   
                                           T        V       H0       H01     AOSYM     SMH    MOLCAS    OPER   

 PROGRAMS   *        TOTAL       INT
 CPU TIMES  *         0.50      0.36
 REAL TIME  *         1.46 SEC
 DISK USED  *        29.07 MB (local),      104.31 MB (total)
 GA USED    *         0.00 MB       (max)       0.00 MB       (current)
 **********************************************************************************************************************************


 Program * Restricted Hartree-Fock

 Orbital guess generated from atomic densities. Full valence occupancy:   14

 Initial occupancy:   9

 NELEC=   18   SYM=1   MS2= 0   THRE=1.0D-12   THRD=1.0D-10   THRG=1.0D-10  HFMA2=F  DIIS_START=2   DIIS_MAX=10   DIIS_INCORE=F

 Level shifts:    0.00 (CLOSED)    0.00 (OPEN)    0.30 (GAP_MIN)

 ITER           ETOT              DE          GRAD        DDIFF     DIIS  NEXP   TIME(IT)  TIME(TOT)  DIAG
   1     -115.01399731    -115.01399731     0.00D+00     0.16D+00     0     0       0.01      0.01    start
   2     -115.04228817      -0.02829086     0.10D-01     0.20D-01     1     0       0.00      0.01    diag
   3     -115.04835936      -0.00607119     0.49D-02     0.64D-02     2     0       0.00      0.01    diag
   4     -115.04882248      -0.00046312     0.10D-02     0.20D-02     3     0       0.01      0.02    diag
   5     -115.04884334      -0.00002086     0.18D-03     0.43D-03     4     0       0.00      0.02    diag
   6     -115.04884411      -0.00000078     0.32D-04     0.93D-04     5     0       0.01      0.03    diag
   7     -115.04884414      -0.00000003     0.67D-05     0.15D-04     6     0       0.01      0.04    diag
   8     -115.04884414      -0.00000000     0.22D-05     0.50D-05     7     0       0.00      0.04    fixocc
   9     -115.04884414      -0.00000000     0.44D-06     0.14D-05     8     0       0.00      0.04    diag
  10     -115.04884414      -0.00000000     0.70D-07     0.23D-06     9     0       0.00      0.04    diag/orth
  11     -115.04884414      -0.00000000     0.16D-07     0.46D-07     9     0       0.01      0.05    diag
  12     -115.04884414       0.00000000     0.43D-08     0.13D-07     9     0       0.00      0.05    diag
  13     -115.04884414      -0.00000000     0.67D-09     0.19D-08     9     0       0.00      0.05    diag
  14     -115.04884414       0.00000000     0.15D-09     0.39D-09     9     0       0.00      0.05    diag
  15     -115.04884414      -0.00000000     0.59D-10     0.11D-09     9     0       0.01      0.06    diag
  16     -115.04884414       0.00000000     0.14D-10     0.32D-10     9     0       0.00      0.06    diag
  17     -115.04884414      -0.00000000     0.23D-11     0.45D-11     0     0       0.00      0.06    diag

 Final occupancy:   9

 !RHF STATE 1.1 Energy               -115.048844144747
  RHF One-electron energy            -236.653613717141
  RHF Two-electron energy              81.415573546179
  RHF Kinetic energy                  114.924115846242
  RHF Nuclear energy                   40.189196026214
  RHF Virial quotient                  -1.001085310055

 !RHF STATE 1.1 Dipole moment          -0.39518728    -0.58952764    -0.00000290
 Dipole moment /Debye                  -1.00446588    -1.49842980    -0.00000737

 Orbital energies:

           1.1          2.1          3.1          4.1          5.1          6.1          7.1          8.1          9.1         10.1
    -20.549664   -11.275531    -1.346831    -0.921895    -0.680740    -0.611702    -0.584993    -0.496739    -0.443139     0.184844

          11.1
      0.223692


 HOMO      9.1    -0.443139 =     -12.0584eV
 LUMO     10.1     0.184844 =       5.0299eV
 LUMO-HOMO         0.627983 =      17.0883eV

 Orbitals saved in record  2100.2


 **********************************************************************************************************************************
 DATASETS  * FILE   NREC   LENGTH (MB)   RECORD NAMES
              1      18       28.73       500      610      700      900      950      970     1000      129      960     1100   
                                          VAR    BASINP    GEOM    SYMINP    ZMAT    AOBASIS   BASIS     P2S    ABASIS      S 
                                         1400     1410     1200     1210     1080     1600     1650     1700   
                                           T        V       H0       H01     AOSYM     SMH    MOLCAS    OPER   

              2       4        0.47       700     1000      520     2100   
                                         GEOM     BASIS   MCVARS     RHF  

 PROGRAMS   *        TOTAL   RHF-SCF       INT
 CPU TIMES  *         0.56      0.06      0.36
 REAL TIME  *         1.73 SEC
 DISK USED  *        29.40 MB (local),      105.30 MB (total)
 GA USED    *         0.00 MB       (max)       0.00 MB       (current)
 **********************************************************************************************************************************


 PROGRAM * CCSD (Closed-shell coupled cluster)     Authors: C. Hampel, H.-J. Werner, 1991, M. Deegan, P.J. Knowles, 1992


 Convergence thresholds:  THRVAR = 1.00D-08  THRDEN = 1.00D-12

 CCSD(T)     terms to be evaluated (factor= 1.000)


 Number of core orbitals:           2 (   2 )
 Number of closed-shell orbitals:   7 (   7 )
 Number of external orbitals:      39 (  39 )

 Molecular orbitals read from record     2100.2  Type=RHF/CANONICAL  

 Number of N-1 electron functions:               7
 Number of N-2 electron functions:              28
 Number of singly external CSFs:               273
 Number of doubly external CSFs:             37401
 Total number of CSFs:                       37675

 Length of J-op  integral file:               0.00 MB
 Length of K-op  integral file:               0.16 MB
 Length of 3-ext integral record:             0.00 MB

 Memory could be reduced to 0.73 Mwords without degradation in triples

 Integral transformation finished. Total CPU:   0.02 sec, npass=  1  Memory used:   0.66 MW

 Reference energy:                   -115.04884414

 MP2 singlet pair energy:              -0.21877272
 MP2 triplet pair energy:              -0.11981672
 MP2 correlation energy:               -0.33858944
 MP2 total energy:                   -115.38743358

 SCS-MP2 correlation energy:           -0.33707989   (PS=  1.200000  PT=  0.333333)
 SCS-MP2 total energy:               -115.38592403

 ITER.      SQ.NORM     CORR.ENERGY   TOTAL ENERGY   ENERGY CHANGE        DEN1      VAR(S)    VAR(P)  DIIS     TIME  TIME/IT
   1      1.10752719    -0.36139712  -115.41024126    -0.02280768    -0.01409514  0.92D-03  0.17D-02  1  1     0.06     0.05
   2      1.11610022    -0.36335168  -115.41219582    -0.00195456    -0.00927792  0.20D-04  0.16D-03  2  2     0.08     0.04
   3      1.11800632    -0.36348106  -115.41232520    -0.00012938    -0.00121606  0.98D-05  0.87D-05  3  3     0.10     0.04
   4      1.11853051    -0.36347965  -115.41232380     0.00000140    -0.00025821  0.36D-06  0.69D-06  4  4     0.12     0.04
   5      1.11863184    -0.36348002  -115.41232416    -0.00000036    -0.00003695  0.11D-06  0.51D-07  5  5     0.14     0.04
   6      1.11865193    -0.36347861  -115.41232275     0.00000141    -0.00000453  0.17D-07  0.43D-08  6  6     0.16     0.04
   7      1.11865698    -0.36347817  -115.41232231     0.00000044    -0.00000037  0.21D-08  0.77D-09  6  1     0.18     0.04
   8      1.11865833    -0.36347827  -115.41232242    -0.00000011     0.00000078  0.27D-09  0.78D-10  6  3     0.20     0.04
   9      1.11865944    -0.36347814  -115.41232229     0.00000013    -0.00000040  0.14D-10  0.11D-10  6  2     0.22     0.05
  10      1.11865936    -0.36347815  -115.41232229    -0.00000000     0.00000008  0.11D-11  0.95D-12  6  5     0.23     0.06
  11      1.11865939    -0.36347815  -115.41232229     0.00000000    -0.00000000  0.21D-12  0.54D-13  6  4     0.26     0.06
  12      1.11865938    -0.36347815  -115.41232229    -0.00000000     0.00000001  0.20D-13  0.11D-13  6  1     0.28     0.06
  13      1.11865938    -0.36347815  -115.41232229    -0.00000000    -0.00000000  0.25D-14  0.10D-14  6  6     0.30     0.06
  14      1.11865938    -0.36347815  -115.41232229     0.00000000    -0.00000000  0.23D-15  0.13D-15  6  3     0.32     0.06
  15      1.11865938    -0.36347815  -115.41232229    -0.00000000    -0.00000000  0.27D-16  0.18D-16  6  2     0.34     0.06
  16      1.11865938    -0.36347815  -115.41232229    -0.00000000    -0.00000000  0.61D-17  0.18D-17  6  5     0.36     0.06
  17      1.11865938    -0.36347815  -115.41232229    -0.00000000    -0.00000000  0.60D-18  0.27D-18  6  4     0.38     0.05
  18      1.11865938    -0.36347815  -115.41232229     0.00000000    -0.00000000  0.91D-19  0.47D-19  6  1     0.40     0.05
  19      1.11865938    -0.36347815  -115.41232229    -0.00000000    -0.00000000  0.11D-19  0.47D-20  6  6     0.42     0.05
  20      1.11865938    -0.36347815  -115.41232229     0.00000000     0.00000000  0.15D-20  0.62D-21  6  3     0.44     0.05

 Norm of t1 vector:      0.04195597      S-energy:    -0.00000000      T1 diagnostic:  0.00792893
                                                                       D1 diagnostic:  0.01780920
                                                                       D2 diagnostic:  0.13454991 (internal)


 Total CPU time for triples:      0.08 sec


 RESULTS
 =======

  Reference energy                   -115.048844144747
  CCSD singlet pair energy             -0.254795037264
  CCSD triplet pair energy             -0.108683110224
  CCSD correlation energy              -0.363478147488

  Triples (T) contribution             -0.007759402659
  Total correlation energy             -0.371237550147

  CCSD total energy                  -115.412322292235
  CCSD[T] energy                     -115.420374654819
  CCSD-T energy                      -115.419930258575
 !CCSD(T) total energy               -115.420081694894

 Timing summary (sec):

 STEP                 CPU(USER)    SYS     CPU(TOT)    WALL
 Transformation          0.03      0.01      0.04      0.05
 CCSD iterations         0.42      0.07      0.49      1.05
 Triples                 0.08      0.00      0.08      0.09

 Program statistics:

 Available memory in ccsd:               999999795
 Min. memory needed in ccsd:                136177
 Max. memory used in ccsd:                  162910
 Max. memory used in cckext:                178997 (20 integral passes)



 **********************************************************************************************************************************
 DATASETS  * FILE   NREC   LENGTH (MB)   RECORD NAMES
              1      19       31.13       500      610      700      900      950      970     1000      129      960     1100   
                                          VAR    BASINP    GEOM    SYMINP    ZMAT    AOBASIS   BASIS     P2S    ABASIS      S 
                                         1400     1410     1200     1210     1080     1600     1650     1700     1380   
                                           T        V       H0       H01     AOSYM     SMH    MOLCAS    OPER     JKOP   

              2       4        0.47       700     1000      520     2100   
                                         GEOM     BASIS   MCVARS     RHF  

 PROGRAMS   *        TOTAL   CCSD(T)   RHF-SCF       INT
 CPU TIMES  *         1.12      0.55      0.06      0.36
 REAL TIME  *         3.01 SEC
 DISK USED  *        35.56 MB (local),      115.95 MB (total)
 SF USED    *         5.97 MB
 GA USED    *         0.00 MB       (max)       0.00 MB       (current)
 **********************************************************************************************************************************

 CCSD(T)/cc-pVDZ energy=   -115.420081694894

         CCSD(T)         RHF-SCF
   -115.42008169   -115.04884414
 **********************************************************************************************************************************
 Molpro calculation terminated
