
 Primary working directories    : /tmp/795519.94.gen6.q
 Secondary working directories  : /tmp/795519.94.gen6.q
 Wavefunction directory         : /home/vulcan/mel64643/wfu/
 Main file repository           : /tmp/795519.94.gen6.q/

 ARCHNAME  : Linux/x86_64
 FC        : /opt/intel/compilers_and_libraries_2016.1.150/linux/bin/intel64/ifort
 FCVERSION : 16.0.1
 BLASLIB   : -mkl
 id        : ccgc

 Nodes     nprocs
 n077         1
 ga_uses_ma=false, calling ma_init with nominal heap.
 GA-space will be limited to   8.0 MW (determined by -G option)

 Using customized tuning parameters: mindgm=10; mindgv=16; mindgc=4; mindgr=1; noblas=0; mincuda=1000; minvec=7
 default implementation of scratch files=df  

 ***,Optimization of min3
 memory,1000,m
 gthresh,energy=1.0d-12,orbital=1.0d-10,oneint=1.0d-16,twoint=1.0d-16,optgrad=1.0d-6,compress=1.0d-13
 geomtyp=xyz
 
  bohr
  geometry = {
  6
  arbitrary comment
  C   -1.3741323494   -0.0231641397    0.0000004119
  O    1.3057249154    0.1258055637    0.0000002780
  H   -2.0762382281    1.9140916510   -0.0000801126
  H   -2.1101413452   -0.9830034737    1.6867793671
  H   -2.1101343592   -0.9831351368   -1.6867070271
  H    1.9411972065   -1.5807265845   -0.0000013273
 }
 
 basis=cc-pvdz
 {rhf;maxit,200}
 {ccsd(t);maxit,200}

 Variables initialized (661), CPU time= 0.01 sec
 Commands  initialized (458), CPU time= 0.00 sec, 486 directives.
 Default parameters read. Elapsed time= 0.04 sec

 Checking input...
 Passed
1


                                         ***  PROGRAM SYSTEM MOLPRO  ***
                         Copyright, University College Cardiff Consultants Limited, 2008

                                    Version 2010.1 linked May 16 2016 07:17:05


 **********************************************************************************************************************************
 LABEL *   Optimization of min3                                                          
 Linux-4.4.3/n077(x86_64) 64 bit mpp version                                             DATE: 24-Oct-22          TIME: 15:42:51  
 **********************************************************************************************************************************

 SHA1:             9e8077add272b0f3cad6f7df79ec5211205f459d
 **********************************************************************************************************************************

 THRESHOLDS:

 ZERO    =  1.00D-12  ONEINT  =  1.00D-16  TWOINT  =  1.00D-16  PREFAC  =  1.00D-14  LOCALI  =  1.00D-09  EORDER  =  1.00D-04
 ENERGY  =  1.00D-12  ETEST   =  0.00D+00  EDENS   =  0.00D+00  THRDEDEF=  1.00D-06  GRADIENT=  1.00D-02  STEP    =  1.00D-03
 ORBITAL =  1.00D-10  CIVEC   =  1.00D-05  COEFF   =  1.00D-04  PRINTCI =  5.00D-02  PUNCHCI =  9.90D+01  OPTGRAD =  1.00D-06
 OPTENERG=  1.00D-06  OPTSTEP =  3.00D-04  THRGRAD =  1.00D-10  COMPRESS=  1.00D-13  VARMIN  =  1.00D-07  VARMAX  =  1.00D-03
 THRDOUB =  0.00D+00  THRDIV  =  1.00D-05  THRRED  =  1.00D-07  THRPSP  =  1.00D+00  THRDC   =  1.00D-10  THRCS   =  1.00D-10
 THRNRM  =  1.00D-08  THREQ   =  0.00D+00  THRDE   =  1.00D+00  THRREF  =  1.00D-05  SPARFAC =  1.00D+00  THRDLP  =  1.00D-07
 THRDIA  =  1.00D-10  THRDLS  =  1.00D-07  THRGPS  =  0.00D+00  THRKEX  =  0.00D+00  THRDIS  =  2.00D-01  THRVAR  =  1.00D-10
 THRLOC  =  1.00D-06  THRGAP  =  1.00D-06  THRLOCT = -1.00D+00  THRGAPT = -1.00D+00  THRORB  =  1.00D-06  THRMLTP =  0.00D+00
 THRCPQCI=  1.00D-10  KEXTA   =  0.00D+00  THRCOARS=  0.00D+00  SYMTOL  =  1.00D-06  GRADTOL =  1.00D-06  THROVL  =  1.00D-08
 THRORTH =  1.00D-08  GRID    =  1.00D-06  GRIDMAX =  1.00D-03  DTMAX   =  0.00D+00

 SETTING GEOMTYP        =    XYZ
 ZUNIT=BOHR
 

 Variable memory set to 1000000000 words,  buffer space   230000 words

 SETTING BASIS          =    CC-PVDZ


 Recomputing integrals since basis changed


 Using spherical harmonics

 Library entry C      S cc-pVDZ              selected for orbital group  1
 Library entry C      P cc-pVDZ              selected for orbital group  1
 Library entry C      D cc-pVDZ              selected for orbital group  1
 Library entry O      S cc-pVDZ              selected for orbital group  2
 Library entry O      P cc-pVDZ              selected for orbital group  2
 Library entry O      D cc-pVDZ              selected for orbital group  2
 Library entry H      S cc-pVDZ              selected for orbital group  3
 Library entry H      P cc-pVDZ              selected for orbital group  3

1PROGRAM * SEWARD (Integral evaluation for generally contracted gaussian basis sets)     Author: Roland Lindh, 1990

 Geometry written to block  1 of record 700


 Point group  C1  



 ATOMIC COORDINATES

 NR  ATOM    CHARGE       X              Y              Z

   1  C       6.00   -1.374132349   -0.023164140    0.000000412
   2  O       8.00    1.305724915    0.125805564    0.000000278
   3  H       1.00   -2.076238228    1.914091651   -0.000080113
   4  H       1.00   -2.110141345   -0.983003474    1.686779367
   5  H       1.00   -2.110134359   -0.983135137   -1.686707027
   6  H       1.00    1.941197207   -1.580726585   -0.000001327

 Bond lengths in Bohr (Angstrom)

 1-2  2.683994585  1-3  2.060561251  1-4  2.075626178  1-5  2.075626474  2-6  1.821009886
     ( 1.420308763)     ( 1.090402052)     ( 1.098374068)     ( 1.098374224)     ( 0.963636929)

 Bond angles

  1-2-6  107.24242138   2-1-3  106.73995491   2-1-4  112.31609255   2-1-5  112.31609410

  3-1-4  108.29862184   3-1-5  108.29845436   4-1-5  108.70993807

 NUCLEAR CHARGE:                   18
 NUMBER OF PRIMITIVE AOS:          82
 NUMBER OF SYMMETRY AOS:           80
 NUMBER OF CONTRACTIONS:           48   (  48A   )
 NUMBER OF CORE ORBITALS:           2   (   2A   )
 NUMBER OF VALENCE ORBITALS:       12   (  12A   )


 NUCLEAR REPULSION ENERGY   40.26422881


 Eigenvalues of metric

         1 0.968E-02 0.177E-01 0.371E-01 0.378E-01 0.385E-01 0.478E-01 0.483E-01 0.520E-01


 Contracted 2-electron integrals neglected if value below      1.0D-16
 AO integral compression algorithm  1   Integral accuracy      1.0D-16

     6.554 MB (compressed) written to integral file ( 94.5%)

     Node minimum: 6.554 MB, node maximum: 6.554 MB


 NUMBER OF SORTED TWO-ELECTRON INTEGRALS:     692076.     BUFFER LENGTH:  32768
 NUMBER OF SEGMENTS:   1  SEGMENT LENGTH:     692076      RECORD LENGTH: 524288

 Memory used in sort:       1.25 MW

 SORT1 READ      832256. AND WROTE      682148. INTEGRALS IN      2 RECORDS. CPU TIME:     0.00 SEC, REAL TIME:     0.01 SEC
 SORT2 READ      682148. AND WROTE      692076. INTEGRALS IN     25 RECORDS. CPU TIME:     0.02 SEC, REAL TIME:     0.02 SEC

 FILE SIZES:   FILE 1:     8.0 MBYTE,  FILE 4:     8.4 MBYTE,   TOTAL:     16.4 MBYTE

 OPERATOR DM      FOR CENTER  0  COORDINATES:    0.000000    0.000000    0.000000


 **********************************************************************************************************************************
 DATASETS  * FILE   NREC   LENGTH (MB)   RECORD NAMES
              1      19        8.03       500      610      700      900      950      970     1000      129      960     1100   
                                          VAR    BASINP    GEOM    SYMINP    ZMAT    AOBASIS   BASIS     P2S    ABASIS      S 
                                         1400     1410     1200     1210     1080     1600     1650     1300     1700   
                                           T        V       H0       H01     AOSYM     SMH    MOLCAS    ERIS     OPER   

 PROGRAMS   *        TOTAL       INT
 CPU TIMES  *         0.18      0.14
 REAL TIME  *         0.38 SEC
 DISK USED  *        23.60 MB      
 GA USED    *         0.00 MB       (max)       0.00 MB       (current)
 **********************************************************************************************************************************

1PROGRAM * RHF-SCF (CLOSED SHELL)       Authors: W. Meyer, H.-J. Werner


 NUMBER OF ELECTRONS:       9+    9-    SPACE SYMMETRY=1    SPIN SYMMETRY: Singlet 
 CONVERGENCE THRESHOLDS:    1.00E-10 (Density)    1.00E-13 (Energy)
 MAX. NUMBER OF ITERATIONS:      200
 INTERPOLATION TYPE:            DIIS
 INTERPOLATION STEPS:              2 (START)      1 (STEP)
 LEVEL SHIFTS:                  0.00 (CLOSED)  0.00 (OPEN) 



 Orbital guess generated from atomic densities. Full valence occupancy:   14

 Molecular orbital dump at record        2100.2

 ITERATION    DDIFF          GRAD             ENERGY        2-EL.EN.            DIPOLE MOMENTS         DIIS
    1      0.000D+00      0.000D+00      -115.01394730    164.311764   -0.49110   -0.90757   -0.00000    0
    2      0.000D+00      0.110D-01      -115.04236988    162.090052   -0.31261   -0.53669   -0.00000    1
    3      0.205D-01      0.532D-02      -115.04845598    163.117788   -0.39678   -0.61279   -0.00000    2
    4      0.641D-02      0.112D-02      -115.04892284    162.960897   -0.38681   -0.60123   -0.00000    3
    5      0.204D-02      0.204D-03      -115.04894427    162.967634   -0.38972   -0.59682   -0.00000    4
    6      0.437D-03      0.358D-04      -115.04894509    162.967652   -0.39006   -0.59659   -0.00000    5
    7      0.937D-04      0.738D-05      -115.04894512    162.966505   -0.39020   -0.59642   -0.00000    6
    8      0.153D-04      0.237D-05      -115.04894513    162.966894   -0.39024   -0.59639   -0.00000    7
    9      0.501D-05      0.500D-06      -115.04894513    162.966850   -0.39026   -0.59639   -0.00000    6
   10      0.143D-05      0.899D-07      -115.04894513    162.966849   -0.39026   -0.59639   -0.00000    6
   11      0.240D-06      0.336D-07      -115.04894513    162.966855   -0.39026   -0.59639   -0.00000    6
   12      0.613D-07      0.141D-07      -115.04894513    162.966853   -0.39026   -0.59639   -0.00000    7
   13      0.265D-07      0.314D-08      -115.04894513    162.966853   -0.39026   -0.59639   -0.00000    7
   14      0.784D-08      0.663D-09      -115.04894513    162.966853   -0.39026   -0.59639   -0.00000    7
   15      0.169D-08      0.155D-09      -115.04894513    162.966853   -0.39026   -0.59639   -0.00000    7
   16      0.345D-09      0.462D-10      -115.04894513    162.966853   -0.39026   -0.59639   -0.00000    7
   17      0.897D-10      0.167D-10      -115.04894513    162.966853   -0.39026   -0.59639   -0.00000    7
   18      0.427D-10      0.305D-11      -115.04894513    162.966853   -0.39026   -0.59639   -0.00000    7
   19      0.712D-11      0.682D-12      -115.04894513    162.966853   -0.39026   -0.59639   -0.00000    7
   20      0.173D-11      0.295D-12      -115.04894513    162.966853   -0.39026   -0.59639   -0.00000    7
   21      0.534D-12      0.764D-13      -115.04894513    162.966853   -0.39026   -0.59639   -0.00000    7
   22      0.171D-12      0.181D-13      -115.04894513    162.966853   -0.39026   -0.59639   -0.00000    0

 Final occupancy:   9

 !RHF STATE 1.1 Energy               -115.048945127983
 Nuclear energy                        40.26422881
 One-electron energy                 -236.79660065
 Two-electron energy                   81.48342670
 Virial quotient                       -1.00108882
 !RHF STATE 1.1 Dipole moment          -0.39025959    -0.59639293    -0.00000275
 Dipole moment /Debye                  -0.99187597    -1.51578033    -0.00000698

 Orbital energies:

         1.1          2.1          3.1          4.1          5.1          6.1          7.1          8.1          9.1         10.1
    -20.550654   -11.275641    -1.349450    -0.919882    -0.682080    -0.612966    -0.584602    -0.496858    -0.442741     0.184045

        11.1
      0.223950


 **********************************************************************************************************************************
 DATASETS  * FILE   NREC   LENGTH (MB)   RECORD NAMES
              1      19        8.03       500      610      700      900      950      970     1000      129      960     1100   
                                          VAR    BASINP    GEOM    SYMINP    ZMAT    AOBASIS   BASIS     P2S    ABASIS      S 
                                         1400     1410     1200     1210     1080     1600     1650     1300     1700   
                                           T        V       H0       H01     AOSYM     SMH    MOLCAS    ERIS     OPER   

              2       3        0.39       700     1000     2100   
                                         GEOM     BASIS     RHF  

 PROGRAMS   *        TOTAL       RHF       INT
 CPU TIMES  *         0.26      0.08      0.14
 REAL TIME  *         0.50 SEC
 DISK USED  *        23.60 MB      
 GA USED    *         0.00 MB       (max)       0.00 MB       (current)
 **********************************************************************************************************************************


1PROGRAM * CCSD (Closed-shell coupled cluster)     Authors: C. Hampel, H.-J. Werner, 1991, M. Deegan, P.J. Knowles, 1992


 Convergence thresholds:  THRVAR = 1.00D-08  THRDEN = 1.00D-12

 CCSD(T)     terms to be evaluated (factor= 1.000)


 Number of core orbitals:           2 (   2 )
 Number of closed-shell orbitals:   7 (   7 )
 Number of external orbitals:      39 (  39 )

 Molecular orbitals read from record     2100.2  Type=RHF/CANONICAL (state 1.1)

 Number of N-1 electron functions:               7
 Number of N-2 electron functions:              28
 Number of singly external CSFs:               273
 Number of doubly external CSFs:             37401
 Total number of CSFs:                       37675

 Length of J-op  integral file:               0.00 MB
 Length of K-op  integral file:               0.19 MB
 Length of 3-ext integral record:             0.00 MB

 Memory could be reduced to 0.96 Mwords without degradation in triples

 Integral transformation finished. Total CPU:   0.01 sec, npass=  1  Memory used:   0.66 MW

 Reference energy:                   -115.04894513

 MP2 singlet pair energy:              -0.21889273
 MP2 triplet pair energy:              -0.11991764
 MP2 correlation energy:               -0.33881037
 MP2 total energy:                   -115.38775550

 SCS-MP2 correlation energy:           -0.33728670   (PS=  1.200000  PT=  0.333333)
 SCS-MP2 total energy:               -115.38623182

 ITER.      SQ.NORM     CORR.ENERGY   TOTAL ENERGY   ENERGY CHANGE        DEN1      VAR(S)    VAR(P)  DIIS     TIME
   1      1.10763593    -0.36161130  -115.41055643    -0.02280093    -0.01408085  0.92D-03  0.18D-02  1  1     0.05
   2      1.11622204    -0.36356886  -115.41251399    -0.00195756    -0.00928708  0.20D-04  0.16D-03  2  2     0.08
   3      1.11813089    -0.36369807  -115.41264320    -0.00012921    -0.00121805  0.96D-05  0.87D-05  3  3     0.11
   4      1.11865421    -0.36369687  -115.41264200     0.00000120    -0.00025819  0.34D-06  0.69D-06  4  4     0.14
   5      1.11875421    -0.36369732  -115.41264244    -0.00000045    -0.00003658  0.10D-06  0.50D-07  5  5     0.17
   6      1.11877376    -0.36369594  -115.41264107     0.00000138    -0.00000447  0.16D-07  0.42D-08  6  6     0.20
   7      1.11877863    -0.36369551  -115.41264064     0.00000043    -0.00000036  0.21D-08  0.74D-09  6  1     0.24
   8      1.11877992    -0.36369562  -115.41264074    -0.00000010     0.00000076  0.26D-09  0.74D-10  6  3     0.27
   9      1.11878101    -0.36369549  -115.41264062     0.00000013    -0.00000039  0.13D-10  0.11D-10  6  2     0.30
  10      1.11878093    -0.36369549  -115.41264062    -0.00000000     0.00000007  0.11D-11  0.91D-12  6  5     0.33
  11      1.11878097    -0.36369549  -115.41264062     0.00000000    -0.00000000  0.20D-12  0.52D-13  6  4     0.36
  12      1.11878095    -0.36369549  -115.41264062    -0.00000000     0.00000001  0.19D-13  0.10D-13  6  1     0.39
  13      1.11878095    -0.36369549  -115.41264062    -0.00000000    -0.00000000  0.24D-14  0.97D-15  6  6     0.42
  14      1.11878095    -0.36369549  -115.41264062     0.00000000    -0.00000000  0.23D-15  0.13D-15  6  3     0.45
  15      1.11878095    -0.36369549  -115.41264062    -0.00000000    -0.00000000  0.26D-16  0.17D-16  6  2     0.48
  16      1.11878095    -0.36369549  -115.41264062    -0.00000000    -0.00000000  0.58D-17  0.17D-17  6  5     0.52
  17      1.11878095    -0.36369549  -115.41264062    -0.00000000    -0.00000000  0.56D-18  0.26D-18  6  4     0.55
  18      1.11878095    -0.36369549  -115.41264062     0.00000000    -0.00000000  0.86D-19  0.45D-19  6  1     0.58
  19      1.11878095    -0.36369549  -115.41264062    -0.00000000    -0.00000000  0.98D-20  0.45D-20  6  6     0.62
  20      1.11878095    -0.36369549  -115.41264062     0.00000000     0.00000000  0.14D-20  0.58D-21  6  3     0.65

 Norm of t1 vector:      0.04185503      S-energy:    -0.00000000      T1 diagnostic:  0.00790986
                                                                       D1 diagnostic:  0.01751401


 Total CPU time for triples:      0.16 sec


 RESULTS
 =======

  Reference energy                   -115.048945127983
  CCSD singlet pair energy             -0.254934168028
  CCSD triplet pair energy             -0.108761324045
  CCSD correlation energy              -0.363695492073

  Triples (T) contribution             -0.007769955627
  Total correlation energy             -0.371465447700

  CCSD total energy                  -115.412640620056
  CCSD[T] energy                     -115.420703188368
  CCSD-T energy                      -115.420259309404
 !CCSD(T) total energy               -115.420410575683

 Timing summary (sec):

 STEP                 CPU(USER)    SYS     CPU(TOT)    WALL
 Transformation          0.01      0.01      0.02      0.02
 CCSD iterations         0.64      0.05      0.69      0.71
 Triples                 0.16      0.00      0.16      0.17

 Program statistics:

 Available memory in ccsd:               999999704
 Min. memory needed in ccsd:                136801
 Max. memory used in ccsd:                  163198
 Max. memory used in cckext:                182024 (20 integral passes)



 **********************************************************************************************************************************
 DATASETS  * FILE   NREC   LENGTH (MB)   RECORD NAMES
              1      20       10.57       500      610      700      900      950      970     1000      129      960     1100   
                                          VAR    BASINP    GEOM    SYMINP    ZMAT    AOBASIS   BASIS     P2S    ABASIS      S 
                                         1400     1410     1200     1210     1080     1600     1650     1300     1700     1380   
                                           T        V       H0       H01     AOSYM     SMH    MOLCAS    ERIS     OPER     JKOP   

              2       3        0.39       700     1000     2100   
                                         GEOM     BASIS     RHF  

 PROGRAMS   *        TOTAL   CCSD(T)       RHF       INT
 CPU TIMES  *         1.08      0.82      0.08      0.14
 REAL TIME  *         1.42 SEC
 DISK USED  *        25.03 MB      
 GA USED    *         0.00 MB       (max)       0.00 MB       (current)
 **********************************************************************************************************************************

        CCSD(T)         RHF-SCF 
   -115.42041058   -115.04894513
 **********************************************************************************************************************************
 Variable memory released
