
 Working directory              : /scratch/mel64643/tmp/40073193/
 Global scratch directory       : /scratch/mel64643/tmp/40073193/
 Wavefunction directory         : /home/mel64643/wfu/
 Main file repository           : /scratch/mel64643/tmp/40073193/

 id        : ccgc

 Nodes     nprocs
 a1-8         3
 Distribution of processes:   nprocs(total)=    4   nprocs(compute)=    3   nprocs(helper)=    1
 GA implementation: MPI file
 GA implementation (serial work in mppx): MPI file

 Using customized tuning parameters: mindgm=1; mindgv=20; mindgc=4; mindgr=1; noblas=0; minvec=7
 default implementation of scratch files=sf  


 Variables initialized (1015), CPU time= 0.01 sec
 ***,Optimization of min3
 memory,1000,m
 gthresh,energy=1.0d-12,orbital=1.0d-10,oneint=1.0d-16,twoint=1.0d-16,optgrad=1.0d-6,compress=1.0d-13
 geomtyp=xyz
 
  bohr
  geometry = {
  6
  arbitrary comment
  C   -1.3750519984   -0.0242950724    0.0036566950
  O    1.3060362912    0.1206824069    0.0016036552
  H   -2.0779116660    1.9095520426   -0.0054139110
  H   -2.0956411590   -0.9838644305    1.6774188938
  H   -2.1223549664   -0.9747141786   -1.6863954926
  H    1.9411993385   -1.5774928880    0.0091217496
 }
 
 basis=cc-pvdz
 {rhf;maxit,200}
 {ccsd(t);maxit,200}
 Commands initialized (818), CPU time= 0.01 sec, 672 directives.
 Default parameters read. Elapsed time= 0.10 sec

 Checking input...
 Passed
1


                                         ***  PROGRAM SYSTEM MOLPRO  ***
                                       Copyright, TTI GmbH Stuttgart, 2015
                                    Version 2022.1 linked Mar  4 2022 00:40:14


 **********************************************************************************************************************************
 LABEL *   Optimization of min3                                                          
  64 bit mpp version                                                                     DATE: 07-Aug-25          TIME: 21:24:34  
 **********************************************************************************************************************************

 SHA1:             31073afc4d8441e10870424e0d77336a33bc4286
 **********************************************************************************************************************************

 Memory per process:      1000 MW
 Total memory per node:   3000 MW

 GA preallocation disabled
 GA check disabled

 Variable memory set to 1000.0 MW


 THRESHOLDS:

 ZERO    =  1.00D-12  ONEINT  =  1.00D-16  TWOINT  =  1.00D-16  PREFAC  =  1.00D-14  XXXXXX  =  1.00D-09  EORDER  =  1.00D-04
 ENERGY  =  1.00D-12  ETEST   =  0.00D+00  EDENS   =  0.00D+00  THRDEDEF=  1.00D-06  GRADIENT=  1.00D-05  STEP    =  1.00D-03
 ORBITAL =  1.00D-10  CIVEC   =  1.00D-05  COEFF   =  1.00D-04  PRINTCI =  5.00D-02  PUNCHCI =  9.90D+01  OPTGRAD =  1.00D-06
 OPTENERG=  1.00D-06  OPTSTEP =  3.00D-04  THRGRAD =  1.00D-10  COMPRESS=  1.00D-13  VARMIN  =  1.00D-07  VARMAX  =  1.00D-03
 THRDOUB =  0.00D+00  THRDIV  =  1.00D-05  THRRED  =  1.00D-07  THRPSP  =  1.00D+00  THRDC   =  1.00D-10  THRCS   =  1.00D-10
 THRNRM  =  1.00D-08  THREQ   =  0.00D+00  THRDE   =  1.00D+00  THRREF  =  1.00D-05  SPARFAC =  1.00D+00  THRDLP  =  1.00D-07
 THRDIA  =  1.00D-10  THRDLS  =  1.00D-07  THRGPS  =  0.00D+00  THRKEX  =  0.00D+00  THRDIS  =  2.00D-01  THRVAR  =  1.00D-10
 THRLOC  =  1.00D-06  THRGAP  =  1.00D-06  THRLOCT = -1.00D+00  THRGAPT = -1.00D+00  THRORB  =  1.00D-06  THRMLTP =  0.00D+00
 THRCPQCI=  1.00D-10  KEXTA   =  0.00D+00  THRCOARS=  0.00D+00  SYMTOL  =  1.00D-06  GRADTOL =  1.00D-06  THROVL  =  1.00D-08
 THRORTH =  1.00D-08  THRDLOVL= -1.00D+00  GRID    =  1.00D-06  GRIDMAX =  1.00D-03  DTMAX   =  0.00D+00  THROCCDE=  1.00D-01
 THROCCDE=  1.00D-01  THRPRINT=  2.50D-01

 SETTING GEOMTYP        =    XYZ
 ZUNIT=BOHR

 SETTING BASIS          =    CC-PVDZ


 Recomputing integrals since basis changed


 Using spherical harmonics

 Library entry C      S cc-pVDZ              selected for orbital group  1
 Library entry C      P cc-pVDZ              selected for orbital group  1
 Library entry C      D cc-pVDZ              selected for orbital group  1
 Library entry O      S cc-pVDZ              selected for orbital group  2
 Library entry O      P cc-pVDZ              selected for orbital group  2
 Library entry O      D cc-pVDZ              selected for orbital group  2
 Library entry H      S cc-pVDZ              selected for orbital group  3
 Library entry H      P cc-pVDZ              selected for orbital group  3


 PROGRAM * SEWARD (Integral evaluation for generally contracted gaussian basis sets)     Author: Roland Lindh, 1990

 Geometry written to block  1 of record 700


 Point group  C1  



 ATOMIC COORDINATES

 NR  ATOM    CHARGE       X              Y              Z

   1  C       6.00   -1.375051998   -0.024295072    0.003656695
   2  O       8.00    1.306036291    0.120682407    0.001603655
   3  H       1.00   -2.077911666    1.909552043   -0.005413911
   4  H       1.00   -2.095641159   -0.983864431    1.677418894
   5  H       1.00   -2.122354966   -0.974714179   -1.686395493
   6  H       1.00    1.941199338   -1.577492888    0.009121750

 Bond lengths in Bohr (Angstrom)

 1-2  2.685005978  1-3  2.057634237  1-4  2.059490711  1-5  2.077988114  2-6  1.813087960
     ( 1.420843975)     ( 1.088853146)     ( 1.089835550)     ( 1.099623954)     ( 0.959444830)

 Bond angles

  1-2-6  107.41158888   2-1-3  106.87817194   2-1-4  112.03393748   2-1-5  112.53064695

  3-1-4  108.78159045   3-1-5  107.66371559   4-1-5  108.78708293

 NUCLEAR CHARGE:                   18
 NUMBER OF PRIMITIVE AOS:          82
 NUMBER OF SYMMETRY AOS:           80
 NUMBER OF CONTRACTIONS:           48   (   48A   )
 NUMBER OF INNER CORE ORBITALS:     0   (    0A   )
 NUMBER OF OUTER CORE ORBITALS:     2   (    2A   )
 NUMBER OF VALENCE ORBITALS:       12   (   12A   )


 NUCLEAR REPULSION ENERGY   40.30789609

 Eigenvalues of metric

         1 0.966E-02 0.176E-01 0.367E-01 0.375E-01 0.382E-01 0.471E-01 0.481E-01 0.517E-01


 Contracted 2-electron integrals neglected if value below      1.0D-16
 AO integral compression algorithm  1   Integral accuracy      1.0D-16

     7.340 MB (compressed) written to integral file (100.0%)

     Node minimum: 2.359 MB, node maximum: 2.621 MB


 NUMBER OF SORTED TWO-ELECTRON INTEGRALS:     231084.     BUFFER LENGTH:  32768
 NUMBER OF SEGMENTS:   1  SEGMENT LENGTH:     231084      RECORD LENGTH: 524288

 Memory used in sort:       0.79 MW

 SORT1 READ      832256. AND WROTE      227683. INTEGRALS IN      1 RECORDS. CPU TIME:     0.01 SEC, REAL TIME:     0.02 SEC
 SORT2 READ      682150. AND WROTE      692076. INTEGRALS IN     27 RECORDS. CPU TIME:     0.01 SEC, REAL TIME:     0.02 SEC

 Node minimum:      230300.  Node maximum:      231084. integrals

 OPERATOR DM      FOR CENTER  0  COORDINATES:    0.000000    0.000000    0.000000


 **********************************************************************************************************************************
 DATASETS  * FILE   NREC   LENGTH (MB)   RECORD NAMES
              1      18       28.73       500      610      700      900      950      970     1000      129      960     1100   
                                          VAR    BASINP    GEOM    SYMINP    ZMAT    AOBASIS   BASIS     P2S    ABASIS      S 
                                         1400     1410     1200     1210     1080     1600     1650     1700   
                                           T        V       H0       H01     AOSYM     SMH    MOLCAS    OPER   

 PROGRAMS   *        TOTAL       INT
 CPU TIMES  *         0.46      0.32
 REAL TIME  *         1.63 SEC
 DISK USED  *        29.07 MB (local),      104.70 MB (total)
 GA USED    *         0.00 MB       (max)       0.00 MB       (current)
 **********************************************************************************************************************************


 Program * Restricted Hartree-Fock

 Orbital guess generated from atomic densities. Full valence occupancy:   14

 Initial occupancy:   9

 NELEC=   18   SYM=1   MS2= 0   THRE=1.0D-12   THRD=1.0D-10   THRG=1.0D-10  HFMA2=F  DIIS_START=2   DIIS_MAX=10   DIIS_INCORE=F

 Level shifts:    0.00 (CLOSED)    0.00 (OPEN)    0.30 (GAP_MIN)

 ITER           ETOT              DE          GRAD        DDIFF     DIIS  NEXP   TIME(IT)  TIME(TOT)  DIAG
   1     -115.01419047    -115.01419047     0.00D+00     0.16D+00     0     0       0.00      0.00    start
   2     -115.04254893      -0.02835846     0.10D-01     0.20D-01     1     0       0.01      0.01    diag
   3     -115.04858009      -0.00603116     0.48D-02     0.64D-02     2     0       0.00      0.01    diag
   4     -115.04904374      -0.00046366     0.10D-02     0.20D-02     3     0       0.00      0.01    diag
   5     -115.04906475      -0.00002101     0.18D-03     0.43D-03     4     0       0.00      0.01    diag
   6     -115.04906555      -0.00000080     0.32D-04     0.93D-04     5     0       0.02      0.03    diag
   7     -115.04906558      -0.00000003     0.67D-05     0.15D-04     6     0       0.00      0.03    diag
   8     -115.04906558      -0.00000000     0.22D-05     0.50D-05     7     0       0.00      0.03    fixocc
   9     -115.04906558      -0.00000000     0.45D-06     0.14D-05     8     0       0.00      0.03    diag
  10     -115.04906558      -0.00000000     0.72D-07     0.24D-06     9     0       0.01      0.04    diag/orth
  11     -115.04906558      -0.00000000     0.17D-07     0.48D-07     9     0       0.00      0.04    diag
  12     -115.04906558      -0.00000000     0.44D-08     0.14D-07     9     0       0.00      0.04    diag
  13     -115.04906558      -0.00000000     0.69D-09     0.19D-08     9     0       0.00      0.04    diag
  14     -115.04906558       0.00000000     0.15D-09     0.40D-09     9     0       0.00      0.04    diag
  15     -115.04906558       0.00000000     0.64D-10     0.12D-09     9     0       0.01      0.05    diag
  16     -115.04906558      -0.00000000     0.17D-10     0.39D-10     9     0       0.00      0.05    diag
  17     -115.04906558       0.00000000     0.40D-11     0.67D-11     0     0       0.00      0.05    diag

 Final occupancy:   9

 !RHF STATE 1.1 Energy               -115.049065581266
  RHF One-electron energy            -236.878945930651
  RHF Two-electron energy              81.521984259843
  RHF Kinetic energy                  114.942814482962
  RHF Nuclear energy                   40.307896089541
  RHF Virial quotient                  -1.000924382257

 !RHF STATE 1.1 Dipole moment          -0.39324300    -0.59493748     0.00555492
 Dipole moment /Debye                  -0.99952401    -1.51218024     0.01411920

 Orbital energies:

           1.1          2.1          3.1          4.1          5.1          6.1          7.1          8.1          9.1         10.1
    -20.549948   -11.274708    -1.349895    -0.921314    -0.682827    -0.613739    -0.584863    -0.497108    -0.443087     0.184568

          11.1
      0.224391


 HOMO      9.1    -0.443087 =     -12.0570eV
 LUMO     10.1     0.184568 =       5.0223eV
 LUMO-HOMO         0.627655 =      17.0794eV

 Orbitals saved in record  2100.2


 **********************************************************************************************************************************
 DATASETS  * FILE   NREC   LENGTH (MB)   RECORD NAMES
              1      18       28.73       500      610      700      900      950      970     1000      129      960     1100   
                                          VAR    BASINP    GEOM    SYMINP    ZMAT    AOBASIS   BASIS     P2S    ABASIS      S 
                                         1400     1410     1200     1210     1080     1600     1650     1700   
                                           T        V       H0       H01     AOSYM     SMH    MOLCAS    OPER   

              2       4        0.47       700     1000      520     2100   
                                         GEOM     BASIS   MCVARS     RHF  

 PROGRAMS   *        TOTAL   RHF-SCF       INT
 CPU TIMES  *         0.51      0.05      0.32
 REAL TIME  *         1.98 SEC
 DISK USED  *        29.40 MB (local),      105.69 MB (total)
 GA USED    *         0.00 MB       (max)       0.00 MB       (current)
 **********************************************************************************************************************************


 PROGRAM * CCSD (Closed-shell coupled cluster)     Authors: C. Hampel, H.-J. Werner, 1991, M. Deegan, P.J. Knowles, 1992


 Convergence thresholds:  THRVAR = 1.00D-08  THRDEN = 1.00D-12

 CCSD(T)     terms to be evaluated (factor= 1.000)


 Number of core orbitals:           2 (   2 )
 Number of closed-shell orbitals:   7 (   7 )
 Number of external orbitals:      39 (  39 )

 Molecular orbitals read from record     2100.2  Type=RHF/CANONICAL  

 Number of N-1 electron functions:               7
 Number of N-2 electron functions:              28
 Number of singly external CSFs:               273
 Number of doubly external CSFs:             37401
 Total number of CSFs:                       37675

 Length of J-op  integral file:               0.00 MB
 Length of K-op  integral file:               0.16 MB
 Length of 3-ext integral record:             0.00 MB

 Memory could be reduced to 0.73 Mwords without degradation in triples

 Integral transformation finished. Total CPU:   0.02 sec, npass=  1  Memory used:   0.66 MW

 Reference energy:                   -115.04906558

 MP2 singlet pair energy:              -0.21864942
 MP2 triplet pair energy:              -0.11983778
 MP2 correlation energy:               -0.33848720
 MP2 total energy:                   -115.38755278

 SCS-MP2 correlation energy:           -0.33694503   (PS=  1.200000  PT=  0.333333)
 SCS-MP2 total energy:               -115.38601061

 ITER.      SQ.NORM     CORR.ENERGY   TOTAL ENERGY   ENERGY CHANGE        DEN1      VAR(S)    VAR(P)  DIIS     TIME  TIME/IT
   1      1.10733851    -0.36128656  -115.41035214    -0.02279936    -0.01411748  0.91D-03  0.17D-02  1  1     0.05     0.04
   2      1.11586674    -0.36323208  -115.41229766    -0.00194552    -0.00925160  0.20D-04  0.16D-03  2  2     0.07     0.03
   3      1.11774987    -0.36335953  -115.41242511    -0.00012745    -0.00120493  0.95D-05  0.86D-05  3  3     0.09     0.03
   4      1.11826570    -0.36335818  -115.41242376     0.00000135    -0.00025518  0.34D-06  0.68D-06  4  4     0.11     0.03
   5      1.11836406    -0.36335858  -115.41242416    -0.00000041    -0.00003612  0.10D-06  0.49D-07  5  5     0.13     0.03
   6      1.11838318    -0.36335722  -115.41242281     0.00000136    -0.00000437  0.16D-07  0.41D-08  6  6     0.16     0.04
   7      1.11838795    -0.36335680  -115.41242238     0.00000042    -0.00000035  0.20D-08  0.72D-09  6  1     0.18     0.04
   8      1.11838922    -0.36335691  -115.41242249    -0.00000010     0.00000075  0.26D-09  0.72D-10  6  3     0.20     0.04
   9      1.11839029    -0.36335678  -115.41242236     0.00000012    -0.00000038  0.13D-10  0.10D-10  6  2     0.22     0.04
  10      1.11839021    -0.36335678  -115.41242237    -0.00000000     0.00000007  0.11D-11  0.88D-12  6  5     0.24     0.04
  11      1.11839025    -0.36335678  -115.41242236     0.00000000    -0.00000000  0.19D-12  0.51D-13  6  4     0.26     0.04
  12      1.11839023    -0.36335678  -115.41242237    -0.00000000     0.00000001  0.19D-13  0.10D-13  6  1     0.28     0.04
  13      1.11839023    -0.36335678  -115.41242237    -0.00000000    -0.00000000  0.24D-14  0.94D-15  6  6     0.30     0.03
  14      1.11839023    -0.36335678  -115.41242237     0.00000000    -0.00000000  0.22D-15  0.12D-15  6  3     0.32     0.03
  15      1.11839023    -0.36335678  -115.41242237    -0.00000000    -0.00000000  0.26D-16  0.17D-16  6  2     0.34     0.03
  16      1.11839023    -0.36335678  -115.41242237    -0.00000000    -0.00000000  0.58D-17  0.16D-17  6  5     0.36     0.03
  17      1.11839023    -0.36335678  -115.41242237    -0.00000000    -0.00000000  0.58D-18  0.26D-18  6  4     0.38     0.03
  18      1.11839023    -0.36335678  -115.41242237     0.00000000    -0.00000000  0.94D-19  0.45D-19  6  1     0.41     0.03
  19      1.11839023    -0.36335678  -115.41242237    -0.00000000    -0.00000000  0.12D-19  0.46D-20  6  6     0.43     0.03
  20      1.11839023    -0.36335678  -115.41242237     0.00000000     0.00000000  0.21D-20  0.67D-21  6  3     0.45     0.03

 Norm of t1 vector:      0.04167721      S-energy:    -0.00000000      T1 diagnostic:  0.00787625
                                                                       D1 diagnostic:  0.01752164
                                                                       D2 diagnostic:  0.13436606 (internal)


 Total CPU time for triples:      0.09 sec


 RESULTS
 =======

  Reference energy                   -115.049065581266
  CCSD singlet pair energy             -0.254605474747
  CCSD triplet pair energy             -0.108751309570
  CCSD correlation energy              -0.363356784317

  Triples (T) contribution             -0.007738921940
  Total correlation energy             -0.371095706256

  CCSD total energy                  -115.412422365583
  CCSD[T] energy                     -115.420451417039
  CCSD-T energy                      -115.420011260015
 !CCSD(T) total energy               -115.420161287523

 Timing summary (sec):

 STEP                 CPU(USER)    SYS     CPU(TOT)    WALL
 Transformation          0.02      0.01      0.03      0.04
 CCSD iterations         0.43      0.06      0.49      0.73
 Triples                 0.09      0.00      0.09      0.09

 Program statistics:

 Available memory in ccsd:               999999795
 Min. memory needed in ccsd:                136177
 Max. memory used in ccsd:                  162910
 Max. memory used in cckext:                178997 (20 integral passes)



 **********************************************************************************************************************************
 DATASETS  * FILE   NREC   LENGTH (MB)   RECORD NAMES
              1      19       31.13       500      610      700      900      950      970     1000      129      960     1100   
                                          VAR    BASINP    GEOM    SYMINP    ZMAT    AOBASIS   BASIS     P2S    ABASIS      S 
                                         1400     1410     1200     1210     1080     1600     1650     1700     1380   
                                           T        V       H0       H01     AOSYM     SMH    MOLCAS    OPER     JKOP   

              2       4        0.47       700     1000      520     2100   
                                         GEOM     BASIS   MCVARS     RHF  

 PROGRAMS   *        TOTAL   CCSD(T)   RHF-SCF       INT
 CPU TIMES  *         1.09      0.57      0.05      0.32
 REAL TIME  *         2.92 SEC
 DISK USED  *        35.56 MB (local),      116.34 MB (total)
 SF USED    *         5.97 MB
 GA USED    *         0.00 MB       (max)       0.00 MB       (current)
 **********************************************************************************************************************************

 CCSD(T)/cc-pVDZ energy=   -115.420161287523

         CCSD(T)         RHF-SCF
   -115.42016129   -115.04906558
 **********************************************************************************************************************************
 Molpro calculation terminated
