
 Primary working directories    : /tmp/667821.1.gen6.q
 Secondary working directories  : /tmp/667821.1.gen6.q
 Wavefunction directory         : /home/vulcan/nlk36701/wfu/
 Main file repository           : /tmp/667821.1.gen6.q/

 ARCHNAME  : Linux/x86_64
 FC        : /opt/intel/compilers_and_libraries_2016.1.150/linux/bin/intel64/ifort
 FCVERSION : 16.0.1
 BLASLIB   : -mkl
 id        : ccgc

 Nodes     nprocs
 n086         1
 ga_uses_ma=false, calling ma_init with nominal heap.
 GA-space will be limited to   8.0 MW (determined by -G option)

 Using customized tuning parameters: mindgm=10; mindgv=16; mindgc=4; mindgr=1; noblas=0; mincuda=1000; minvec=7
 default implementation of scratch files=df  

 ***,Optimization of min3
 memory,1000,m
 gthresh,energy=1.0d-12,orbital=1.0d-10,oneint=1.0d-16,twoint=1.0d-16,optgrad=1.0d-6,compress=1.0d-13
 geomtyp=xyz
 
  bohr
  geometry = {
  3
  arbitrary comment
  H   -0.0000000000   -1.4246254000    0.9959240800
  O    0.0000000000    0.0000000000   -0.1255045400
  H   -0.0000000000    1.4246254000    0.9959240800
 }
 
 basis=cc-pvdz
 {rhf;maxit,200}
 {ccsd(t);maxit,200}

 Variables initialized (661), CPU time= 0.00 sec
 Commands  initialized (458), CPU time= 0.00 sec, 486 directives.
 Default parameters read. Elapsed time= 0.05 sec

 Checking input...
 Passed
1


                                         ***  PROGRAM SYSTEM MOLPRO  ***
                         Copyright, University College Cardiff Consultants Limited, 2008

                                    Version 2010.1 linked May 16 2016 07:17:05


 **********************************************************************************************************************************
 LABEL *   Optimization of min3                                                          
 Linux-4.4.3/n086(x86_64) 64 bit mpp version                                             DATE: 28-Mar-22          TIME: 11:15:16  
 **********************************************************************************************************************************

 SHA1:             9e8077add272b0f3cad6f7df79ec5211205f459d
 **********************************************************************************************************************************

 THRESHOLDS:

 ZERO    =  1.00D-12  ONEINT  =  1.00D-16  TWOINT  =  1.00D-16  PREFAC  =  1.00D-14  LOCALI  =  1.00D-09  EORDER  =  1.00D-04
 ENERGY  =  1.00D-12  ETEST   =  0.00D+00  EDENS   =  0.00D+00  THRDEDEF=  1.00D-06  GRADIENT=  1.00D-02  STEP    =  1.00D-03
 ORBITAL =  1.00D-10  CIVEC   =  1.00D-05  COEFF   =  1.00D-04  PRINTCI =  5.00D-02  PUNCHCI =  9.90D+01  OPTGRAD =  1.00D-06
 OPTENERG=  1.00D-06  OPTSTEP =  3.00D-04  THRGRAD =  1.00D-10  COMPRESS=  1.00D-13  VARMIN  =  1.00D-07  VARMAX  =  1.00D-03
 THRDOUB =  0.00D+00  THRDIV  =  1.00D-05  THRRED  =  1.00D-07  THRPSP  =  1.00D+00  THRDC   =  1.00D-10  THRCS   =  1.00D-10
 THRNRM  =  1.00D-08  THREQ   =  0.00D+00  THRDE   =  1.00D+00  THRREF  =  1.00D-05  SPARFAC =  1.00D+00  THRDLP  =  1.00D-07
 THRDIA  =  1.00D-10  THRDLS  =  1.00D-07  THRGPS  =  0.00D+00  THRKEX  =  0.00D+00  THRDIS  =  2.00D-01  THRVAR  =  1.00D-10
 THRLOC  =  1.00D-06  THRGAP  =  1.00D-06  THRLOCT = -1.00D+00  THRGAPT = -1.00D+00  THRORB  =  1.00D-06  THRMLTP =  0.00D+00
 THRCPQCI=  1.00D-10  KEXTA   =  0.00D+00  THRCOARS=  0.00D+00  SYMTOL  =  1.00D-06  GRADTOL =  1.00D-06  THROVL  =  1.00D-08
 THRORTH =  1.00D-08  GRID    =  1.00D-06  GRIDMAX =  1.00D-03  DTMAX   =  0.00D+00

 SETTING GEOMTYP        =    XYZ
 ZUNIT=BOHR
 

 Variable memory set to 1000000000 words,  buffer space   230000 words

 SETTING BASIS          =    CC-PVDZ


 Recomputing integrals since basis changed


 Using spherical harmonics

 Library entry H      S cc-pVDZ              selected for orbital group  1
 Library entry H      P cc-pVDZ              selected for orbital group  1
 Library entry O      S cc-pVDZ              selected for orbital group  2
 Library entry O      P cc-pVDZ              selected for orbital group  2
 Library entry O      D cc-pVDZ              selected for orbital group  2

1PROGRAM * SEWARD (Integral evaluation for generally contracted gaussian basis sets)     Author: Roland Lindh, 1990

 Geometry written to block  1 of record 700


 Point group  C2v 



 ATOMIC COORDINATES

 NR  ATOM    CHARGE       X              Y              Z

   1  H       1.00    0.000000000   -1.424625400    0.995924080
   2  H       1.00    0.000000000    1.424625400    0.995924080
   3  O       8.00    0.000000000    0.000000000   -0.125504540

 Bond lengths in Bohr (Angstrom)

 1-3  1.813052586  2-3  1.813052586
     ( 0.959426107)     ( 0.959426107)

 Bond angles

  1-3-2  103.58217002

 NUCLEAR CHARGE:                   10
 NUMBER OF PRIMITIVE AOS:          41
 NUMBER OF SYMMETRY AOS:           40
 NUMBER OF CONTRACTIONS:           24   (  11A1  +   4B1  +   7B2  +   2A2  )
 NUMBER OF CORE ORBITALS:           1   (   1A1  +   0B1  +   0B2  +   0A2  )
 NUMBER OF VALENCE ORBITALS:        6   (   3A1  +   1B1  +   2B2  +   0A2  )


 NUCLEAR REPULSION ENERGY    9.17586517


 Eigenvalues of metric

         1 0.176E-01 0.509E-01 0.160E+00 0.223E+00 0.515E+00 0.986E+00 0.101E+01 0.129E+01
         2 0.183E+00 0.523E+00 0.110E+01 0.224E+01
         3 0.448E-01 0.986E-01 0.171E+00 0.666E+00 0.102E+01 0.116E+01 0.254E+01
         4 0.621E+00 0.133E+01


 Contracted 2-electron integrals neglected if value below      1.0D-16
 AO integral compression algorithm  1   Integral accuracy      1.0D-16

     0.262 MB (compressed) written to integral file (100.0%)

     Node minimum: 0.262 MB, node maximum: 0.262 MB


 NUMBER OF SORTED TWO-ELECTRON INTEGRALS:      13826.     BUFFER LENGTH:  32768
 NUMBER OF SEGMENTS:   1  SEGMENT LENGTH:      13826      RECORD LENGTH: 524288

 Memory used in sort:       0.57 MW

 SORT1 READ       19080. AND WROTE       12665. INTEGRALS IN      1 RECORDS. CPU TIME:     0.00 SEC, REAL TIME:     0.01 SEC
 SORT2 READ       12665. AND WROTE       13826. INTEGRALS IN      1 RECORDS. CPU TIME:     0.01 SEC, REAL TIME:     0.00 SEC

 FILE SIZES:   FILE 1:     2.7 MBYTE,  FILE 4:     4.2 MBYTE,   TOTAL:      6.9 MBYTE

 OPERATOR DM      FOR CENTER  0  COORDINATES:    0.000000    0.000000    0.000000


 **********************************************************************************************************************************
 DATASETS  * FILE   NREC   LENGTH (MB)   RECORD NAMES
              1      19        2.69       500      610      700      900      950      970     1000      129      960     1100   
                                          VAR    BASINP    GEOM    SYMINP    ZMAT    AOBASIS   BASIS     P2S    ABASIS      S 
                                         1400     1410     1200     1210     1080     1600     1650     1300     1700   
                                           T        V       H0       H01     AOSYM     SMH    MOLCAS    ERIS     OPER   

 PROGRAMS   *        TOTAL       INT
 CPU TIMES  *         0.10      0.06
 REAL TIME  *         0.29 SEC
 DISK USED  *         7.70 MB      
 GA USED    *         0.00 MB       (max)       0.00 MB       (current)
 **********************************************************************************************************************************

1PROGRAM * RHF-SCF (CLOSED SHELL)       Authors: W. Meyer, H.-J. Werner


 NUMBER OF ELECTRONS:       5+    5-
 CONVERGENCE THRESHOLDS:    1.00E-10 (Density)    1.00E-13 (Energy)
 MAX. NUMBER OF ITERATIONS:      200
 INTERPOLATION TYPE:            DIIS
 INTERPOLATION STEPS:              2 (START)      1 (STEP)
 LEVEL SHIFTS:                  0.00 (CLOSED)  0.00 (OPEN) 



 Orbital guess generated from atomic densities. Full valence occupancy:    4   1   2   0

 Molecular orbital dump at record        2100.2

 Initial alpha occupancy:   3   1   1   0
 Initial beta  occupancy:   3   1   1   0
 Wave function symmetry:    1

 ITERATION    DDIFF          GRAD             ENERGY        2-EL.EN.            DIPOLE MOMENTS         DIIS
    1      0.000D+00      0.000D+00       -75.98828143     77.839887    0.00000    0.00000    1.15427    0
    2      0.000D+00      0.414D-01       -76.01798219     74.587976    0.00000    0.00000    0.75686    1
    3      0.777D-01      0.217D-01       -76.02644555     75.908636    0.00000    0.00000    0.83209    2
    4      0.254D-01      0.246D-02       -76.02666260     75.811476    0.00000    0.00000    0.81980    3
    5      0.478D-02      0.657D-03       -76.02668022     75.823524    0.00000    0.00000    0.81615    4
    6      0.150D-02      0.103D-03       -76.02668078     75.823484    0.00000    0.00000    0.81552    5
    7      0.235D-03      0.149D-04       -76.02668079     75.823424    0.00000    0.00000    0.81540    6
    8      0.417D-04      0.121D-05       -76.02668079     75.823411    0.00000    0.00000    0.81540    5
    9      0.272D-05      0.153D-06       -76.02668079     75.823417    0.00000    0.00000    0.81540    5
   10      0.349D-06      0.474D-07       -76.02668079     75.823414    0.00000    0.00000    0.81540    5
   11      0.765D-07      0.100D-07       -76.02668079     75.823415    0.00000    0.00000    0.81540    5
   12      0.198D-07      0.166D-08       -76.02668079     75.823415    0.00000    0.00000    0.81540    5
   13      0.373D-08      0.342D-09       -76.02668079     75.823415    0.00000    0.00000    0.81540    6
   14      0.828D-09      0.824D-10       -76.02668079     75.823415    0.00000    0.00000    0.81540    6
   15      0.235D-09      0.134D-10       -76.02668079     75.823415    0.00000    0.00000    0.81540    6
   16      0.336D-10      0.217D-11       -76.02668079     75.823415    0.00000    0.00000    0.81540    6
   17      0.445D-11      0.430D-12       -76.02668079     75.823415    0.00000    0.00000    0.81540    0

 Final occupancy:   3   1   1   0

 !RHF STATE 1.1 Energy                -76.026680793155
 Nuclear energy                         9.17586517
 One-electron energy                 -123.11425325
 Two-electron energy                   37.91170728
 Virial quotient                       -1.00059142
 !RHF STATE 1.1 Dipole moment           0.00000000     0.00000000     0.81539915
 Dipole moment /Debye                   0.00000000     0.00000000     2.07240217

 Orbital energies:

         1.1          2.1          3.1          4.1          5.1
    -20.551322    -1.336330    -0.568081     0.185011     0.856485

         1.2          2.2          3.2
     -0.493330     1.200118     1.669041

         1.3          2.3          3.3
     -0.696357     0.256042     0.784592

         1.4          2.4
      1.478778     3.333235


 **********************************************************************************************************************************
 DATASETS  * FILE   NREC   LENGTH (MB)   RECORD NAMES
              1      19        2.69       500      610      700      900      950      970     1000      129      960     1100   
                                          VAR    BASINP    GEOM    SYMINP    ZMAT    AOBASIS   BASIS     P2S    ABASIS      S 
                                         1400     1410     1200     1210     1080     1600     1650     1300     1700   
                                           T        V       H0       H01     AOSYM     SMH    MOLCAS    ERIS     OPER   

              2       3        0.29       700     1000     2100   
                                         GEOM     BASIS     RHF  

 PROGRAMS   *        TOTAL       RHF       INT
 CPU TIMES  *         0.10      0.00      0.06
 REAL TIME  *         0.31 SEC
 DISK USED  *         7.70 MB      
 GA USED    *         0.00 MB       (max)       0.00 MB       (current)
 **********************************************************************************************************************************


1PROGRAM * CCSD (Closed-shell coupled cluster)     Authors: C. Hampel, H.-J. Werner, 1991, M. Deegan, P.J. Knowles, 1992


 Convergence thresholds:  THRVAR = 1.00D-08  THRDEN = 1.00D-12

 CCSD(T)     terms to be evaluated (factor= 1.000)


 Number of core orbitals:           1 (   1   0   0   0 )
 Number of closed-shell orbitals:   4 (   2   1   1   0 )
 Number of external orbitals:      19 (   8   3   6   2 )

 Molecular orbitals read from record     2100.2  Type=RHF/CANONICAL (state 1.1)

 Number of N-1 electron functions:               4
 Number of N-2 electron functions:              10
 Number of singly external CSFs:                25
 Number of doubly external CSFs:               805
 Total number of CSFs:                         831

 Length of J-op  integral file:               0.00 MB
 Length of K-op  integral file:               0.04 MB
 Length of 3-ext integral record:             0.00 MB

 Memory could be reduced to 0.30 Mwords without degradation in triples

 Integral transformation finished. Total CPU:   0.00 sec, npass=  1  Memory used:   0.07 MW

 Reference energy:                    -76.02668079

 MP2 singlet pair energy:              -0.12573156
 MP2 triplet pair energy:              -0.07614379
 MP2 correlation energy:               -0.20187535
 MP2 total energy:                    -76.22855614

 SCS-MP2 correlation energy:           -0.19825623   (PS=  1.200000  PT=  0.333333)
 SCS-MP2 total energy:                -76.22493702

 ITER.      SQ.NORM     CORR.ENERGY   TOTAL ENERGY   ENERGY CHANGE        DEN1      VAR(S)    VAR(P)  DIIS     TIME
   1      1.05293023    -0.21042838   -76.23710917    -0.00855303    -0.00497552  0.27D-03  0.67D-03  1  1     0.00
   2      1.05608539    -0.21135741   -76.23803820    -0.00092903    -0.00388018  0.52D-05  0.57D-04  2  2     0.00
   3      1.05686354    -0.21143136   -76.23811216    -0.00007396    -0.00059041  0.19D-05  0.23D-05  3  3     0.00
   4      1.05703866    -0.21143407   -76.23811487    -0.00000271    -0.00009593  0.12D-06  0.13D-06  4  4     0.00
   5      1.05707117    -0.21143264   -76.23811343     0.00000144    -0.00001519  0.32D-07  0.72D-08  5  5     0.01
   6      1.05707563    -0.21143258   -76.23811337     0.00000006     0.00000038  0.41D-08  0.78D-09  6  6     0.01
   7      1.05707824    -0.21143253   -76.23811332     0.00000005    -0.00000026  0.15D-09  0.65D-10  6  1     0.01
   8      1.05707860    -0.21143248   -76.23811327     0.00000005     0.00000006  0.38D-11  0.45D-11  6  2     0.01
   9      1.05707870    -0.21143247   -76.23811326     0.00000001    -0.00000005  0.87D-13  0.27D-12  6  3     0.01
  10      1.05707873    -0.21143247   -76.23811326     0.00000000    -0.00000002  0.18D-14  0.77D-14  6  4     0.01
  11      1.05707873    -0.21143247   -76.23811326     0.00000000    -0.00000000  0.15D-15  0.30D-15  6  6     0.01
  12      1.05707873    -0.21143247   -76.23811326     0.00000000    -0.00000000  0.28D-17  0.11D-16  6  5     0.01
  13      1.05707873    -0.21143247   -76.23811326    -0.00000000    -0.00000000  0.73D-18  0.82D-18  6  1     0.01
  14      1.05707873    -0.21143247   -76.23811326     0.00000000    -0.00000000  0.22D-18  0.69D-19  6  2     0.01
  15      1.05707873    -0.21143247   -76.23811326     0.00000000    -0.00000000  0.52D-19  0.70D-20  6  3     0.01
  16      1.05707873    -0.21143247   -76.23811326     0.00000000    -0.00000000  0.44D-20  0.13D-20  6  4     0.02

 Norm of t1 vector:      0.02370837      S-energy:    -0.00000000      T1 diagnostic:  0.00592709
                                                                       D1 diagnostic:  0.01117698

 Doubles amplitudes (print threshold =  0.500E-01):

         I         J         SYM. A    SYM. B    A         B      T(IJ, AB)

         3         3         2         2         1         1     -0.05140879


 Total CPU time for triples:      0.00 sec


 RESULTS
 =======

  Reference energy                    -76.026680793155
  CCSD singlet pair energy             -0.143446617424
  CCSD triplet pair energy             -0.067985849756
  CCSD correlation energy              -0.211432467181

  Triples (T) contribution             -0.003053389674
  Total correlation energy             -0.214485856855

  CCSD total energy                   -76.238113260337
  CCSD[T] energy                      -76.241252574114
  CCSD-T energy                       -76.241111413435
 !CCSD(T) total energy                -76.241166650010

 Timing summary (sec):

 STEP                 CPU(USER)    SYS     CPU(TOT)    WALL
 CCSD iterations         0.02      0.00      0.02      0.04

 Program statistics:

 Available memory in ccsd:               999999836
 Min. memory needed in ccsd:                  5661
 Max. memory used in ccsd:                    6126
 Max. memory used in cckext:                 38485 (16 integral passes)



 **********************************************************************************************************************************
 DATASETS  * FILE   NREC   LENGTH (MB)   RECORD NAMES
              1      20        2.76       500      610      700      900      950      970     1000      129      960     1100   
                                          VAR    BASINP    GEOM    SYMINP    ZMAT    AOBASIS   BASIS     P2S    ABASIS      S 
                                         1400     1410     1200     1210     1080     1600     1650     1300     1700     1380   
                                           T        V       H0       H01     AOSYM     SMH    MOLCAS    ERIS     OPER     JKOP   

              2       3        0.29       700     1000     2100   
                                         GEOM     BASIS     RHF  

 PROGRAMS   *        TOTAL   CCSD(T)       RHF       INT
 CPU TIMES  *         0.13      0.02      0.00      0.06
 REAL TIME  *         0.37 SEC
 DISK USED  *         7.70 MB      
 GA USED    *         0.00 MB       (max)       0.00 MB       (current)
 **********************************************************************************************************************************

        CCSD(T)         RHF-SCF 
    -76.24116665    -76.02668079
 **********************************************************************************************************************************
 Variable memory released
