
    -----------------------------------------------------------------------
          Psi4: An Open-Source Ab Initio Electronic Structure Package
                               Psi4 1.4a2.dev629 

                         Git: Rev {master} 2938fc2 dirty


    D. G. A. Smith, L. A. Burns, A. C. Simmonett, R. M. Parrish,
    M. C. Schieber, R. Galvelis, P. Kraus, H. Kruse, R. Di Remigio,
    A. Alenaizan, A. M. James, S. Lehtola, J. P. Misiewicz, M. Scheurer,
    R. A. Shaw, J. B. Schriber, Y. Xie, Z. L. Glick, D. A. Sirianni,
    J. S. O'Brien, J. M. Waldrop, A. Kumar, E. G. Hohenstein,
    B. P. Pritchard, B. R. Brooks, H. F. Schaefer III, A. Yu. Sokolov,
    K. Patkowski, A. E. DePrince III, U. Bozkaya, R. A. King,
    F. A. Evangelista, J. M. Turney, T. D. Crawford, C. D. Sherrill,
    J. Chem. Phys. 152(18) 184108 (2020). https://doi.org/10.1063/5.0006002

                            Additional Code Authors
    E. T. Seidl, C. L. Janssen, E. F. Valeev, M. L. Leininger,
    J. F. Gonthier, R. M. Richard, H. R. McAlexander, M. Saitow, X. Wang,
    P. Verma, and M. H. Lechner

             Previous Authors, Complete List of Code Contributors,
                       and Citations for Specific Modules
    https://github.com/psi4/psi4/blob/master/codemeta.json
    https://github.com/psi4/psi4/graphs/contributors
    http://psicode.org/psi4manual/master/introduction.html#citing-psifour

    -----------------------------------------------------------------------


    Psi4 started on: Wednesday, 21 September 2022 04:18PM

    Process ID: 214985
    Host:       n070
    PSIDATADIR: /opt/psi/4/master/share/psi4
    Memory:     500.0 MiB
    Threads:    1
    
  ==> Input File <==

--------------------------------------------------------------------------
# o-Benzyne preliminary computations

memory 14 gb

molecule {
  0 1
  units bohr
 C   -1.3715953205   -0.0241052032    0.0000003367
 O    1.3041373459    0.1234567962    0.0000003105
 H   -2.0779679828    1.9079443426   -0.0000798848
 H   -2.1027227620   -0.9798888573    1.6819405784
 H   -2.1027154832   -0.9800200810   -1.6818684489
 H    1.9271400426   -1.5775191174   -0.0000013019
  no_reorient
  no_com
}

set {
  basis 6-31g*
  reference rhf
  e_convergence 10 
  d_convergence 10
  r_convergence 8
  maxiter 300
  dft_spherical_points 1202
  dft_radial_points 99
  freeze_core True
}


#gradient('ccsd(t)')
gradient('b3lyp')
--------------------------------------------------------------------------

  Memory set to  13.039 GiB by Python driver.

Scratch directory: /tmp/
gradient() will perform analytic gradient computation.

*** tstart() called on n070
*** at Wed Sep 21 16:18:41 2022

   => Loading Basis Set <=

    Name: 6-31G*
    Role: ORBITAL
    Keyword: BASIS
    atoms 1   entry C          line   111 file /opt/psi/4/master/share/psi4/basis/6-31gs.gbs 
    atoms 2   entry O          line   145 file /opt/psi/4/master/share/psi4/basis/6-31gs.gbs 
    atoms 3-6 entry H          line    44 file /opt/psi/4/master/share/psi4/basis/6-31gs.gbs 


         ---------------------------------------------------------
                                   SCF
               by Justin Turney, Rob Parrish, Andy Simmonett
                          and Daniel G. A. Smith
                              RKS Reference
                        1 Threads,  13351 MiB Core
         ---------------------------------------------------------

  ==> Geometry <==

    Molecular point group: c1
    Full point group: C1

    Geometry (in Bohr), charge = 0, multiplicity = 1:

       Center              X                  Y                   Z               Mass       
    ------------   -----------------  -----------------  -----------------  -----------------
         C           -1.371595320500    -0.024105203200     0.000000336700    12.000000000000
         O            1.304137345900     0.123456796200     0.000000310500    15.994914619570
         H           -2.077967982800     1.907944342600    -0.000079884800     1.007825032230
         H           -2.102722762000    -0.979888857300     1.681940578400     1.007825032230
         H           -2.102715483200    -0.980020081000    -1.681868448900     1.007825032230
         H            1.927140042600    -1.577519117400    -0.000001301900     1.007825032230

  Running in c1 symmetry.

  Rotational constants: A =      4.28011  B =      0.83048  C =      0.80107 [cm^-1]
  Rotational constants: A = 128314.43475  B =  24897.20820  C =  24015.52749 [MHz]
  Nuclear repulsion =   40.366753097863331

  Charge       = 0
  Multiplicity = 1
  Electrons    = 18
  Nalpha       = 9
  Nbeta        = 9

  ==> Algorithm <==

  SCF Algorithm Type is DF.
  DIIS enabled.
  MOM disabled.
  Fractional occupation disabled.
  Guess Type is SAD.
  Energy threshold   = 1.00e-10
  Density threshold  = 1.00e-10
  Integral threshold = 0.00e+00

  ==> Primary Basis <==

  Basis Set: 6-31G*
    Blend: 6-31G*
    Number of shells: 20
    Number of basis function: 38
    Number of Cartesian functions: 38
    Spherical Harmonics?: false
    Max angular momentum: 2

  ==> DFT Potential <==

   => Composite Functional: B3LYP <= 

    B3LYP Hyb-GGA Exchange-Correlation Functional

    P. J. Stephens, F. J. Devlin, C. F. Chabalowski, and M. J. Frisch, J. Phys. Chem. 98, 11623 (1994)

    Deriv               =              1
    GGA                 =           TRUE
    Meta                =          FALSE

    Exchange Hybrid     =           TRUE
    MP2 Hybrid          =          FALSE

   => Exchange Functionals <=

    0.0800   Slater exchange
    0.7200         Becke 88

   => Exact (HF) Exchange <=

    0.2000               HF 

   => Correlation Functionals <=

    0.1900   Vosko, Wilk & Nusair (VWN5_RPA)
    0.8100   Lee, Yang & Parr

   => Molecular Quadrature <=

    Radial Scheme          =       TREUTLER
    Pruning Scheme         =           NONE
    Nuclear Scheme         =       TREUTLER

    BS radius alpha        =              1
    Pruning alpha          =              1
    Radial Points          =             99
    Spherical Points       =           1202
    Total Points           =         678794
    Total Blocks           =           4719
    Max Points             =            256
    Max Functions          =             38
    Weights Tolerance      =       1.00E-15

   => Loading Basis Set <=

    Name: (6-31G* AUX)
    Role: JKFIT
    Keyword: DF_BASIS_SCF
    atoms 1   entry C          line   121 file /opt/psi/4/master/share/psi4/basis/cc-pvdz-jkfit.gbs 
    atoms 2   entry O          line   221 file /opt/psi/4/master/share/psi4/basis/cc-pvdz-jkfit.gbs 
    atoms 3-6 entry H          line    51 file /opt/psi/4/master/share/psi4/basis/cc-pvdz-jkfit.gbs 

  ==> Integral Setup <==

  DFHelper Memory: AOs need 0.004 GiB; user supplied 9.070 GiB. Using in-core AOs.

  ==> MemDFJK: Density-Fitted J/K Matrices <==

    J tasked:                   Yes
    K tasked:                   Yes
    wK tasked:                   No
    OpenMP threads:               1
    Memory [MiB]:              9287
    Algorithm:                 Core
    Schwarz Cutoff:           1E-12
    Mask sparsity (%):       0.0000
    Fitting Condition:        1E-10

   => Auxiliary Basis Set <=

  Basis Set: (6-31G* AUX)
    Blend: CC-PVDZ-JKFIT
    Number of shells: 84
    Number of basis function: 262
    Number of Cartesian functions: 262
    Spherical Harmonics?: false
    Max angular momentum: 3

  Cached 100.0% of DFT collocation blocks in 0.709 [GiB].

  Minimum eigenvalue in the overlap matrix is 9.6862437193E-03.
  Reciprocal condition number of the overlap matrix is 1.6121599761E-03.
    Using symmetric orthogonalization.

  ==> Pre-Iterations <==

  SCF Guess: Superposition of Atomic Densities via on-the-fly atomic UHF (no occupation information).

   -------------------------
    Irrep   Nso     Nmo    
   -------------------------
     A         38      38 
   -------------------------
    Total      38      38
   -------------------------

  ==> Iterations <==

                           Total Energy        Delta E     RMS |[F,P]|

   @DF-RKS iter SAD:  -115.28122142332650   -1.15281e+02   0.00000e+00 
   @DF-RKS iter   1:  -115.54912191714492   -2.67900e-01   1.61052e-02 DIIS
   @DF-RKS iter   2:  -115.45041096200055    9.87110e-02   2.10702e-02 DIIS
   @DF-RKS iter   3:  -115.71153316052782   -2.61122e-01   2.13426e-03 DIIS
   @DF-RKS iter   4:  -115.71396945023160   -2.43629e-03   6.71853e-04 DIIS
   @DF-RKS iter   5:  -115.71423484808199   -2.65398e-04   8.10174e-05 DIIS
   @DF-RKS iter   6:  -115.71423870661903   -3.85854e-06   8.49818e-06 DIIS
   @DF-RKS iter   7:  -115.71423875246593   -4.58469e-08   7.59980e-07 DIIS
   @DF-RKS iter   8:  -115.71423875286517   -3.99240e-10   1.06615e-07 DIIS
   @DF-RKS iter   9:  -115.71423875287302   -7.84439e-12   2.03254e-08 DIIS
   @DF-RKS iter  10:  -115.71423875287348   -4.68958e-13   1.32210e-09 DIIS
   @DF-RKS iter  11:  -115.71423875287336    1.27898e-13   1.18434e-10 DIIS
   @DF-RKS iter  12:  -115.71423875287331    4.26326e-14   2.19967e-11 DIIS
  Energy and wave function converged.


  ==> Post-Iterations <==

    Orbital Energies [Eh]
    ---------------------

    Doubly Occupied:                                                      

       1A    -19.138522     2A    -10.222750     3A     -1.012685  
       4A     -0.680006     5A     -0.503131     6A     -0.436141  
       7A     -0.419965     8A     -0.331128     9A     -0.264463  

    Virtual:                                                              

      10A      0.077322    11A      0.133080    12A      0.168647  
      13A      0.176706    14A      0.206153    15A      0.534295  
      16A      0.566814    17A      0.575477    18A      0.791951  
      19A      0.853872    20A      0.872928    21A      0.907222  
      22A      0.955495    23A      0.976744    24A      1.025981  
      25A      1.115427    26A      1.462886    27A      1.501731  
      28A      1.584222    29A      1.743662    30A      2.046191  
      31A      2.118098    32A      2.138889    33A      2.352906  
      34A      2.403436    35A      2.457780    36A      2.795636  
      37A      3.700412    38A      4.216772  

    Final Occupation by Irrep:
              A 
    DOCC [     9 ]

  @DF-RKS Final Energy:  -115.71423875287331

   => Energetics <=

    Nuclear Repulsion Energy =             40.3667530978633309
    One-Electron Energy =                -237.1253179271467388
    Two-Electron Energy =                  93.5985297294743361
    DFT Exchange-Correlation Energy =     -12.5542036530642296
    Empirical Dispersion Energy =           0.0000000000000000
    VV10 Nonlocal Energy =                  0.0000000000000000
    Total Energy =                       -115.7142387528733138

Computation Completed


Properties will be evaluated at   0.000000,   0.000000,   0.000000 [a0]

Properties computed using the SCF density matrix

  Nuclear Dipole Moment: [e a0]
     X:    -2.1527      Y:    -0.7865      Z:    -0.0000

  Electronic Dipole Moment: [e a0]
     X:     1.8200      Y:     0.2017      Z:     0.0000

  Dipole Moment: [e a0]
     X:    -0.3328      Y:    -0.5847      Z:    -0.0000     Total:     0.6728

  Dipole Moment: [D]
     X:    -0.8458      Y:    -1.4862      Z:    -0.0000     Total:     1.7100


*** tstop() called on n070 at Wed Sep 21 16:18:58 2022
Module time:
	user time   =      17.43 seconds =       0.29 minutes
	system time =       0.33 seconds =       0.01 minutes
	total time  =         17 seconds =       0.28 minutes
Total time:
	user time   =      17.43 seconds =       0.29 minutes
	system time =       0.33 seconds =       0.01 minutes
	total time  =         17 seconds =       0.28 minutes

*** tstart() called on n070
*** at Wed Sep 21 16:18:58 2022


         ------------------------------------------------------------
                                   SCF GRAD                          
                          Rob Parrish, Justin Turney,                
                       Andy Simmonett, and Alex Sokolov              
         ------------------------------------------------------------

  ==> Geometry <==

    Molecular point group: c1
    Full point group: C1

    Geometry (in Bohr), charge = 0, multiplicity = 1:

       Center              X                  Y                   Z               Mass       
    ------------   -----------------  -----------------  -----------------  -----------------
         C           -1.371595320500    -0.024105203200     0.000000336700    12.000000000000
         O            1.304137345900     0.123456796200     0.000000310500    15.994914619570
         H           -2.077967982800     1.907944342600    -0.000079884800     1.007825032230
         H           -2.102722762000    -0.979888857300     1.681940578400     1.007825032230
         H           -2.102715483200    -0.980020081000    -1.681868448900     1.007825032230
         H            1.927140042600    -1.577519117400    -0.000001301900     1.007825032230

  Nuclear repulsion =   40.366753097863331

  ==> Basis Set <==

  Basis Set: 6-31G*
    Blend: 6-31G*
    Number of shells: 20
    Number of basis function: 38
    Number of Cartesian functions: 38
    Spherical Harmonics?: false
    Max angular momentum: 2

  ==> DFJKGrad: Density-Fitted SCF Gradients <==

    Gradient:                    1
    J tasked:                  Yes
    K tasked:                  Yes
    wK tasked:                  No
    OpenMP threads:              1
    Integrals threads:           1
    Memory [MiB]:            10013
    Schwarz Cutoff:          0E+00
    Fitting Condition:       1E-10

   => Auxiliary Basis Set <=

  Basis Set: (6-31G* AUX)
    Blend: CC-PVDZ-JKFIT
    Number of shells: 84
    Number of basis function: 262
    Number of Cartesian functions: 262
    Spherical Harmonics?: false
    Max angular momentum: 3

  ==> DFT Potential <==

   => Composite Functional: B3LYP <= 

    B3LYP Hyb-GGA Exchange-Correlation Functional

    P. J. Stephens, F. J. Devlin, C. F. Chabalowski, and M. J. Frisch, J. Phys. Chem. 98, 11623 (1994)

    Deriv               =              1
    GGA                 =           TRUE
    Meta                =          FALSE

    Exchange Hybrid     =           TRUE
    MP2 Hybrid          =          FALSE

   => Exchange Functionals <=

    0.0800   Slater exchange
    0.7200         Becke 88

   => Exact (HF) Exchange <=

    0.2000               HF 

   => Correlation Functionals <=

    0.1900   Vosko, Wilk & Nusair (VWN5_RPA)
    0.8100   Lee, Yang & Parr

   => Molecular Quadrature <=

    Radial Scheme          =       TREUTLER
    Pruning Scheme         =           NONE
    Nuclear Scheme         =       TREUTLER

    BS radius alpha        =              1
    Pruning alpha          =              1
    Radial Points          =             99
    Spherical Points       =           1202
    Total Points           =         678794
    Total Blocks           =           4719
    Max Points             =            256
    Max Functions          =             38
    Weights Tolerance      =       1.00E-15


  -Total Gradient:
     Atom            X                  Y                   Z
    ------   -----------------  -----------------  -----------------
       1       -0.003645797283    -0.001066224767     0.000000228148
       2        0.002574029405    -0.008837698359     0.000000259878
       3        0.001055989928    -0.003031291910    -0.000000081808
       4        0.002409305977     0.001971258480    -0.003123437375
       5        0.002409260506     0.001971482744     0.003123254770
       6       -0.004802871629     0.008992538751    -0.000000223616


*** tstop() called on n070 at Wed Sep 21 16:19:01 2022
Module time:
	user time   =       2.76 seconds =       0.05 minutes
	system time =       0.01 seconds =       0.00 minutes
	total time  =          3 seconds =       0.05 minutes
Total time:
	user time   =      20.19 seconds =       0.34 minutes
	system time =       0.34 seconds =       0.01 minutes
	total time  =         20 seconds =       0.33 minutes

    Psi4 stopped on: Wednesday, 21 September 2022 04:19PM
    Psi4 wall time for execution: 0:00:20.58

*** Psi4 exiting successfully. Buy a developer a beer!
