
 Working directory              : /scratch/mel64643/tmp/40073147/
 Global scratch directory       : /scratch/mel64643/tmp/40073147/
 Wavefunction directory         : /home/mel64643/wfu/
 Main file repository           : /scratch/mel64643/tmp/40073147/

 id        : ccgc

 Nodes     nprocs
 a1-8         3
 Distribution of processes:   nprocs(total)=    4   nprocs(compute)=    3   nprocs(helper)=    1
 GA implementation: MPI file
 GA implementation (serial work in mppx): MPI file

 Using customized tuning parameters: mindgm=1; mindgv=20; mindgc=4; mindgr=1; noblas=0; minvec=7
 default implementation of scratch files=sf  


 Variables initialized (1015), CPU time= 0.00 sec
 ***,Optimization of min3
 memory,1000,m
 gthresh,energy=1.0d-12,orbital=1.0d-10,oneint=1.0d-16,twoint=1.0d-16,optgrad=1.0d-6,compress=1.0d-13
 geomtyp=xyz
 
  bohr
  geometry = {
  6
  arbitrary comment
  C   -1.3764001262   -0.0238009910   -0.0053972253
  O    1.3191773113    0.1253721930    0.0018730180
  H   -2.0790048262    1.9073892746    0.0016888312
  H   -2.1121469985   -0.9795736113    1.6804733378
  H   -2.1126218794   -0.9810499177   -1.6782305991
  H    1.9372723591   -1.5784690677   -0.0004157726
 }
 
 basis=cc-pvdz
 {rhf;maxit,200}
 {ccsd(t);maxit,200}
 Commands initialized (818), CPU time= 0.01 sec, 672 directives.
 Default parameters read. Elapsed time= 0.10 sec

 Checking input...
 Passed
1


                                         ***  PROGRAM SYSTEM MOLPRO  ***
                                       Copyright, TTI GmbH Stuttgart, 2015
                                    Version 2022.1 linked Mar  4 2022 00:40:14


 **********************************************************************************************************************************
 LABEL *   Optimization of min3                                                          
  64 bit mpp version                                                                     DATE: 07-Aug-25          TIME: 21:23:55  
 **********************************************************************************************************************************

 SHA1:             31073afc4d8441e10870424e0d77336a33bc4286
 **********************************************************************************************************************************

 Memory per process:      1000 MW
 Total memory per node:   3000 MW

 GA preallocation disabled
 GA check disabled

 Variable memory set to 1000.0 MW


 THRESHOLDS:

 ZERO    =  1.00D-12  ONEINT  =  1.00D-16  TWOINT  =  1.00D-16  PREFAC  =  1.00D-14  XXXXXX  =  1.00D-09  EORDER  =  1.00D-04
 ENERGY  =  1.00D-12  ETEST   =  0.00D+00  EDENS   =  0.00D+00  THRDEDEF=  1.00D-06  GRADIENT=  1.00D-05  STEP    =  1.00D-03
 ORBITAL =  1.00D-10  CIVEC   =  1.00D-05  COEFF   =  1.00D-04  PRINTCI =  5.00D-02  PUNCHCI =  9.90D+01  OPTGRAD =  1.00D-06
 OPTENERG=  1.00D-06  OPTSTEP =  3.00D-04  THRGRAD =  1.00D-10  COMPRESS=  1.00D-13  VARMIN  =  1.00D-07  VARMAX  =  1.00D-03
 THRDOUB =  0.00D+00  THRDIV  =  1.00D-05  THRRED  =  1.00D-07  THRPSP  =  1.00D+00  THRDC   =  1.00D-10  THRCS   =  1.00D-10
 THRNRM  =  1.00D-08  THREQ   =  0.00D+00  THRDE   =  1.00D+00  THRREF  =  1.00D-05  SPARFAC =  1.00D+00  THRDLP  =  1.00D-07
 THRDIA  =  1.00D-10  THRDLS  =  1.00D-07  THRGPS  =  0.00D+00  THRKEX  =  0.00D+00  THRDIS  =  2.00D-01  THRVAR  =  1.00D-10
 THRLOC  =  1.00D-06  THRGAP  =  1.00D-06  THRLOCT = -1.00D+00  THRGAPT = -1.00D+00  THRORB  =  1.00D-06  THRMLTP =  0.00D+00
 THRCPQCI=  1.00D-10  KEXTA   =  0.00D+00  THRCOARS=  0.00D+00  SYMTOL  =  1.00D-06  GRADTOL =  1.00D-06  THROVL  =  1.00D-08
 THRORTH =  1.00D-08  THRDLOVL= -1.00D+00  GRID    =  1.00D-06  GRIDMAX =  1.00D-03  DTMAX   =  0.00D+00  THROCCDE=  1.00D-01
 THROCCDE=  1.00D-01  THRPRINT=  2.50D-01

 SETTING GEOMTYP        =    XYZ
 ZUNIT=BOHR

 SETTING BASIS          =    CC-PVDZ


 Recomputing integrals since basis changed


 Using spherical harmonics

 Library entry C      S cc-pVDZ              selected for orbital group  1
 Library entry C      P cc-pVDZ              selected for orbital group  1
 Library entry C      D cc-pVDZ              selected for orbital group  1
 Library entry O      S cc-pVDZ              selected for orbital group  2
 Library entry O      P cc-pVDZ              selected for orbital group  2
 Library entry O      D cc-pVDZ              selected for orbital group  2
 Library entry H      S cc-pVDZ              selected for orbital group  3
 Library entry H      P cc-pVDZ              selected for orbital group  3


 PROGRAM * SEWARD (Integral evaluation for generally contracted gaussian basis sets)     Author: Roland Lindh, 1990

 Geometry written to block  1 of record 700


 Point group  C1  



 ATOMIC COORDINATES

 NR  ATOM    CHARGE       X              Y              Z

   1  C       6.00   -1.376400126   -0.023800991   -0.005397225
   2  O       8.00    1.319177311    0.125372193    0.001873018
   3  H       1.00   -2.079004826    1.907389275    0.001688831
   4  H       1.00   -2.112146999   -0.979573611    1.680473338
   5  H       1.00   -2.112621879   -0.981049918   -1.678230599
   6  H       1.00    1.937272359   -1.578469068   -0.000415773

 Bond lengths in Bohr (Angstrom)

 1-2  2.699711691  1-3  2.055042437  1-4  2.072916862  1-5  2.063181881  2-6  1.812490488
     ( 1.428625903)     ( 1.087481625)     ( 1.096940364)     ( 1.091788833)     ( 0.959128661)

 Bond angles

  1-2-6  106.77123540   2-1-3  106.82413639   2-1-4  112.18982249   2-1-5  112.58860231

  3-1-4  108.00709913   3-1-5  108.46954201   4-1-5  108.59249103

 NUCLEAR CHARGE:                   18
 NUMBER OF PRIMITIVE AOS:          82
 NUMBER OF SYMMETRY AOS:           80
 NUMBER OF CONTRACTIONS:           48   (   48A   )
 NUMBER OF INNER CORE ORBITALS:     0   (    0A   )
 NUMBER OF OUTER CORE ORBITALS:     2   (    2A   )
 NUMBER OF VALENCE ORBITALS:       12   (   12A   )


 NUCLEAR REPULSION ENERGY   40.19925072

 Eigenvalues of metric

         1 0.969E-02 0.177E-01 0.368E-01 0.374E-01 0.383E-01 0.474E-01 0.479E-01 0.516E-01


 Contracted 2-electron integrals neglected if value below      1.0D-16
 AO integral compression algorithm  1   Integral accuracy      1.0D-16

     7.078 MB (compressed) written to integral file (100.0%)

     Node minimum: 2.359 MB, node maximum: 2.359 MB


 NUMBER OF SORTED TWO-ELECTRON INTEGRALS:     231084.     BUFFER LENGTH:  32768
 NUMBER OF SEGMENTS:   1  SEGMENT LENGTH:     231084      RECORD LENGTH: 524288

 Memory used in sort:       0.79 MW

 SORT1 READ      832256. AND WROTE      227683. INTEGRALS IN      1 RECORDS. CPU TIME:     0.01 SEC, REAL TIME:     0.03 SEC
 SORT2 READ      682150. AND WROTE      692076. INTEGRALS IN     27 RECORDS. CPU TIME:     0.01 SEC, REAL TIME:     0.02 SEC

 Node minimum:      230300.  Node maximum:      231084. integrals

 OPERATOR DM      FOR CENTER  0  COORDINATES:    0.000000    0.000000    0.000000


 **********************************************************************************************************************************
 DATASETS  * FILE   NREC   LENGTH (MB)   RECORD NAMES
              1      18       28.73       500      610      700      900      950      970     1000      129      960     1100   
                                          VAR    BASINP    GEOM    SYMINP    ZMAT    AOBASIS   BASIS     P2S    ABASIS      S 
                                         1400     1410     1200     1210     1080     1600     1650     1700   
                                           T        V       H0       H01     AOSYM     SMH    MOLCAS    OPER   

 PROGRAMS   *        TOTAL       INT
 CPU TIMES  *         0.45      0.31
 REAL TIME  *         1.17 SEC
 DISK USED  *        29.07 MB (local),      104.69 MB (total)
 GA USED    *         0.00 MB       (max)       0.00 MB       (current)
 **********************************************************************************************************************************


 Program * Restricted Hartree-Fock

 Orbital guess generated from atomic densities. Full valence occupancy:   14

 Initial occupancy:   9

 NELEC=   18   SYM=1   MS2= 0   THRE=1.0D-12   THRD=1.0D-10   THRG=1.0D-10  HFMA2=F  DIIS_START=2   DIIS_MAX=10   DIIS_INCORE=F

 Level shifts:    0.00 (CLOSED)    0.00 (OPEN)    0.30 (GAP_MIN)

 ITER           ETOT              DE          GRAD        DDIFF     DIIS  NEXP   TIME(IT)  TIME(TOT)  DIAG
   1     -115.01382239    -115.01382239     0.00D+00     0.16D+00     0     0       0.00      0.00    start
   2     -115.04218828      -0.02836590     0.10D-01     0.21D-01     1     0       0.00      0.00    diag
   3     -115.04829225      -0.00610397     0.49D-02     0.64D-02     2     0       0.01      0.01    diag
   4     -115.04875766      -0.00046541     0.10D-02     0.20D-02     3     0       0.00      0.01    diag
   5     -115.04877896      -0.00002130     0.19D-03     0.44D-03     4     0       0.00      0.01    diag
   6     -115.04877977      -0.00000081     0.33D-04     0.93D-04     5     0       0.01      0.02    diag
   7     -115.04877980      -0.00000003     0.68D-05     0.15D-04     6     0       0.00      0.02    diag
   8     -115.04877980      -0.00000000     0.22D-05     0.50D-05     7     0       0.01      0.03    fixocc
   9     -115.04877980      -0.00000000     0.45D-06     0.14D-05     8     0       0.00      0.03    diag
  10     -115.04877980      -0.00000000     0.70D-07     0.23D-06     9     0       0.00      0.03    diag/orth
  11     -115.04877980      -0.00000000     0.16D-07     0.44D-07     9     0       0.00      0.03    diag
  12     -115.04877980       0.00000000     0.42D-08     0.13D-07     9     0       0.01      0.04    diag
  13     -115.04877980       0.00000000     0.69D-09     0.20D-08     9     0       0.00      0.04    diag
  14     -115.04877980       0.00000000     0.15D-09     0.40D-09     9     0       0.00      0.04    diag
  15     -115.04877980      -0.00000000     0.65D-10     0.12D-09     9     0       0.00      0.04    diag
  16     -115.04877980       0.00000000     0.17D-10     0.40D-10     9     0       0.00      0.04    diag
  17     -115.04877980      -0.00000000     0.42D-11     0.70D-11     0     0       0.00      0.04    diag

 Final occupancy:   9

 !RHF STATE 1.1 Energy               -115.048779799205
  RHF One-electron energy            -236.665930143156
  RHF Two-electron energy              81.417899626577
  RHF Kinetic energy                  114.931293144889
  RHF Nuclear energy                   40.199250717373
  RHF Virial quotient                  -1.001022233816

 !RHF STATE 1.1 Dipole moment          -0.40889720    -0.59688353    -0.00390319
 Dipole moment /Debye                  -1.03931302    -1.51712662    -0.00992091

 Orbital energies:

           1.1          2.1          3.1          4.1          5.1          6.1          7.1          8.1          9.1         10.1
    -20.550422   -11.275193    -1.347729    -0.921803    -0.681543    -0.612499    -0.582994    -0.498882    -0.444000     0.184474

          11.1
      0.224397


 HOMO      9.1    -0.444000 =     -12.0819eV
 LUMO     10.1     0.184474 =       5.0198eV
 LUMO-HOMO         0.628474 =      17.1017eV

 Orbitals saved in record  2100.2


 **********************************************************************************************************************************
 DATASETS  * FILE   NREC   LENGTH (MB)   RECORD NAMES
              1      18       28.73       500      610      700      900      950      970     1000      129      960     1100   
                                          VAR    BASINP    GEOM    SYMINP    ZMAT    AOBASIS   BASIS     P2S    ABASIS      S 
                                         1400     1410     1200     1210     1080     1600     1650     1700   
                                           T        V       H0       H01     AOSYM     SMH    MOLCAS    OPER   

              2       4        0.47       700     1000      520     2100   
                                         GEOM     BASIS   MCVARS     RHF  

 PROGRAMS   *        TOTAL   RHF-SCF       INT
 CPU TIMES  *         0.50      0.05      0.31
 REAL TIME  *         1.47 SEC
 DISK USED  *        29.40 MB (local),      105.68 MB (total)
 GA USED    *         0.00 MB       (max)       0.00 MB       (current)
 **********************************************************************************************************************************


 PROGRAM * CCSD (Closed-shell coupled cluster)     Authors: C. Hampel, H.-J. Werner, 1991, M. Deegan, P.J. Knowles, 1992


 Convergence thresholds:  THRVAR = 1.00D-08  THRDEN = 1.00D-12

 CCSD(T)     terms to be evaluated (factor= 1.000)


 Number of core orbitals:           2 (   2 )
 Number of closed-shell orbitals:   7 (   7 )
 Number of external orbitals:      39 (  39 )

 Molecular orbitals read from record     2100.2  Type=RHF/CANONICAL  

 Number of N-1 electron functions:               7
 Number of N-2 electron functions:              28
 Number of singly external CSFs:               273
 Number of doubly external CSFs:             37401
 Total number of CSFs:                       37675

 Length of J-op  integral file:               0.00 MB
 Length of K-op  integral file:               0.16 MB
 Length of 3-ext integral record:             0.00 MB

 Memory could be reduced to 0.73 Mwords without degradation in triples

 Integral transformation finished. Total CPU:   0.02 sec, npass=  1  Memory used:   0.66 MW

 Reference energy:                   -115.04877980

 MP2 singlet pair energy:              -0.21884802
 MP2 triplet pair energy:              -0.11990444
 MP2 correlation energy:               -0.33875246
 MP2 total energy:                   -115.38753226

 SCS-MP2 correlation energy:           -0.33722483   (PS=  1.200000  PT=  0.333333)
 SCS-MP2 total energy:               -115.38600463

 ITER.      SQ.NORM     CORR.ENERGY   TOTAL ENERGY   ENERGY CHANGE        DEN1      VAR(S)    VAR(P)  DIIS     TIME  TIME/IT
   1      1.10756232    -0.36152840  -115.41030820    -0.02277594    -0.01405648  0.93D-03  0.17D-02  1  1     0.05     0.04
   2      1.11612811    -0.36347783  -115.41225763    -0.00194943    -0.00927751  0.20D-04  0.16D-03  2  2     0.07     0.04
   3      1.11803544    -0.36360689  -115.41238669    -0.00012906    -0.00121791  0.97D-05  0.87D-05  3  3     0.09     0.04
   4      1.11855914    -0.36360533  -115.41238513     0.00000156    -0.00025835  0.34D-06  0.69D-06  4  4     0.11     0.03
   5      1.11865953    -0.36360571  -115.41238551    -0.00000038    -0.00003680  0.10D-06  0.50D-07  5  5     0.13     0.03
   6      1.11867905    -0.36360432  -115.41238411     0.00000140    -0.00000444  0.16D-07  0.42D-08  6  6     0.15     0.03
   7      1.11868390    -0.36360389  -115.41238369     0.00000043    -0.00000035  0.20D-08  0.74D-09  6  1     0.17     0.03
   8      1.11868519    -0.36360399  -115.41238379    -0.00000010     0.00000076  0.26D-09  0.74D-10  6  3     0.18     0.03
   9      1.11868628    -0.36360386  -115.41238366     0.00000013    -0.00000039  0.13D-10  0.11D-10  6  2     0.20     0.03
  10      1.11868621    -0.36360387  -115.41238366    -0.00000000     0.00000007  0.11D-11  0.89D-12  6  5     0.22     0.03
  11      1.11868624    -0.36360386  -115.41238366     0.00000000    -0.00000000  0.19D-12  0.51D-13  6  4     0.24     0.03
  12      1.11868623    -0.36360387  -115.41238366    -0.00000000     0.00000001  0.19D-13  0.10D-13  6  1     0.26     0.03
  13      1.11868623    -0.36360387  -115.41238366    -0.00000000    -0.00000000  0.24D-14  0.94D-15  6  6     0.28     0.03
  14      1.11868623    -0.36360387  -115.41238366     0.00000000    -0.00000000  0.23D-15  0.13D-15  6  3     0.30     0.03
  15      1.11868623    -0.36360387  -115.41238366    -0.00000000    -0.00000000  0.26D-16  0.17D-16  6  2     0.32     0.03
  16      1.11868623    -0.36360387  -115.41238366    -0.00000000    -0.00000000  0.59D-17  0.17D-17  6  5     0.34     0.03
  17      1.11868623    -0.36360387  -115.41238366    -0.00000000    -0.00000000  0.59D-18  0.26D-18  6  4     0.36     0.03
  18      1.11868623    -0.36360387  -115.41238366     0.00000000    -0.00000000  0.98D-19  0.45D-19  6  1     0.38     0.03
  19      1.11868623    -0.36360387  -115.41238366    -0.00000000    -0.00000000  0.13D-19  0.47D-20  6  6     0.40     0.03
  20      1.11868623    -0.36360387  -115.41238366     0.00000000     0.00000000  0.23D-20  0.70D-21  6  3     0.42     0.03

 Norm of t1 vector:      0.04199078      S-energy:    -0.00000000      T1 diagnostic:  0.00793551
                                                                       D1 diagnostic:  0.01785473
                                                                       D2 diagnostic:  0.13494054 (internal)


 Total CPU time for triples:      0.09 sec


 RESULTS
 =======

  Reference energy                   -115.048779799206
  CCSD singlet pair energy             -0.254854995467
  CCSD triplet pair energy             -0.108748869743
  CCSD correlation energy              -0.363603865210

  Triples (T) contribution             -0.007776958305
  Total correlation energy             -0.371380823515

  CCSD total energy                  -115.412383664415
  CCSD[T] energy                     -115.420454660968
  CCSD-T energy                      -115.420008648431
 !CCSD(T) total energy               -115.420160622720

 Timing summary (sec):

 STEP                 CPU(USER)    SYS     CPU(TOT)    WALL
 Transformation          0.02      0.01      0.03      0.04
 CCSD iterations         0.40      0.06      0.46      0.73
 Triples                 0.09      0.00      0.09      0.09

 Program statistics:

 Available memory in ccsd:               999999795
 Min. memory needed in ccsd:                136177
 Max. memory used in ccsd:                  162910
 Max. memory used in cckext:                178997 (20 integral passes)



 **********************************************************************************************************************************
 DATASETS  * FILE   NREC   LENGTH (MB)   RECORD NAMES
              1      19       31.13       500      610      700      900      950      970     1000      129      960     1100   
                                          VAR    BASINP    GEOM    SYMINP    ZMAT    AOBASIS   BASIS     P2S    ABASIS      S 
                                         1400     1410     1200     1210     1080     1600     1650     1700     1380   
                                           T        V       H0       H01     AOSYM     SMH    MOLCAS    OPER     JKOP   

              2       4        0.47       700     1000      520     2100   
                                         GEOM     BASIS   MCVARS     RHF  

 PROGRAMS   *        TOTAL   CCSD(T)   RHF-SCF       INT
 CPU TIMES  *         1.05      0.55      0.05      0.31
 REAL TIME  *         2.40 SEC
 DISK USED  *        35.56 MB (local),      116.33 MB (total)
 SF USED    *         5.97 MB
 GA USED    *         0.00 MB       (max)       0.00 MB       (current)
 **********************************************************************************************************************************

 CCSD(T)/cc-pVDZ energy=   -115.420160622720

         CCSD(T)         RHF-SCF
   -115.42016062   -115.04877980
 **********************************************************************************************************************************
 Molpro calculation terminated
