
    -----------------------------------------------------------------------
          Psi4: An Open-Source Ab Initio Electronic Structure Package
                               Psi4 1.4a2.dev629 

                         Git: Rev {master} 2938fc2 dirty


    D. G. A. Smith, L. A. Burns, A. C. Simmonett, R. M. Parrish,
    M. C. Schieber, R. Galvelis, P. Kraus, H. Kruse, R. Di Remigio,
    A. Alenaizan, A. M. James, S. Lehtola, J. P. Misiewicz, M. Scheurer,
    R. A. Shaw, J. B. Schriber, Y. Xie, Z. L. Glick, D. A. Sirianni,
    J. S. O'Brien, J. M. Waldrop, A. Kumar, E. G. Hohenstein,
    B. P. Pritchard, B. R. Brooks, H. F. Schaefer III, A. Yu. Sokolov,
    K. Patkowski, A. E. DePrince III, U. Bozkaya, R. A. King,
    F. A. Evangelista, J. M. Turney, T. D. Crawford, C. D. Sherrill,
    J. Chem. Phys. 152(18) 184108 (2020). https://doi.org/10.1063/5.0006002

                            Additional Code Authors
    E. T. Seidl, C. L. Janssen, E. F. Valeev, M. L. Leininger,
    J. F. Gonthier, R. M. Richard, H. R. McAlexander, M. Saitow, X. Wang,
    P. Verma, and M. H. Lechner

             Previous Authors, Complete List of Code Contributors,
                       and Citations for Specific Modules
    https://github.com/psi4/psi4/blob/master/codemeta.json
    https://github.com/psi4/psi4/graphs/contributors
    http://psicode.org/psi4manual/master/introduction.html#citing-psifour

    -----------------------------------------------------------------------


    Psi4 started on: Saturday, 22 October 2022 01:52AM

    Process ID: 21498
    Host:       n091
    PSIDATADIR: /opt/psi/4/master/share/psi4
    Memory:     500.0 MiB
    Threads:    4
    
  ==> Input File <==

--------------------------------------------------------------------------
# o-Benzyne preliminary computations

memory 14 gb

molecule {
  0 1
  units bohr
 H   -0.0000000000   -1.4143086889    0.9949479985
 O    0.0000000000   -0.0049809420   -0.1274732469
 H    0.0000000000    1.4192896310    0.9988688684
}

set {
  basis 6-31g*
  reference rhf
  e_convergence 10 
  d_convergence 10
  r_convergence 8
  maxiter 300
  freeze_core True
}

e, wfn = energy('b3lyp', return_wfn = True)
psi4.print_out('Giraffe The Energy is %.12f \n'%(e))
--------------------------------------------------------------------------

  Memory set to  13.039 GiB by Python driver.

Scratch directory: /tmp/794765.11.gen6.q/

*** tstart() called on n091
*** at Sat Oct 22 01:52:21 2022

   => Loading Basis Set <=

    Name: 6-31G*
    Role: ORBITAL
    Keyword: BASIS
    atoms 1, 3 entry H          line    44 file /opt/psi/4/master/share/psi4/basis/6-31gs.gbs 
    atoms 2    entry O          line   145 file /opt/psi/4/master/share/psi4/basis/6-31gs.gbs 


         ---------------------------------------------------------
                                   SCF
               by Justin Turney, Rob Parrish, Andy Simmonett
                          and Daniel G. A. Smith
                              RKS Reference
                        4 Threads,  13351 MiB Core
         ---------------------------------------------------------

  ==> Geometry <==

    Molecular point group: cs
    Full point group: Cs

    Geometry (in Bohr), charge = 0, multiplicity = 1:

       Center              X                  Y                   Z               Mass       
    ------------   -----------------  -----------------  -----------------  -----------------
         H            1.410163909145    -0.996586212116     0.000000000000     1.007825032230
         O            0.000836162245     0.125835033284     0.000000000000    15.994914619570
         H           -1.423434410755    -1.000507082016     0.000000000000     1.007825032230

  Running in cs symmetry.

  Rotational constants: A =     26.60366  B =     14.87737  C =      9.54153 [cm^-1]
  Rotational constants: A = 797557.53326  B = 446012.32376  C = 286047.85387 [MHz]
  Nuclear repulsion =    9.198948478547386

  Charge       = 0
  Multiplicity = 1
  Electrons    = 10
  Nalpha       = 5
  Nbeta        = 5

  ==> Algorithm <==

  SCF Algorithm Type is DF.
  DIIS enabled.
  MOM disabled.
  Fractional occupation disabled.
  Guess Type is SAD.
  Energy threshold   = 1.00e-10
  Density threshold  = 1.00e-10
  Integral threshold = 0.00e+00

  ==> Primary Basis <==

  Basis Set: 6-31G*
    Blend: 6-31G*
    Number of shells: 10
    Number of basis function: 19
    Number of Cartesian functions: 19
    Spherical Harmonics?: false
    Max angular momentum: 2

  ==> DFT Potential <==

   => Composite Functional: B3LYP <= 

    B3LYP Hyb-GGA Exchange-Correlation Functional

    P. J. Stephens, F. J. Devlin, C. F. Chabalowski, and M. J. Frisch, J. Phys. Chem. 98, 11623 (1994)

    Deriv               =              1
    GGA                 =           TRUE
    Meta                =          FALSE

    Exchange Hybrid     =           TRUE
    MP2 Hybrid          =          FALSE

   => Exchange Functionals <=

    0.0800   Slater exchange
    0.7200         Becke 88

   => Exact (HF) Exchange <=

    0.2000               HF 

   => Correlation Functionals <=

    0.1900   Vosko, Wilk & Nusair (VWN5_RPA)
    0.8100   Lee, Yang & Parr

   => Molecular Quadrature <=

    Radial Scheme          =       TREUTLER
    Pruning Scheme         =           NONE
    Nuclear Scheme         =       TREUTLER

    BS radius alpha        =              1
    Pruning alpha          =              1
    Radial Points          =             75
    Spherical Points       =            302
    Total Points           =          65910
    Total Blocks           =            551
    Max Points             =            256
    Max Functions          =             19
    Weights Tolerance      =       1.00E-15

   => Loading Basis Set <=

    Name: (6-31G* AUX)
    Role: JKFIT
    Keyword: DF_BASIS_SCF
    atoms 1, 3 entry H          line    51 file /opt/psi/4/master/share/psi4/basis/cc-pvdz-jkfit.gbs 
    atoms 2    entry O          line   221 file /opt/psi/4/master/share/psi4/basis/cc-pvdz-jkfit.gbs 

  ==> Integral Setup <==

  DFHelper Memory: AOs need 0.001 GiB; user supplied 9.743 GiB. Using in-core AOs.

  ==> MemDFJK: Density-Fitted J/K Matrices <==

    J tasked:                   Yes
    K tasked:                   Yes
    wK tasked:                   No
    OpenMP threads:               4
    Memory [MiB]:              9976
    Algorithm:                 Core
    Schwarz Cutoff:           1E-12
    Mask sparsity (%):       0.0000
    Fitting Condition:        1E-10

   => Auxiliary Basis Set <=

  Basis Set: (6-31G* AUX)
    Blend: CC-PVDZ-JKFIT
    Number of shells: 42
    Number of basis function: 131
    Number of Cartesian functions: 131
    Spherical Harmonics?: false
    Max angular momentum: 3

  Cached 100.0% of DFT collocation blocks in 0.036 [GiB].

  Minimum eigenvalue in the overlap matrix is 2.2272390776E-02.
  Reciprocal condition number of the overlap matrix is 4.7577297500E-03.
    Using symmetric orthogonalization.

  ==> Pre-Iterations <==

  SCF Guess: Superposition of Atomic Densities via on-the-fly atomic UHF (no occupation information).

   -------------------------
    Irrep   Nso     Nmo    
   -------------------------
     A'        15      15 
     A"         4       4 
   -------------------------
    Total      19      19
   -------------------------

  ==> Iterations <==

                           Total Energy        Delta E     RMS |[F,P]|

   @DF-RKS iter SAD:   -76.11686205109778   -7.61169e+01   0.00000e+00 
   @DF-RKS iter   1:   -76.26212249215190   -1.45260e-01   4.07502e-02 DIIS
   @DF-RKS iter   2:   -76.11327156898126    1.48851e-01   5.75451e-02 DIIS
   @DF-RKS iter   3:   -76.40861177981324   -2.95340e-01   6.11778e-04 DIIS
   @DF-RKS iter   4:   -76.40865451309303   -4.27333e-05   1.65177e-04 DIIS
   @DF-RKS iter   5:   -76.40865673292997   -2.21984e-06   3.07068e-05 DIIS
   @DF-RKS iter   6:   -76.40865681645337   -8.35234e-08   1.00291e-06 DIIS
   @DF-RKS iter   7:   -76.40865681655798   -1.04606e-10   6.64417e-08 DIIS
   @DF-RKS iter   8:   -76.40865681655855   -5.68434e-13   1.97205e-08 DIIS
   @DF-RKS iter   9:   -76.40865681655846    8.52651e-14   2.23734e-09 DIIS
   @DF-RKS iter  10:   -76.40865681655850   -4.26326e-14   1.05302e-10 DIIS
   @DF-RKS iter  11:   -76.40865681655849    1.42109e-14   4.65119e-12 DIIS
  Energy and wave function converged.


  ==> Post-Iterations <==

    Orbital Energies [Eh]
    ---------------------

    Doubly Occupied:                                                      

       1Ap   -19.136439     2Ap    -1.003448     3Ap    -0.520590  
       4Ap    -0.374082     1App   -0.292217  

    Virtual:                                                              

       5Ap     0.065652     6Ap     0.152145     7Ap     0.775540  
       8Ap     0.872712     2App    0.890560     9Ap     0.898346  
      10Ap     1.068268    11Ap     1.197200    12Ap     1.725055  
       3App    1.744352     4App    1.777526    13Ap     2.294402  
      14Ap     2.596188    15Ap     3.556852  

    Final Occupation by Irrep:
             Ap   App 
    DOCC [     4,    1 ]

  @DF-RKS Final Energy:   -76.40865681655849

   => Energetics <=

    Nuclear Repulsion Energy =              9.1989484785473863
    One-Electron Energy =                -123.1316772598865867
    Two-Electron Energy =                  45.0879760556134741
    DFT Exchange-Correlation Energy =      -7.5639040908327830
    Empirical Dispersion Energy =           0.0000000000000000
    VV10 Nonlocal Energy =                  0.0000000000000000
    Total Energy =                        -76.4086568165585049

Computation Completed


Properties will be evaluated at   0.000000,   0.000000,   0.000000 [a0]

Properties computed using the SCF density matrix

  Nuclear Dipole Moment: [e a0]
     X:    -0.0066      Y:    -0.9904      Z:     0.0000

  Electronic Dipole Moment: [e a0]
     X:     0.0039      Y:     0.1644      Z:     0.0000

  Dipole Moment: [e a0]
     X:    -0.0026      Y:    -0.8260      Z:     0.0000     Total:     0.8260

  Dipole Moment: [D]
     X:    -0.0067      Y:    -2.0996      Z:     0.0000     Total:     2.0996


*** tstop() called on n091 at Sat Oct 22 01:52:22 2022
Module time:
	user time   =       3.01 seconds =       0.05 minutes
	system time =       0.05 seconds =       0.00 minutes
	total time  =          1 seconds =       0.02 minutes
Total time:
	user time   =       3.01 seconds =       0.05 minutes
	system time =       0.05 seconds =       0.00 minutes
	total time  =          1 seconds =       0.02 minutes
Giraffe The Energy is -76.408656816558 

    Psi4 stopped on: Saturday, 22 October 2022 01:52AM
    Psi4 wall time for execution: 0:00:00.81

*** Psi4 exiting successfully. Buy a developer a beer!
