
    -----------------------------------------------------------------------
          Psi4: An Open-Source Ab Initio Electronic Structure Package
                               Psi4 1.4a2.dev629 

                         Git: Rev {master} 2938fc2 dirty


    D. G. A. Smith, L. A. Burns, A. C. Simmonett, R. M. Parrish,
    M. C. Schieber, R. Galvelis, P. Kraus, H. Kruse, R. Di Remigio,
    A. Alenaizan, A. M. James, S. Lehtola, J. P. Misiewicz, M. Scheurer,
    R. A. Shaw, J. B. Schriber, Y. Xie, Z. L. Glick, D. A. Sirianni,
    J. S. O'Brien, J. M. Waldrop, A. Kumar, E. G. Hohenstein,
    B. P. Pritchard, B. R. Brooks, H. F. Schaefer III, A. Yu. Sokolov,
    K. Patkowski, A. E. DePrince III, U. Bozkaya, R. A. King,
    F. A. Evangelista, J. M. Turney, T. D. Crawford, C. D. Sherrill,
    J. Chem. Phys. 152(18) 184108 (2020). https://doi.org/10.1063/5.0006002

                            Additional Code Authors
    E. T. Seidl, C. L. Janssen, E. F. Valeev, M. L. Leininger,
    J. F. Gonthier, R. M. Richard, H. R. McAlexander, M. Saitow, X. Wang,
    P. Verma, and M. H. Lechner

             Previous Authors, Complete List of Code Contributors,
                       and Citations for Specific Modules
    https://github.com/psi4/psi4/blob/master/codemeta.json
    https://github.com/psi4/psi4/graphs/contributors
    http://psicode.org/psi4manual/master/introduction.html#citing-psifour

    -----------------------------------------------------------------------


    Psi4 started on: Wednesday, 21 September 2022 04:28PM

    Process ID: 215443
    Host:       n070
    PSIDATADIR: /opt/psi/4/master/share/psi4
    Memory:     500.0 MiB
    Threads:    1
    
  ==> Input File <==

--------------------------------------------------------------------------
# o-Benzyne preliminary computations

memory 14 gb

molecule {
  0 1
  units bohr
 C   -1.3771694310   -0.0240120448   -0.0000004736
 O    1.3044776128    0.1209946547    0.0000006933
 H   -2.0758865015    1.9112500735   -0.0000773519
 H   -2.1075169406   -0.9805623951    1.6825119139
 H   -2.1075056160   -0.9806987043   -1.6824398843
 H    1.9398767164   -1.5771037040   -0.0000033074
}

set {
  basis cc-pvtz
  reference rhf
  e_convergence 10 
  d_convergence 10
  r_convergence 8
  maxiter 300
  freeze_core True
}

e, wfn = energy('ccsd(t)', return_wfn = True)
psi4.print_out('Giraffe The Energy is %.12f \n'%(e))
--------------------------------------------------------------------------

  Memory set to  13.039 GiB by Python driver.

Scratch directory: /tmp/

*** tstart() called on n070
*** at Wed Sep 21 16:28:56 2022

   => Loading Basis Set <=

    Name: CC-PVTZ
    Role: ORBITAL
    Keyword: BASIS
    atoms 1   entry C          line   186 file /opt/psi/4/master/share/psi4/basis/cc-pvtz.gbs 
    atoms 2   entry O          line   262 file /opt/psi/4/master/share/psi4/basis/cc-pvtz.gbs 
    atoms 3-6 entry H          line    23 file /opt/psi/4/master/share/psi4/basis/cc-pvtz.gbs 


         ---------------------------------------------------------
                                   SCF
               by Justin Turney, Rob Parrish, Andy Simmonett
                          and Daniel G. A. Smith
                              RHF Reference
                        1 Threads,  13351 MiB Core
         ---------------------------------------------------------

  ==> Geometry <==

    Molecular point group: c1
    Full point group: C1

    Geometry (in Bohr), charge = 0, multiplicity = 1:

       Center              X                  Y                   Z               Mass       
    ------------   -----------------  -----------------  -----------------  -----------------
         C           -1.375729846507    -0.024240222832    -0.000000370836    12.000000000000
         O            1.305917197293     0.120766476668     0.000000796064    15.994914619570
         H           -2.074446917007     1.911021895468    -0.000077249136     1.007825032230
         H           -2.106077356107    -0.980790573132     1.682512016664     1.007825032230
         H           -2.106066031507    -0.980926882332    -1.682439781536     1.007825032230
         H            1.941316300893    -1.577331882032    -0.000003204636     1.007825032230

  Running in c1 symmetry.

  Rotational constants: A =      4.27757  B =      0.82725  C =      0.79806 [cm^-1]
  Rotational constants: A = 128238.38331  B =  24800.25264  C =  23925.11720 [MHz]
  Nuclear repulsion =   40.307230404559441

  Charge       = 0
  Multiplicity = 1
  Electrons    = 18
  Nalpha       = 9
  Nbeta        = 9

  ==> Algorithm <==

  SCF Algorithm Type is PK.
  DIIS enabled.
  MOM disabled.
  Fractional occupation disabled.
  Guess Type is SAD.
  Energy threshold   = 1.00e-10
  Density threshold  = 1.00e-10
  Integral threshold = 0.00e+00

  ==> Primary Basis <==

  Basis Set: CC-PVTZ
    Blend: CC-PVTZ
    Number of shells: 44
    Number of basis function: 116
    Number of Cartesian functions: 130
    Spherical Harmonics?: true
    Max angular momentum: 3

  ==> Integral Setup <==

  Using in-core PK algorithm.
   Calculation information:
      Number of atoms:                   6
      Number of AO shells:              44
      Number of primitives:             84
      Number of atomic orbitals:       130
      Number of basis functions:       116

      Integral cutoff                 1.00e-12
      Number of threads:                 1

  Performing in-core PK
  Using 46056582 doubles for integral storage.
  We computed 490485 shell quartets total.
  Whereas there are 490545 unique shell quartets.

  ==> DiskJK: Disk-Based J/K Matrices <==

    J tasked:                  Yes
    K tasked:                  Yes
    wK tasked:                  No
    Memory [MiB]:            10013
    Schwarz Cutoff:          1E-12

    OpenMP threads:              1

  Minimum eigenvalue in the overlap matrix is 1.8509059748E-03.
  Reciprocal condition number of the overlap matrix is 2.7988689087E-04.
    Using symmetric orthogonalization.

  ==> Pre-Iterations <==

  SCF Guess: Superposition of Atomic Densities via on-the-fly atomic UHF (no occupation information).

   -------------------------
    Irrep   Nso     Nmo    
   -------------------------
     A        116     116 
   -------------------------
    Total     116     116
   -------------------------

  ==> Iterations <==

                        Total Energy        Delta E     RMS |[F,P]|

   @RHF iter SAD:  -114.41409454082570   -1.14414e+02   0.00000e+00 
   @RHF iter   1:  -115.01445811217299   -6.00364e-01   3.41358e-03 DIIS
   @RHF iter   2:  -115.07129970099925   -5.68416e-02   1.95620e-03 DIIS
   @RHF iter   3:  -115.08815619277441   -1.68565e-02   3.00958e-04 DIIS
   @RHF iter   4:  -115.08904060399411   -8.84411e-04   8.77691e-05 DIIS
   @RHF iter   5:  -115.08911412588836   -7.35219e-05   2.14299e-05 DIIS
   @RHF iter   6:  -115.08911898796921   -4.86208e-06   4.73937e-06 DIIS
   @RHF iter   7:  -115.08911935587855   -3.67909e-07   1.09873e-06 DIIS
   @RHF iter   8:  -115.08911937742960   -2.15510e-08   2.26673e-07 DIIS
   @RHF iter   9:  -115.08911937833815   -9.08557e-10   4.21222e-08 DIIS
   @RHF iter  10:  -115.08911937836851   -3.03544e-11   1.08752e-08 DIIS
   @RHF iter  11:  -115.08911937837014   -1.63425e-12   2.23172e-09 DIIS
   @RHF iter  12:  -115.08911937837010    4.26326e-14   3.98670e-10 DIIS
   @RHF iter  13:  -115.08911937837024   -1.42109e-13   7.34535e-11 DIIS
  Energy and wave function converged.


  ==> Post-Iterations <==

    Orbital Energies [Eh]
    ---------------------

    Doubly Occupied:                                                      

       1A    -20.552436     2A    -11.269758     3A     -1.353924  
       4A     -0.923005     5A     -0.687784     6A     -0.617720  
       7A     -0.589831     8A     -0.502159     9A     -0.449083  

    Virtual:                                                              

      10A      0.138400    11A      0.178727    12A      0.220086  
      13A      0.223651    14A      0.290394    15A      0.386671  
      16A      0.404305    17A      0.544592    18A      0.583101  
      19A      0.623182    20A      0.625110    21A      0.638061  
      22A      0.689971    23A      0.703011    24A      0.721229  
      25A      0.833439    26A      0.864781    27A      0.872261  
      28A      0.928094    29A      1.067332    30A      1.100798  
      31A      1.176965    32A      1.188764    33A      1.261678  
      34A      1.272568    35A      1.282146    36A      1.364375  
      37A      1.446886    38A      1.493047    39A      1.521658  
      40A      1.544678    41A      1.582260    42A      1.619481  
      43A      1.772928    44A      2.091784    45A      2.179377  
      46A      2.195665    47A      2.299182    48A      2.322792  
      49A      2.490841    50A      2.511881    51A      2.578453  
      52A      2.805480    53A      2.949628    54A      3.053865  
      55A      3.108729    56A      3.114384    57A      3.145547  
      58A      3.222528    59A      3.242422    60A      3.312549  
      61A      3.313931    62A      3.342858    63A      3.384098  
      64A      3.499344    65A      3.611201    66A      3.633868  
      67A      3.698576    68A      3.705520    69A      3.743465  
      70A      3.759819    71A      3.813134    72A      3.835640  
      73A      3.904829    74A      4.012467    75A      4.030268  
      76A      4.116948    77A      4.159485    78A      4.168366  
      79A      4.245945    80A      4.254803    81A      4.285565  
      82A      4.394634    83A      4.435362    84A      4.463208  
      85A      4.554429    86A      4.578550    87A      4.709526  
      88A      4.780670    89A      4.992040    90A      5.030095  
      91A      5.050599    92A      5.198487    93A      5.264879  
      94A      5.308413    95A      5.366259    96A      5.441497  
      97A      5.537281    98A      5.542162    99A      5.557865  
     100A      5.784858   101A      5.943706   102A      6.185527  
     103A      6.205248   104A      6.241845   105A      6.421490  
     106A      6.635500   107A      6.994531   108A      7.125780  
     109A      7.176258   110A      7.235873   111A      7.352184  
     112A      7.427986   113A      7.594741   114A      7.907778  
     115A     12.126284   116A     13.691129  

    Final Occupation by Irrep:
              A 
    DOCC [     9 ]

  @RHF Final Energy:  -115.08911937837024

   => Energetics <=

    Nuclear Repulsion Energy =             40.3072304045594407
    One-Electron Energy =                -236.9012995860400395
    Two-Electron Energy =                  81.5049498031103496
    Total Energy =                       -115.0891193783702420

Computation Completed


Properties will be evaluated at   0.000000,   0.000000,   0.000000 [a0]

Properties computed using the SCF density matrix

  Nuclear Dipole Moment: [e a0]
     X:    -2.1523      Y:    -0.8073      Z:    -0.0000

  Electronic Dipole Moment: [e a0]
     X:     1.7646      Y:     0.2191      Z:     0.0000

  Dipole Moment: [e a0]
     X:    -0.3877      Y:    -0.5882      Z:    -0.0000     Total:     0.7045

  Dipole Moment: [D]
     X:    -0.9854      Y:    -1.4951      Z:    -0.0000     Total:     1.7906


*** tstop() called on n070 at Wed Sep 21 16:29:00 2022
Module time:
	user time   =       4.24 seconds =       0.07 minutes
	system time =       0.06 seconds =       0.00 minutes
	total time  =          4 seconds =       0.07 minutes
Total time:
	user time   =       4.24 seconds =       0.07 minutes
	system time =       0.06 seconds =       0.00 minutes
	total time  =          4 seconds =       0.07 minutes
 MINTS: Wrapper to libmints.
   by Justin Turney

   Calculation information:
      Number of threads:                 1
      Number of atoms:                   6
      Number of AO shells:              44
      Number of SO shells:              44
      Number of primitives:             84
      Number of atomic orbitals:       130
      Number of basis functions:       116

      Number of irreps:                  1
      Integral cutoff                 0.00e+00
      Number of functions per irrep: [ 116 ]

 OEINTS: Overlap, kinetic, potential, dipole, and quadrupole integrals
         stored in file 35.

      Computing two-electron integrals...done
      Computed 22881314 non-zero two-electron integrals.
        Stored in file 33.


*** tstart() called on n070
*** at Wed Sep 21 16:29:02 2022


	Wfn Parameters:
	--------------------
	Wavefunction         = CCSD_T
	Number of irreps     = 1
	Number of MOs        = 116
	Number of active MOs = 114
	AO-Basis             = NONE
	Semicanonical        = false
	Reference            = RHF
	Print Level          = 1

	IRREP	# MOs	# FZDC	# DOCC	# SOCC	# VIRT	# FZVR
	-----	-----	------	------	------	------	------
	 A	   116	    2	    7	    0	    107	    0
	Transforming integrals...
	IWL integrals will be deleted.
	(OO|OO)...
	Presorting SO-basis two-electron integrals.
	Sorting File: SO Ints (nn|nn) nbuckets = 1
	Transforming the one-electron integrals and constructing Fock matrices
	Starting first half-transformation.
	Sorting half-transformed integrals.
	First half integral transformation complete.
	Starting second half-transformation.
	Two-electron integral transformation complete.
	(OO|OV)...
	Starting second half-transformation.
	Two-electron integral transformation complete.
	(OO|VV)...
	Starting second half-transformation.
	Two-electron integral transformation complete.
	(OV|OO)...
	Starting first half-transformation.
	Sorting half-transformed integrals.
	First half integral transformation complete.
	Starting second half-transformation.
	Two-electron integral transformation complete.
	(OV|OV)...
	Starting second half-transformation.
	Two-electron integral transformation complete.
	(OV|VV)...
	Starting second half-transformation.
	Two-electron integral transformation complete.
	(VV|OO)...
	Starting first half-transformation.
	Sorting half-transformed integrals.
	First half integral transformation complete.
	Starting second half-transformation.
	Two-electron integral transformation complete.
	(VV|OV)...
	Starting second half-transformation.
	Two-electron integral transformation complete.
	(VV|VV)...
	Starting second half-transformation.
	Two-electron integral transformation complete.
	Frozen core energy     =   -106.48886274600542

	Size of irrep 0 of <ab|cd> integrals:    131.080 (MW) /   1048.637 (MB)
	Total:                                   131.080 (MW) /   1048.637 (MB)

	Size of irrep 0 of <ia|bc> integrals:      8.575 (MW) /     68.602 (MB)
	Total:                                     8.575 (MW) /     68.602 (MB)

	Size of irrep 0 of tijab amplitudes:       0.561 (MW) /      4.488 (MB)
	Total:                                     0.561 (MW) /      4.488 (MB)

	Nuclear Rep. energy          =     40.30723040455944
	SCF energy                   =   -115.08911937837024
	One-electron energy          =    -87.56796251461010
	Two-electron energy          =     38.66047547768559
	Reference energy             =   -115.08911937837050

*** tstop() called on n070 at Wed Sep 21 16:29:15 2022
Module time:
	user time   =       8.53 seconds =       0.14 minutes
	system time =       3.53 seconds =       0.06 minutes
	total time  =         13 seconds =       0.22 minutes
Total time:
	user time   =      14.39 seconds =       0.24 minutes
	system time =       3.77 seconds =       0.06 minutes
	total time  =         19 seconds =       0.32 minutes
            **************************
            *                        *
            *        CCENERGY        *
            *                        *
            **************************

    Nuclear Rep. energy (wfn)     =   40.307230404559441
    SCF energy          (wfn)     = -115.089119378370242
    Reference energy    (file100) = -115.089119378370498

    Input parameters:
    -----------------
    Wave function   =     CCSD_T
    Reference wfn   =     RHF
    Brueckner       =     No
    Memory (Mbytes) =     14000.0
    Maxiter         =    300
    R_Convergence   =     1.0e-08
    E_Convergence   =     1.0e-10
    Restart         =     Yes
    DIIS            =     Yes
    AO Basis        =     NONE
    ABCD            =     NEW
    Cache Level     =     2
    Cache Type      =     LOW
    Print Level     =     1
    Num. of threads =     1
    # Amps to Print =     10
    Print MP2 Amps? =     No
    Analyze T2 Amps =     No
    Print Pair Ener =     No
    Local CC        =     No
    SCS-MP2         =     False
    SCSN-MP2        =     False
    SCS-CCSD        =     False

MP2 correlation energy -0.4283279899578476
                Solving CC Amplitude Equations
                ------------------------------
  Iter             Energy              RMS        T1Diag      D1Diag    New D1Diag    D2Diag
  ----     ---------------------    ---------   ----------  ----------  ----------   --------
     0        -0.428327989957848    0.000e+00    0.000000    0.000000    0.000000    0.128416
     1        -0.435612612336406    4.785e-02    0.007307    0.014808    0.014808    0.129755
     2        -0.445448690223459    1.576e-02    0.007423    0.014746    0.014746    0.135552
     3        -0.446919732752292    5.531e-03    0.008329    0.016861    0.016861    0.137001
     4        -0.446828025179584    1.221e-03    0.008389    0.017017    0.017017    0.137238
     5        -0.446870984196253    4.462e-04    0.008428    0.017164    0.017164    0.137341
     6        -0.446878482619946    1.285e-04    0.008440    0.017222    0.017222    0.137349
     7        -0.446875984483936    4.767e-05    0.008442    0.017239    0.017239    0.137346
     8        -0.446876013061447    1.756e-05    0.008444    0.017249    0.017249    0.137346
     9        -0.446876094973648    4.967e-06    0.008444    0.017251    0.017251    0.137346
    10        -0.446875844813963    1.574e-06    0.008444    0.017251    0.017251    0.137346
    11        -0.446875910344635    4.900e-07    0.008444    0.017251    0.017251    0.137346
    12        -0.446875895555209    1.202e-07    0.008444    0.017251    0.017251    0.137346
    13        -0.446875899063114    4.353e-08    0.008444    0.017251    0.017251    0.137346
    14        -0.446875900278312    1.231e-08    0.008444    0.017251    0.017251    0.137346
    15        -0.446875900318204    5.128e-09    0.008444    0.017251    0.017251    0.137346
    16        -0.446875900341287    1.576e-09    0.008444    0.017251    0.017251    0.137346

    Iterations converged.


    Largest TIA Amplitudes:
              3   6        -0.0081135926
              3  14         0.0076052071
              6  14        -0.0067426180
              3   9         0.0067269339
              4   7         0.0059061047
              5   8         0.0058275540
              4   3        -0.0057664082
              6   6         0.0054671843
              3   2         0.0054636614
              4   5        -0.0051344135

    Largest TIjAb Amplitudes:
      3   3   9   9        -0.0231630581
      4   4   7   7        -0.0216662248
      6   6  14  14        -0.0211518874
      5   5  12  12        -0.0203532872
      2   2   7   7        -0.0189943305
      4   4   8   8        -0.0160133766
      3   3  14  14        -0.0151661780
      3   3   2   9        -0.0151403075
      3   3   9   2        -0.0151403075
      3   6   9   9        -0.0150353148

    SCF energy       (wfn)                    = -115.089119378370242
    Reference energy (file100)                = -115.089119378370498

    Opposite-spin MP2 correlation energy      =   -0.330130422091767
    Same-spin MP2 correlation energy          =   -0.098197567866081
    Singles MP2 correlation energy            =   -0.000000000000000
    MP2 correlation energy                    =   -0.428327989957848
      * MP2 total energy                      = -115.517447368328348

    Opposite-spin CCSD correlation energy     =   -0.357719011938309
    Same-spin CCSD correlation energy         =   -0.089156888402979
    Singles CCSD correlation energy           =    0.000000000000000
    CCSD correlation energy                   =   -0.446875900341287
      * CCSD total energy                     = -115.535995278711781

            **************************
            *                        *
            *        CCTRIPLES       *
            *                        *
            **************************


    Wave function   =    CCSD_T
    Reference wfn   =      RHF

    Nuclear Rep. energy (wfn)                =   40.307230404559441
    SCF energy          (wfn)                = -115.089119378370242
    Reference energy    (file100)            = -115.089119378370498
    CCSD energy         (file100)            =   -0.446875900341287
    Total CCSD energy   (file100)            = -115.535995278711781

    Number of ijk index combinations:               84
    Memory available in words        :      1750000000
    ~Words needed per explicit thread:         4900172
    Number of threads for explicit ijk threading:    1

    MKL num_threads set to 1 for explicit threading.

    (T) energy                                =   -0.014789569140095
      * CCSD(T) total energy                  = -115.550784847851887

Giraffe The Energy is -115.550784847852 

    Psi4 stopped on: Wednesday, 21 September 2022 04:29PM
    Psi4 wall time for execution: 0:00:51.42

*** Psi4 exiting successfully. Buy a developer a beer!
