
 Primary working directories    : /tmp/601555.98.gen4.q
 Secondary working directories  : /tmp/601555.98.gen4.q
 Wavefunction directory         : /home/vulcan/mel64643/wfu/
 Main file repository           : /tmp/601555.98.gen4.q/

 ARCHNAME  : Linux/x86_64
 FC        : /opt/intel/compilers_and_libraries_2016.1.150/linux/bin/intel64/ifort
 FCVERSION : 16.0.1
 BLASLIB   : -mkl
 id        : ccgc

 Nodes     nprocs
 n049         1
 ga_uses_ma=false, calling ma_init with nominal heap.
 GA-space will be limited to   8.0 MW (determined by -G option)

 Using customized tuning parameters: mindgm=10; mindgv=16; mindgc=4; mindgr=1; noblas=0; mincuda=1000; minvec=7
 default implementation of scratch files=df  

 ***,Optimization of min3
 memory,1000,m
 gthresh,energy=1.0d-12,orbital=1.0d-10,oneint=1.0d-16,twoint=1.0d-16,optgrad=1.0d-6,compress=1.0d-13
 geomtyp=xyz
 
  bohr
  geometry = {
  6
  arbitrary comment
  C   -1.3744702170   -0.0240613528    0.0000003481
  O    1.3022151633    0.1258575248    0.0000002856
  H   -2.0682955507    1.9074997212   -0.0000799193
  H   -2.1119106102   -0.9817271685    1.6808794218
  H   -2.1119040882   -0.9818583088   -1.6808072167
  H    1.9406411429   -1.5758425359   -0.0000013295
 }
 
 basis=cc-pvdz
 {rhf;maxit,200}
 {ccsd(t);maxit,200}

 Variables initialized (661), CPU time= 0.01 sec
 Commands  initialized (458), CPU time= 0.00 sec, 486 directives.
 Default parameters read. Elapsed time= 0.05 sec

 Checking input...
 Passed
1


                                         ***  PROGRAM SYSTEM MOLPRO  ***
                         Copyright, University College Cardiff Consultants Limited, 2008

                                    Version 2010.1 linked May 16 2016 07:17:05


 **********************************************************************************************************************************
 LABEL *   Optimization of min3                                                          
 Linux-4.4.3/n049(x86_64) 64 bit mpp version                                             DATE: 06-Nov-21          TIME: 15:39:46  
 **********************************************************************************************************************************

 SHA1:             9e8077add272b0f3cad6f7df79ec5211205f459d
 **********************************************************************************************************************************

 THRESHOLDS:

 ZERO    =  1.00D-12  ONEINT  =  1.00D-16  TWOINT  =  1.00D-16  PREFAC  =  1.00D-14  LOCALI  =  1.00D-09  EORDER  =  1.00D-04
 ENERGY  =  1.00D-12  ETEST   =  0.00D+00  EDENS   =  0.00D+00  THRDEDEF=  1.00D-06  GRADIENT=  1.00D-02  STEP    =  1.00D-03
 ORBITAL =  1.00D-10  CIVEC   =  1.00D-05  COEFF   =  1.00D-04  PRINTCI =  5.00D-02  PUNCHCI =  9.90D+01  OPTGRAD =  1.00D-06
 OPTENERG=  1.00D-06  OPTSTEP =  3.00D-04  THRGRAD =  1.00D-10  COMPRESS=  1.00D-13  VARMIN  =  1.00D-07  VARMAX  =  1.00D-03
 THRDOUB =  0.00D+00  THRDIV  =  1.00D-05  THRRED  =  1.00D-07  THRPSP  =  1.00D+00  THRDC   =  1.00D-10  THRCS   =  1.00D-10
 THRNRM  =  1.00D-08  THREQ   =  0.00D+00  THRDE   =  1.00D+00  THRREF  =  1.00D-05  SPARFAC =  1.00D+00  THRDLP  =  1.00D-07
 THRDIA  =  1.00D-10  THRDLS  =  1.00D-07  THRGPS  =  0.00D+00  THRKEX  =  0.00D+00  THRDIS  =  2.00D-01  THRVAR  =  1.00D-10
 THRLOC  =  1.00D-06  THRGAP  =  1.00D-06  THRLOCT = -1.00D+00  THRGAPT = -1.00D+00  THRORB  =  1.00D-06  THRMLTP =  0.00D+00
 THRCPQCI=  1.00D-10  KEXTA   =  0.00D+00  THRCOARS=  0.00D+00  SYMTOL  =  1.00D-06  GRADTOL =  1.00D-06  THROVL  =  1.00D-08
 THRORTH =  1.00D-08  GRID    =  1.00D-06  GRIDMAX =  1.00D-03  DTMAX   =  0.00D+00

 SETTING GEOMTYP        =    XYZ
 ZUNIT=BOHR
 

 Variable memory set to 1000000000 words,  buffer space   230000 words

 SETTING BASIS          =    CC-PVDZ


 Recomputing integrals since basis changed


 Using spherical harmonics

 Library entry C      S cc-pVDZ              selected for orbital group  1
 Library entry C      P cc-pVDZ              selected for orbital group  1
 Library entry C      D cc-pVDZ              selected for orbital group  1
 Library entry O      S cc-pVDZ              selected for orbital group  2
 Library entry O      P cc-pVDZ              selected for orbital group  2
 Library entry O      D cc-pVDZ              selected for orbital group  2
 Library entry H      S cc-pVDZ              selected for orbital group  3
 Library entry H      P cc-pVDZ              selected for orbital group  3

1PROGRAM * SEWARD (Integral evaluation for generally contracted gaussian basis sets)     Author: Roland Lindh, 1990

 Geometry written to block  1 of record 700


 Point group  C1  



 ATOMIC COORDINATES

 NR  ATOM    CHARGE       X              Y              Z

   1  C       6.00   -1.374470217   -0.024061353    0.000000348
   2  O       8.00    1.302215163    0.125857525    0.000000286
   3  H       1.00   -2.068295551    1.907499721   -0.000079919
   4  H       1.00   -2.111910610   -0.981727168    1.680879422
   5  H       1.00   -2.111904088   -0.981858309   -1.680807217
   6  H       1.00    1.940641143   -1.575842536   -0.000001329

 Bond lengths in Bohr (Angstrom)

 1-2  2.680880507  1-3  2.052394159  1-4  2.070337318  1-5  2.070337604  2-6  1.817517766
     ( 1.418660865)     ( 1.086080213)     ( 1.095575323)     ( 1.095575475)     ( 0.961788978)

 Bond angles

  1-2-6  107.35882096   2-1-3  106.55277545   2-1-4  112.42683341   2-1-5  112.42685240

  3-1-4  108.35780778   3-1-5  108.35763462   4-1-5  108.55793253

 NUCLEAR CHARGE:                   18
 NUMBER OF PRIMITIVE AOS:          82
 NUMBER OF SYMMETRY AOS:           80
 NUMBER OF CONTRACTIONS:           48   (  48A   )
 NUMBER OF CORE ORBITALS:           2   (   2A   )
 NUMBER OF VALENCE ORBITALS:       12   (  12A   )


 NUCLEAR REPULSION ENERGY   40.33608640


 Eigenvalues of metric

         1 0.964E-02 0.176E-01 0.367E-01 0.375E-01 0.382E-01 0.476E-01 0.477E-01 0.516E-01


 Contracted 2-electron integrals neglected if value below      1.0D-16
 AO integral compression algorithm  1   Integral accuracy      1.0D-16

     6.291 MB (compressed) written to integral file ( 98.4%)

     Node minimum: 6.291 MB, node maximum: 6.291 MB


 NUMBER OF SORTED TWO-ELECTRON INTEGRALS:     692076.     BUFFER LENGTH:  32768
 NUMBER OF SEGMENTS:   1  SEGMENT LENGTH:     692076      RECORD LENGTH: 524288

 Memory used in sort:       1.25 MW

 SORT1 READ      832256. AND WROTE      682148. INTEGRALS IN      2 RECORDS. CPU TIME:     0.01 SEC, REAL TIME:     0.01 SEC
 SORT2 READ      682148. AND WROTE      692076. INTEGRALS IN     24 RECORDS. CPU TIME:     0.02 SEC, REAL TIME:     0.02 SEC

 FILE SIZES:   FILE 1:     8.0 MBYTE,  FILE 4:     8.4 MBYTE,   TOTAL:     16.4 MBYTE

 OPERATOR DM      FOR CENTER  0  COORDINATES:    0.000000    0.000000    0.000000


 **********************************************************************************************************************************
 DATASETS  * FILE   NREC   LENGTH (MB)   RECORD NAMES
              1      19        8.03       500      610      700      900      950      970     1000      129      960     1100   
                                          VAR    BASINP    GEOM    SYMINP    ZMAT    AOBASIS   BASIS     P2S    ABASIS      S 
                                         1400     1410     1200     1210     1080     1600     1650     1300     1700   
                                           T        V       H0       H01     AOSYM     SMH    MOLCAS    ERIS     OPER   

 PROGRAMS   *        TOTAL       INT
 CPU TIMES  *         0.23      0.18
 REAL TIME  *         0.41 SEC
 DISK USED  *        23.34 MB      
 GA USED    *         0.00 MB       (max)       0.00 MB       (current)
 **********************************************************************************************************************************

1PROGRAM * RHF-SCF (CLOSED SHELL)       Authors: W. Meyer, H.-J. Werner


 NUMBER OF ELECTRONS:       9+    9-    SPACE SYMMETRY=1    SPIN SYMMETRY: Singlet 
 CONVERGENCE THRESHOLDS:    1.00E-10 (Density)    1.00E-13 (Energy)
 MAX. NUMBER OF ITERATIONS:      200
 INTERPOLATION TYPE:            DIIS
 INTERPOLATION STEPS:              2 (START)      1 (STEP)
 LEVEL SHIFTS:                  0.00 (CLOSED)  0.00 (OPEN) 



 Orbital guess generated from atomic densities. Full valence occupancy:   14

 Molecular orbital dump at record        2100.2

 ITERATION    DDIFF          GRAD             ENERGY        2-EL.EN.            DIPOLE MOMENTS         DIIS
    1      0.000D+00      0.000D+00      -115.01415389    164.447496   -0.48726   -0.90623   -0.00000    0
    2      0.000D+00      0.110D-01      -115.04255083    162.221263   -0.31136   -0.53636   -0.00000    1
    3      0.205D-01      0.530D-02      -115.04857886    163.249456   -0.39490   -0.61211   -0.00000    2
    4      0.639D-02      0.112D-02      -115.04904433    163.092402   -0.38505   -0.60055   -0.00000    3
    5      0.204D-02      0.203D-03      -115.04906558    163.098903   -0.38800   -0.59615   -0.00000    4
    6      0.435D-03      0.358D-04      -115.04906639    163.099085   -0.38835   -0.59592   -0.00000    5
    7      0.937D-04      0.747D-05      -115.04906642    163.097881   -0.38850   -0.59575   -0.00000    6
    8      0.153D-04      0.241D-05      -115.04906643    163.098269   -0.38854   -0.59572   -0.00000    7
    9      0.513D-05      0.498D-06      -115.04906643    163.098228   -0.38855   -0.59572   -0.00000    6
   10      0.143D-05      0.901D-07      -115.04906643    163.098226   -0.38855   -0.59572   -0.00000    6
   11      0.240D-06      0.336D-07      -115.04906643    163.098232   -0.38855   -0.59572   -0.00000    6
   12      0.610D-07      0.142D-07      -115.04906643    163.098230   -0.38855   -0.59572   -0.00000    7
   13      0.266D-07      0.312D-08      -115.04906643    163.098230   -0.38856   -0.59572   -0.00000    7
   14      0.779D-08      0.657D-09      -115.04906643    163.098230   -0.38856   -0.59572   -0.00000    7
   15      0.167D-08      0.153D-09      -115.04906643    163.098230   -0.38856   -0.59572   -0.00000    7
   16      0.341D-09      0.461D-10      -115.04906643    163.098230   -0.38856   -0.59572   -0.00000    7
   17      0.885D-10      0.166D-10      -115.04906643    163.098230   -0.38856   -0.59572   -0.00000    7
   18      0.426D-10      0.276D-11      -115.04906643    163.098230   -0.38856   -0.59572   -0.00000    0

 Final occupancy:   9

 !RHF STATE 1.1 Energy               -115.049066425362
 Nuclear energy                        40.33608640
 One-electron energy                 -236.93426802
 Two-electron energy                   81.54911520
 Virial quotient                       -1.00090622
 !RHF STATE 1.1 Dipole moment          -0.38855503    -0.59572148    -0.00000278
 Dipole moment /Debye                  -0.98754369    -1.51407381    -0.00000707

 Orbital energies:

         1.1          2.1          3.1          4.1          5.1          6.1          7.1          8.1          9.1         10.1
    -20.550268   -11.274332    -1.350253    -0.921111    -0.683182    -0.613472    -0.585256    -0.497413    -0.442731     0.184392

        11.1
      0.224444


 **********************************************************************************************************************************
 DATASETS  * FILE   NREC   LENGTH (MB)   RECORD NAMES
              1      19        8.03       500      610      700      900      950      970     1000      129      960     1100   
                                          VAR    BASINP    GEOM    SYMINP    ZMAT    AOBASIS   BASIS     P2S    ABASIS      S 
                                         1400     1410     1200     1210     1080     1600     1650     1300     1700   
                                           T        V       H0       H01     AOSYM     SMH    MOLCAS    ERIS     OPER   

              2       3        0.39       700     1000     2100   
                                         GEOM     BASIS     RHF  

 PROGRAMS   *        TOTAL       RHF       INT
 CPU TIMES  *         0.32      0.09      0.18
 REAL TIME  *         0.53 SEC
 DISK USED  *        23.34 MB      
 GA USED    *         0.00 MB       (max)       0.00 MB       (current)
 **********************************************************************************************************************************


1PROGRAM * CCSD (Closed-shell coupled cluster)     Authors: C. Hampel, H.-J. Werner, 1991, M. Deegan, P.J. Knowles, 1992


 Convergence thresholds:  THRVAR = 1.00D-08  THRDEN = 1.00D-12

 CCSD(T)     terms to be evaluated (factor= 1.000)


 Number of core orbitals:           2 (   2 )
 Number of closed-shell orbitals:   7 (   7 )
 Number of external orbitals:      39 (  39 )

 Molecular orbitals read from record     2100.2  Type=RHF/CANONICAL (state 1.1)

 Number of N-1 electron functions:               7
 Number of N-2 electron functions:              28
 Number of singly external CSFs:               273
 Number of doubly external CSFs:             37401
 Total number of CSFs:                       37675

 Length of J-op  integral file:               0.00 MB
 Length of K-op  integral file:               0.19 MB
 Length of 3-ext integral record:             0.00 MB

 Memory could be reduced to 0.96 Mwords without degradation in triples

 Integral transformation finished. Total CPU:   0.02 sec, npass=  1  Memory used:   0.66 MW

 Reference energy:                   -115.04906643

 MP2 singlet pair energy:              -0.21866765
 MP2 triplet pair energy:              -0.11987454
 MP2 correlation energy:               -0.33854219
 MP2 total energy:                   -115.38760861

 SCS-MP2 correlation energy:           -0.33698978   (PS=  1.200000  PT=  0.333333)
 SCS-MP2 total energy:               -115.38605621

 ITER.      SQ.NORM     CORR.ENERGY   TOTAL ENERGY   ENERGY CHANGE        DEN1      VAR(S)    VAR(P)  DIIS     TIME
   1      1.10733627    -0.36132676  -115.41039319    -0.02278458    -0.01410171  0.91D-03  0.17D-02  1  1     0.05
   2      1.11586278    -0.36327199  -115.41233842    -0.00194523    -0.00925168  0.20D-04  0.16D-03  2  2     0.09
   3      1.11774624    -0.36339919  -115.41246561    -0.00012719    -0.00120521  0.95D-05  0.86D-05  3  3     0.13
   4      1.11826218    -0.36339783  -115.41246426     0.00000136    -0.00025526  0.34D-06  0.68D-06  4  4     0.17
   5      1.11836055    -0.36339823  -115.41246466    -0.00000040    -0.00003608  0.10D-06  0.49D-07  5  5     0.21
   6      1.11837972    -0.36339687  -115.41246330     0.00000136    -0.00000438  0.16D-07  0.41D-08  6  6     0.24
   7      1.11838452    -0.36339645  -115.41246287     0.00000042    -0.00000036  0.20D-08  0.72D-09  6  1     0.28
   8      1.11838580    -0.36339655  -115.41246298    -0.00000010     0.00000075  0.26D-09  0.72D-10  6  3     0.32
   9      1.11838687    -0.36339643  -115.41246285     0.00000012    -0.00000038  0.13D-10  0.10D-10  6  2     0.36
  10      1.11838679    -0.36339643  -115.41246285    -0.00000000     0.00000007  0.11D-11  0.88D-12  6  5     0.40
  11      1.11838682    -0.36339643  -115.41246285     0.00000000    -0.00000000  0.19D-12  0.51D-13  6  4     0.44
  12      1.11838681    -0.36339643  -115.41246285    -0.00000000     0.00000001  0.19D-13  0.10D-13  6  1     0.47
  13      1.11838681    -0.36339643  -115.41246285    -0.00000000    -0.00000000  0.24D-14  0.95D-15  6  6     0.51
  14      1.11838681    -0.36339643  -115.41246285     0.00000000    -0.00000000  0.22D-15  0.12D-15  6  3     0.55
  15      1.11838681    -0.36339643  -115.41246285    -0.00000000    -0.00000000  0.25D-16  0.17D-16  6  2     0.59
  16      1.11838681    -0.36339643  -115.41246285    -0.00000000    -0.00000000  0.56D-17  0.16D-17  6  5     0.63
  17      1.11838681    -0.36339643  -115.41246285    -0.00000000    -0.00000000  0.53D-18  0.25D-18  6  4     0.67
  18      1.11838681    -0.36339643  -115.41246285     0.00000000    -0.00000000  0.82D-19  0.43D-19  6  1     0.71
  19      1.11838681    -0.36339643  -115.41246285    -0.00000000    -0.00000000  0.94D-20  0.42D-20  6  6     0.74
  20      1.11838681    -0.36339643  -115.41246285     0.00000000     0.00000000  0.13D-20  0.55D-21  6  3     0.78

 Norm of t1 vector:      0.04170967      S-energy:    -0.00000000      T1 diagnostic:  0.00788239
                                                                       D1 diagnostic:  0.01744700


 Total CPU time for triples:      0.21 sec


 RESULTS
 =======

  Reference energy                   -115.049066425363
  CCSD singlet pair energy             -0.254615778769
  CCSD triplet pair energy             -0.108780649257
  CCSD correlation energy              -0.363396428026

  Triples (T) contribution             -0.007739595800
  Total correlation energy             -0.371136023825

  CCSD total energy                  -115.412462853388
  CCSD[T] energy                     -115.420492561525
  CCSD-T energy                      -115.420052563081
 !CCSD(T) total energy               -115.420202449188

 Timing summary (sec):

 STEP                 CPU(USER)    SYS     CPU(TOT)    WALL
 Transformation          0.02      0.01      0.03      0.02
 CCSD iterations         0.76      0.05      0.81      0.84
 Triples                 0.21      0.00      0.21      0.22

 Program statistics:

 Available memory in ccsd:               999999704
 Min. memory needed in ccsd:                136801
 Max. memory used in ccsd:                  163198
 Max. memory used in cckext:                182024 (20 integral passes)



 **********************************************************************************************************************************
 DATASETS  * FILE   NREC   LENGTH (MB)   RECORD NAMES
              1      20       10.56       500      610      700      900      950      970     1000      129      960     1100   
                                          VAR    BASINP    GEOM    SYMINP    ZMAT    AOBASIS   BASIS     P2S    ABASIS      S 
                                         1400     1410     1200     1210     1080     1600     1650     1300     1700     1380   
                                           T        V       H0       H01     AOSYM     SMH    MOLCAS    ERIS     OPER     JKOP   

              2       3        0.39       700     1000     2100   
                                         GEOM     BASIS     RHF  

 PROGRAMS   *        TOTAL   CCSD(T)       RHF       INT
 CPU TIMES  *         1.32      1.00      0.09      0.18
 REAL TIME  *         1.63 SEC
 DISK USED  *        24.77 MB      
 GA USED    *         0.00 MB       (max)       0.00 MB       (current)
 **********************************************************************************************************************************

        CCSD(T)         RHF-SCF 
   -115.42020245   -115.04906643
 **********************************************************************************************************************************
 Variable memory released
