[Molden Format]
[ATOMS] AU
H        1    1       -1.4167026053        1.0214343336        0.0000000000
O        2    8       -0.0001263906       -0.1286168418       -0.0000000000
H        3    1        1.4187085166        1.0198082768       -0.0000000000
[Molden Format]
[GTO]
  1 0
s   4 1.00
   13.0100000000000       1.968500000000000E-002
   1.96200000000000       0.137977000000000     
  0.444600000000000       0.478148000000000     
  0.122000000000000       0.501240000000000     
s   4 1.00
   13.0100000000000       0.000000000000000E+000
   1.96200000000000       0.000000000000000E+000
  0.444600000000000       0.000000000000000E+000
  0.122000000000000        1.00000000000000     
p   1 1.00
  0.727000000000000        1.00000000000000     
 
  2 0
s   9 1.00
   11720.0000000000       7.100000000000000E-004
   1759.00000000000       5.470000000000000E-003
   400.800000000000       2.783700000000000E-002
   113.700000000000       0.104800000000000     
   37.0300000000000       0.283062000000000     
   13.2700000000000       0.448719000000000     
   5.02500000000000       0.270952000000000     
   1.01300000000000       1.545800000000000E-002
  0.302300000000000      -2.585000000000000E-003
s   9 1.00
   11720.0000000000      -1.600000000000000E-004
   1759.00000000000      -1.263000000000000E-003
   400.800000000000      -6.267000000000000E-003
   113.700000000000      -2.571600000000000E-002
   37.0300000000000      -7.092400000000000E-002
   13.2700000000000      -0.165411000000000     
   5.02500000000000      -0.116955000000000     
   1.01300000000000       0.557368000000000     
  0.302300000000000       0.572759000000000     
s   9 1.00
   11720.0000000000       0.000000000000000E+000
   1759.00000000000       0.000000000000000E+000
   400.800000000000       0.000000000000000E+000
   113.700000000000       0.000000000000000E+000
   37.0300000000000       0.000000000000000E+000
   13.2700000000000       0.000000000000000E+000
   5.02500000000000       0.000000000000000E+000
   1.01300000000000       0.000000000000000E+000
  0.302300000000000        1.00000000000000     
p   4 1.00
   17.7000000000000       4.301800000000000E-002
   3.85400000000000       0.228913000000000     
   1.04600000000000       0.508728000000000     
  0.275300000000000       0.460531000000000     
p   4 1.00
   17.7000000000000       0.000000000000000E+000
   3.85400000000000       0.000000000000000E+000
   1.04600000000000       0.000000000000000E+000
  0.275300000000000        1.00000000000000     
d   1 1.00
   1.18500000000000        1.00000000000000     
 
  3 0
s   4 1.00
   13.0100000000000       1.968500000000000E-002
   1.96200000000000       0.137977000000000     
  0.444600000000000       0.478148000000000     
  0.122000000000000       0.501240000000000     
s   4 1.00
   13.0100000000000       0.000000000000000E+000
   1.96200000000000       0.000000000000000E+000
  0.444600000000000       0.000000000000000E+000
  0.122000000000000        1.00000000000000     
p   1 1.00
  0.727000000000000        1.00000000000000     
 
[MO]
 Sym= A
 Ene=  -20.5533291585394     
 Spin= Alpha
 Occup= 1.0
  1        0.0003212326
  2       -0.0005787399
  3        0.0005373097
  4       -0.0004765942
  5        0.0000000000
  6       -1.0003797054
  7       -0.0021891444
  8        0.0013812591
  9       -0.0000005998
 10       -0.0025672177
 11        0.0000000000
 12        0.0000011609
 13        0.0016974339
 14        0.0000000000
 15       -0.0000486217
 16       -0.0000119033
 17        0.0000605250
 18        0.0000007087
 19        0.0000000000
 20        0.0000000000
 21        0.0003180144
 22       -0.0005769864
 23       -0.0005368572
 24       -0.0004749019
 25        0.0000000000
 Sym= A
 Ene=  -1.33445989410697     
 Spin= Alpha
 Occup= 1.0
  1        0.3257634363
  2       -0.1531702783
  3        0.0361390911
  4       -0.0213148636
  5        0.0000000000
  6       -0.0076615214
  7        0.8719485101
  8       -0.1196295573
  9       -0.0000212977
 10        0.1155525193
 11        0.0000000000
 12        0.0000177059
 13       -0.0657422802
 14        0.0000000000
 15        0.0009263488
 16        0.0009004444
 17       -0.0018267932
 18       -0.0000088440
 19        0.0000000000
 20        0.0000000000
 21        0.3254140447
 22       -0.1529920724
 23       -0.0361487885
 24       -0.0212425778
 25        0.0000000000
 Sym= A
 Ene= -0.689870920576855     
 Spin= Alpha
 Occup= 1.0
  1        0.5526446906
  2       -0.1834153681
  3        0.0222948712
  4       -0.0330567044
  5        0.0000000000
  6        0.0000006093
  7       -0.0002237555
  8       -0.0001852962
  9       -0.7144952871
 10        0.0008585264
 11        0.0000000000
 12        0.1001623581
 13       -0.0001304501
 14        0.0000000000
 15       -0.0000181939
 16        0.0000229362
 17       -0.0000047423
 18       -0.0268506704
 19        0.0000000000
 20        0.0000000000
 21       -0.5523222177
 22        0.1832082364
 23        0.0223305596
 24        0.0330242536
 25        0.0000000000
 Sym= A
 Ene= -0.570273388887276     
 Spin= Alpha
 Occup= 1.0
  1        0.3584856231
  2       -0.1377050401
  3        0.0322751785
  4        0.0063196917
  5        0.0000000000
  6        0.0023631707
  7       -0.3003075949
  8       -0.1821569323
  9        0.0008164402
 10        0.7887909125
 11        0.0000000000
 12       -0.0000117976
 13       -0.0040389154
 14        0.0000000000
 15       -0.0029692893
 16        0.0104249384
 17       -0.0074556491
 18        0.0000235557
 19        0.0000000000
 20        0.0000000000
 21        0.3588631799
 22       -0.1377218863
 23       -0.0322809843
 24        0.0063302055
 25        0.0000000000
 Sym= A
 Ene= -0.493486349078259     
 Spin= Alpha
 Occup= 1.0
  1        0.0000000000
  2        0.0000000000
  3        0.0000000000
  4        0.0000000000
  5        0.0309347851
  6        0.0000000000
  7        0.0000000000
  8        0.0000000000
  9        0.0000000000
 10        0.0000000000
 11        0.9205690215
 12        0.0000000000
 13        0.0000000000
 14        0.0715442338
 15        0.0000000000
 16        0.0000000000
 17        0.0000000000
 18        0.0000000000
 19        0.0000087368
 20        0.0183355088
 21        0.0000000000
 22        0.0000000000
 23        0.0000000000
 24        0.0000000000
 25        0.0309190805
 Sym= A
 Ene=  0.183594961496227     
 Spin= Alpha
 Occup= 0.0
  1        0.0983439028
  2        0.7736535389
  3        0.0163946206
  4       -0.0161534883
  5        0.0000000000
  6        0.0517600238
  7       -0.1404970015
  8       -0.9079558558
  9       -0.0005223178
 10       -0.2862545430
 11        0.0000000000
 12       -0.0003994353
 13       -0.2145752843
 14        0.0000000000
 15       -0.0022779779
 16       -0.0047889181
 17        0.0070668959
 18        0.0000006953
 19        0.0000000000
 20        0.0000000000
 21        0.0985371769
 22        0.7745727427
 23       -0.0164155850
 24       -0.0161116611
 25        0.0000000000
 Sym= A
 Ene=  0.255262066840518     
 Spin= Alpha
 Occup= 0.0
  1        0.0512550084
  2        1.4159330354
  3        0.0198580182
  4       -0.0162473627
  5        0.0000000000
  6        0.0000348138
  7       -0.0000557476
  8       -0.0007833043
  9        0.4180688036
 10       -0.0003641552
 11        0.0000000000
 12        0.4750719334
 13       -0.0004235139
 14        0.0000000000
 15        0.0000050954
 16       -0.0000147714
 17        0.0000096760
 18        0.0203630839
 19        0.0000000000
 20        0.0000000000
 21       -0.0513246927
 22       -1.4148141414
 23        0.0198245226
 24        0.0161790197
 25        0.0000000000
 Sym= A
 Ene=  0.774799255937954     
 Spin= Alpha
 Occup= 0.0
  1        1.6035384571
  2       -1.5131864812
  3       -0.0713894917
  4        0.1439473801
  5        0.0000000000
  6        0.0001807772
  7        0.0011070326
  8       -0.0015632734
  9        0.3826158813
 10        0.0007384256
 11        0.0000000000
 12        0.2699291458
 13       -0.0008028737
 14        0.0000000000
 15       -0.0001703600
 16        0.0000707506
 17        0.0000996094
 18       -0.1107512693
 19        0.0000000000
 20        0.0000000000
 21       -1.6091054597
 22        1.5185791280
 23       -0.0725145555
 24       -0.1440632602
 25        0.0000000000
 Sym= A
 Ene=  0.857725080204600     
 Spin= Alpha
 Occup= 0.0
  1        1.3281658143
  2       -1.2239927919
  3       -0.2928427378
  4        0.0746018813
  5        0.0000000000
  6       -0.0719200224
  7       -0.5222791329
  8        0.6579080082
  9        0.0002653420
 10       -0.5115608426
 11        0.0000000000
 12        0.0011933995
 13        0.2687908802
 14        0.0000000000
 15        0.0504271007
 16        0.0037657749
 17       -0.0541928756
 18       -0.0003346798
 19        0.0000000000
 20        0.0000000000
 21        1.3216678619
 22       -1.2184775382
 23        0.2925590564
 24        0.0734879766
 25        0.0000000000
 Sym= A
 Ene=   1.16640578089950     
 Spin= Alpha
 Occup= 0.0
  1        0.9536133608
  2       -0.3796183925
  3        0.0635104945
  4       -0.2609928692
  5        0.0000000000
  6       -0.0107467222
  7       -0.2681342533
  8       -0.5538084063
  9        0.0000113255
 10        1.0802837127
 11        0.0000000000
 12        0.0005466169
 13       -1.7738443250
 14        0.0000000000
 15        0.0104278954
 16       -0.0084962069
 17       -0.0019316885
 18        0.0000337805
 19        0.0000000000
 20        0.0000000000
 21        0.9523255824
 22       -0.3804717258
 23       -0.0633709401
 24       -0.2607680140
 25        0.0000000000
 Sym= A
 Ene=   1.19956235878081     
 Spin= Alpha
 Occup= 0.0
  1        0.0000000000
  2        0.0000000000
  3        0.0000000000
  4        0.0000000000
  5        0.0174323163
  6        0.0000000000
  7        0.0000000000
  8        0.0000000000
  9        0.0000000000
 10        0.0000000000
 11       -1.4098163766
 12        0.0000000000
 13        0.0000000000
 14        1.6668186775
 15        0.0000000000
 16        0.0000000000
 17        0.0000000000
 18        0.0000000000
 19        0.0000259196
 20       -0.0028123727
 21        0.0000000000
 22        0.0000000000
 23        0.0000000000
 24        0.0000000000
 25        0.0179497545
 Sym= A
 Ene=   1.25656110584183     
 Spin= Alpha
 Occup= 0.0
  1        0.6166742944
  2        0.5112031926
  3        0.2906471726
  4       -0.1974005180
  5        0.0000000000
  6        0.0000257980
  7        0.0003877290
  8       -0.0003291109
  9       -1.0872443175
 10       -0.0002487541
 11        0.0000000000
 12        2.2446338213
 13       -0.0000837031
 14        0.0000000000
 15        0.0000008552
 16       -0.0000327229
 17        0.0000318678
 18        0.0433923896
 19        0.0000000000
 20        0.0000000000
 21       -0.6180456008
 22       -0.5102987290
 23        0.2910451271
 24        0.1972173374
 25        0.0000000000
 Sym= A
 Ene=   1.42175246097870     
 Spin= Alpha
 Occup= 0.0
  1        0.6331414618
  2       -0.5045737563
  3        0.3669284849
  4        0.5189006662
  5        0.0000000000
  6       -0.1763142940
  7       -0.9318935215
  8        0.8984022654
  9       -0.0000649086
 10        0.1923946873
 11        0.0000000000
 12       -0.0003223305
 13       -0.8733595153
 14        0.0000000000
 15       -0.0385557070
 16        0.0681140628
 17       -0.0295583558
 18        0.0001438816
 19        0.0000000000
 20        0.0000000000
 21        0.6326756521
 22       -0.5043336746
 23       -0.3661705222
 24        0.5194084576
 25        0.0000000000
 Sym= A
 Ene=   1.48269060952376     
 Spin= Alpha
 Occup= 0.0
  1        0.0000000000
  2        0.0000000000
  3        0.0000000000
  4        0.0000000000
  5        0.6868136410
  6        0.0000000000
  7        0.0000000000
  8        0.0000000000
  9        0.0000000000
 10        0.0000000000
 11       -0.0006957520
 12        0.0000000000
 13        0.0000000000
 14        0.0007579336
 15        0.0000000000
 16        0.0000000000
 17        0.0000000000
 18        0.0000000000
 19       -0.1333827968
 20        0.0000315969
 21        0.0000000000
 22        0.0000000000
 23        0.0000000000
 24        0.0000000000
 25       -0.6871662644
 Sym= A
 Ene=   1.65866266766830     
 Spin= Alpha
 Occup= 0.0
  1        0.0000000000
  2        0.0000000000
  3        0.0000000000
  4        0.0000000000
  5        0.7619311143
  6        0.0000000000
  7        0.0000000000
  8        0.0000000000
  9        0.0000000000
 10        0.0000000000
 11       -0.0045463432
 12        0.0000000000
 13        0.0000000000
 14       -0.6357370444
 15        0.0000000000
 16        0.0000000000
 17        0.0000000000
 18        0.0000000000
 19        0.0001043352
 20        0.1609946528
 21        0.0000000000
 22        0.0000000000
 23        0.0000000000
 24        0.0000000000
 25        0.7615046681
 Sym= A
 Ene=   1.86369214515860     
 Spin= Alpha
 Occup= 0.0
  1        1.4032407702
  2       -0.3162139235
  3        0.3532578752
  4       -0.0168206576
  5        0.0000000000
  6        0.7343516226
  7        3.1769797126
  8       -4.8588458102
  9        0.0003394560
 10       -0.1475135093
 11        0.0000000000
 12       -0.0004457766
 13       -0.9022920096
 14        0.0000000000
 15        0.0238517909
 16        0.0630767221
 17       -0.0869285131
 18        0.0000803444
 19        0.0000000000
 20        0.0000000000
 21        1.4019167548
 22       -0.3160613723
 23       -0.3534653635
 24       -0.0157322290
 25        0.0000000000
 Sym= A
 Ene=   1.94068599126728     
 Spin= Alpha
 Occup= 0.0
  1        0.6118649856
  2       -0.2212914513
  3       -0.4684968779
  4       -0.7020189091
  5        0.0000000000
  6       -0.0002965221
  7       -0.0013029878
  8        0.0016480760
  9        0.0314999063
 10        0.0002214744
 11        0.0000000000
 12        0.8365381304
 13       -0.0003992727
 14        0.0000000000
 15       -0.0000225763
 16       -0.0000119444
 17        0.0000345207
 18       -0.0304585859
 19        0.0000000000
 20        0.0000000000
 21       -0.6125227835
 22        0.2213974596
 23       -0.4671425245
 24        0.7025997921
 25        0.0000000000
 Sym= A
 Ene=   2.42679827675606     
 Spin= Alpha
 Occup= 0.0
  1        0.4514585523
  2        0.1046859629
  3        0.7253153507
  4       -0.5314412685
  5        0.0000000000
  6        0.0021523021
  7        0.0119280293
  8        0.0015010841
  9        1.1899706689
 10        0.0086677950
 11        0.0000000000
 12       -0.4300554813
 13       -0.0021082879
 14        0.0000000000
 15       -0.0009729701
 16       -0.0001803913
 17        0.0011533614
 18       -0.1316201203
 19        0.0000000000
 20        0.0000000000
 21       -0.4666893223
 22       -0.1004236770
 23        0.7403310509
 24        0.5412802348
 25        0.0000000000
 Sym= A
 Ene=   2.47410762326364     
 Spin= Alpha
 Occup= 0.0
  1        0.7949265995
  2       -0.2326408563
  3        0.7288244847
  4       -0.5668246400
  5        0.0000000000
  6       -0.2605645066
  7       -1.3656475439
  8       -0.0183847794
  9        0.0113968458
 10       -0.9898457319
 11        0.0000000000
 12       -0.0042958252
 13        0.2782136242
 14        0.0000000000
 15        0.0932593608
 16        0.0267332100
 17       -0.1199925709
 18       -0.0015056336
 19        0.0000000000
 20        0.0000000000
 21        0.7847835974
 22       -0.2339686359
 23       -0.7149279608
 24       -0.5551368211
 25        0.0000000000
 Sym= A
 Ene=   3.29120936400000     
 Spin= Alpha
 Occup= 0.0
  1        0.0000000000
  2        0.0000000000
  3        0.0000000000
  4        0.0000000000
  5        0.3949586596
  6        0.0000000000
  7        0.0000000000
  8        0.0000000000
  9        0.0000000000
 10        0.0000000000
 11        0.0227094710
 12        0.0000000000
 13        0.0000000000
 14       -0.3203120558
 15        0.0000000000
 16        0.0000000000
 17        0.0000000000
 18        0.0000000000
 19       -0.0077215339
 20       -1.0432990538
 21        0.0000000000
 22        0.0000000000
 23        0.0000000000
 24        0.0000000000
 25        0.3995412552
 Sym= A
 Ene=   3.32093008518788     
 Spin= Alpha
 Occup= 0.0
  1        0.0000000000
  2        0.0000000000
  3        0.0000000000
  4        0.0000000000
  5        0.3659327925
  6        0.0000000000
  7        0.0000000000
  8        0.0000000000
  9        0.0000000000
 10        0.0000000000
 11        0.0000377430
 12        0.0000000000
 13        0.0000000000
 14       -0.0022169259
 15        0.0000000000
 16        0.0000000000
 17        0.0000000000
 18        0.0000000000
 19        1.0605814428
 20       -0.0077496249
 21        0.0000000000
 22        0.0000000000
 23        0.0000000000
 24        0.0000000000
 25       -0.3603476340
 Sym= A
 Ene=   3.50731735026978     
 Spin= Alpha
 Occup= 0.0
  1        0.3785642487
  2       -0.1697528104
  3        0.3068861810
  4        0.3347594471
  5        0.0000000000
  6        0.0754403331
  7        0.2851768828
  8       -0.5570275257
  9       -0.0000792349
 10        0.0245290117
 11        0.0000000000
 12       -0.0005980604
 13       -0.4783279038
 14        0.0000000000
 15        0.4500768571
 16       -0.6143119335
 17        0.1642350764
 18       -0.0015960743
 19        0.0000000000
 20        0.0000000000
 21        0.3789123075
 22       -0.1698193273
 23       -0.3062348229
 24        0.3346908954
 25        0.0000000000
 Sym= A
 Ene=   3.83932725138469     
 Spin= Alpha
 Occup= 0.0
  1        2.0985054258
  2       -0.8596358965
  3        0.6203495892
  4       -0.4736061617
  5        0.0000000000
  6        0.1668056769
  7        0.4421947418
  8       -2.5329832516
  9       -0.0003134034
 10       -0.5743633392
 11        0.0000000000
 12       -0.0011524573
 13       -0.7165260038
 14        0.0000000000
 15       -0.4869020735
 16       -0.1507699530
 17        0.6376720265
 18       -0.0004442068
 19        0.0000000000
 20        0.0000000000
 21        2.0991116891
 22       -0.8595876990
 23       -0.6217966795
 24       -0.4732720802
 25        0.0000000000
 Sym= A
 Ene=   4.15178386340632     
 Spin= Alpha
 Occup= 0.0
  1        1.8013263052
  2       -0.6158700022
  3        0.5908467401
  4       -0.5143137379
  5        0.0000000000
  6       -0.0001236570
  7       -0.0006775591
  8       -0.0022267113
  9        0.6529217365
 10       -0.0014221165
 11        0.0000000000
 12        0.8126388902
 13       -0.0012432963
 14        0.0000000000
 15        0.0005955941
 16       -0.0011263722
 17        0.0005307781
 18        1.3272926204
 19        0.0000000000
 20        0.0000000000
 21       -1.7955234943
 22        0.6133050750
 23        0.5902735137
 24        0.5125365585
 25        0.0000000000
 [FREQ]
        0.0000408556
        0.0000065368
        0.0000000000
        0.0000000000
        0.0000173802
        0.0000404950
     1691.6191538272
     3824.9389106472
     3931.3094653280
 [FR-COORD]
H            0.0000000000       -1.4177057780        1.0206217640
O            0.0000000000        0.0000000000       -0.1286168997
H            0.0000000000        1.4177057780        1.0206217640
 [FR-NORM-COORD]
  vibration                      1
       -0.0000000000        0.3450038001        0.4571008852
        0.0000000000       -0.3328567739       -0.2851128171
        0.0252285173        0.3450038001       -0.6002367100
  vibration                      2
       -0.0000000000        0.2353715150       -0.0195843201
        0.0000000000        0.8288882702       -0.2122198367
        0.3862155253        0.2353715150       -0.0869568788
  vibration                      3
       -0.0000000000       -0.0000000000        0.0000000000
        1.0000000000       -0.0000000000        0.0000000000
       -0.0000000000       -0.0000000000        0.0000000000
  vibration                      4
        1.0000000000        0.0000000000        0.0000000000
        0.0000000000        0.0000000000        0.0000000000
        0.0000000000        0.0000000000        0.0000000000
  vibration                      5
        0.0000000000        0.1970644518        0.2484663026
       -0.0000000000        0.3480855189        0.4507798763
       -0.7319416624        0.1970644518       -0.0221602739
  vibration                      6
       -0.0000000000        0.0795899393        0.3172330383
       -0.0000000000       -0.1015635425        0.7473660764
        0.5607695541        0.0795899393        0.0579688233
  vibration                      7
       -0.0000000000        0.4209146967        0.5354449065
        0.0000000000       -0.0000000000       -0.2688106031
       -0.0000000000       -0.4209146967        0.5354449065
  vibration                      8
        0.0000000000        0.5681820290       -0.3966627224
        0.0000000000       -0.0000000000        0.1991374730
       -0.0000000000       -0.5681820290       -0.3966627224
  vibration                      9
        0.0000000000        0.5295315583       -0.4292555972
        0.0000000000       -0.2658419117       -0.0000000000
       -0.0000000000        0.5295315583        0.4292555972
