
 Primary working directories    : /tmp/601556.6.gen4.q
 Secondary working directories  : /tmp/601556.6.gen4.q
 Wavefunction directory         : /home/vulcan/mel64643/wfu/
 Main file repository           : /tmp/601556.6.gen4.q/

 ARCHNAME  : Linux/x86_64
 FC        : /opt/intel/compilers_and_libraries_2016.1.150/linux/bin/intel64/ifort
 FCVERSION : 16.0.1
 BLASLIB   : -mkl
 id        : ccgc

 Nodes     nprocs
 n046         1
 ga_uses_ma=false, calling ma_init with nominal heap.
 GA-space will be limited to   8.0 MW (determined by -G option)

 Using customized tuning parameters: mindgm=10; mindgv=16; mindgc=4; mindgr=1; noblas=0; mincuda=1000; minvec=7
 default implementation of scratch files=df  

 ***,Optimization of min3
 memory,1000,m
 gthresh,energy=1.0d-12,orbital=1.0d-10,oneint=1.0d-16,twoint=1.0d-16,optgrad=1.0d-6,compress=1.0d-13
 geomtyp=xyz
 
  bohr
  geometry = {
  6
  arbitrary comment
  C   -1.3711941416   -0.0208687741    0.0000033350
  O    1.3035810133    0.1210299015    0.0000012645
  H   -2.0827901594    1.9097930091   -0.0000831000
  H   -2.1019130979   -0.9799461155    1.6812152385
  H   -2.1019146234   -0.9800733068   -1.6811462865
  H    1.9305068490   -1.5800668340    0.0000011385
 }
 
 basis=cc-pvtz
 {rhf;maxit,200}
 {ccsd(t);maxit,200}

 Variables initialized (661), CPU time= 0.00 sec
 Commands  initialized (458), CPU time= 0.01 sec, 486 directives.
 Default parameters read. Elapsed time= 0.06 sec

 Checking input...
 Passed
1


                                         ***  PROGRAM SYSTEM MOLPRO  ***
                         Copyright, University College Cardiff Consultants Limited, 2008

                                    Version 2010.1 linked May 16 2016 07:17:05


 **********************************************************************************************************************************
 LABEL *   Optimization of min3                                                          
 Linux-4.4.3/n046(x86_64) 64 bit mpp version                                             DATE: 06-Nov-21          TIME: 15:41:16  
 **********************************************************************************************************************************

 SHA1:             9e8077add272b0f3cad6f7df79ec5211205f459d
 **********************************************************************************************************************************

 THRESHOLDS:

 ZERO    =  1.00D-12  ONEINT  =  1.00D-16  TWOINT  =  1.00D-16  PREFAC  =  1.00D-14  LOCALI  =  1.00D-09  EORDER  =  1.00D-04
 ENERGY  =  1.00D-12  ETEST   =  0.00D+00  EDENS   =  0.00D+00  THRDEDEF=  1.00D-06  GRADIENT=  1.00D-02  STEP    =  1.00D-03
 ORBITAL =  1.00D-10  CIVEC   =  1.00D-05  COEFF   =  1.00D-04  PRINTCI =  5.00D-02  PUNCHCI =  9.90D+01  OPTGRAD =  1.00D-06
 OPTENERG=  1.00D-06  OPTSTEP =  3.00D-04  THRGRAD =  1.00D-10  COMPRESS=  1.00D-13  VARMIN  =  1.00D-07  VARMAX  =  1.00D-03
 THRDOUB =  0.00D+00  THRDIV  =  1.00D-05  THRRED  =  1.00D-07  THRPSP  =  1.00D+00  THRDC   =  1.00D-10  THRCS   =  1.00D-10
 THRNRM  =  1.00D-08  THREQ   =  0.00D+00  THRDE   =  1.00D+00  THRREF  =  1.00D-05  SPARFAC =  1.00D+00  THRDLP  =  1.00D-07
 THRDIA  =  1.00D-10  THRDLS  =  1.00D-07  THRGPS  =  0.00D+00  THRKEX  =  0.00D+00  THRDIS  =  2.00D-01  THRVAR  =  1.00D-10
 THRLOC  =  1.00D-06  THRGAP  =  1.00D-06  THRLOCT = -1.00D+00  THRGAPT = -1.00D+00  THRORB  =  1.00D-06  THRMLTP =  0.00D+00
 THRCPQCI=  1.00D-10  KEXTA   =  0.00D+00  THRCOARS=  0.00D+00  SYMTOL  =  1.00D-06  GRADTOL =  1.00D-06  THROVL  =  1.00D-08
 THRORTH =  1.00D-08  GRID    =  1.00D-06  GRIDMAX =  1.00D-03  DTMAX   =  0.00D+00

 SETTING GEOMTYP        =    XYZ
 ZUNIT=BOHR
 

 Variable memory set to 1000000000 words,  buffer space   230000 words

 SETTING BASIS          =    CC-PVTZ


 Recomputing integrals since basis changed


 Using spherical harmonics

 Library entry C      S cc-pVTZ              selected for orbital group  1
 Library entry C      P cc-pVTZ              selected for orbital group  1
 Library entry C      D cc-pVTZ              selected for orbital group  1
 Library entry C      F cc-pVTZ              selected for orbital group  1
 Library entry O      S cc-pVTZ              selected for orbital group  2
 Library entry O      P cc-pVTZ              selected for orbital group  2
 Library entry O      D cc-pVTZ              selected for orbital group  2
 Library entry O      F cc-pVTZ              selected for orbital group  2
 Library entry H      S cc-pVTZ              selected for orbital group  3
 Library entry H      P cc-pVTZ              selected for orbital group  3
 Library entry H      D cc-pVTZ              selected for orbital group  3

1PROGRAM * SEWARD (Integral evaluation for generally contracted gaussian basis sets)     Author: Roland Lindh, 1990

 Geometry written to block  1 of record 700


 Point group  C1  



 ATOMIC COORDINATES

 NR  ATOM    CHARGE       X              Y              Z

   1  C       6.00   -1.371194142   -0.020868774    0.000003335
   2  O       8.00    1.303581013    0.121029901    0.000001264
   3  H       1.00   -2.082790159    1.909793009   -0.000083100
   4  H       1.00   -2.101913098   -0.979946115    1.681215239
   5  H       1.00   -2.101914623   -0.980073307   -1.681146286
   6  H       1.00    1.930506849   -1.580066834    0.000001138

 Bond lengths in Bohr (Angstrom)

 1-2  2.678536422  1-3  2.057625773  1-4  2.068877233  1-5  2.068886127  2-6  1.812944044
     ( 1.417420428)     ( 1.088848664)     ( 1.094802680)     ( 1.094807387)     ( 0.959368669)

 Bond angles

  1-2-6  107.19423386   2-1-3  107.19595272   2-1-4  112.16399815   2-1-5  112.16406713

  3-1-4  108.23146461   3-1-5  108.23072953   4-1-5  108.70219752

 NUCLEAR CHARGE:                   18
 NUMBER OF PRIMITIVE AOS:         162
 NUMBER OF SYMMETRY AOS:          148
 NUMBER OF CONTRACTIONS:          116   ( 116A   )
 NUMBER OF CORE ORBITALS:           2   (   2A   )
 NUMBER OF VALENCE ORBITALS:       12   (  12A   )


 NUCLEAR REPULSION ENERGY   40.36474778


 Eigenvalues of metric

         1 0.133E-02 0.180E-02 0.191E-02 0.234E-02 0.329E-02 0.459E-02 0.734E-02 0.100E-01


 Contracted 2-electron integrals neglected if value below      1.0D-16
 AO integral compression algorithm  1   Integral accuracy      1.0D-16

     196.608 MB (compressed) written to integral file ( 92.2%)

     Node minimum: 196.608 MB, node maximum: 196.608 MB


 NUMBER OF SORTED TWO-ELECTRON INTEGRALS:   23028291.     BUFFER LENGTH:  32768
 NUMBER OF SEGMENTS:   2  SEGMENT LENGTH:   15997996      RECORD LENGTH: 524288

 Memory used in sort:      16.56 MW

 SORT1 READ    26631627. AND WROTE    22813236. INTEGRALS IN     67 RECORDS. CPU TIME:     0.22 SEC, REAL TIME:     0.36 SEC
 SORT2 READ    22813236. AND WROTE    23028291. INTEGRALS IN    750 RECORDS. CPU TIME:     0.21 SEC, REAL TIME:     0.31 SEC

 FILE SIZES:   FILE 1:   176.1 MBYTE,  FILE 4:   281.1 MBYTE,   TOTAL:    457.1 MBYTE

 OPERATOR DM      FOR CENTER  0  COORDINATES:    0.000000    0.000000    0.000000


 **********************************************************************************************************************************
 DATASETS  * FILE   NREC   LENGTH (MB)   RECORD NAMES
              1      19      176.22       500      610      700      900      950      970     1000      129      960     1100   
                                          VAR    BASINP    GEOM    SYMINP    ZMAT    AOBASIS   BASIS     P2S    ABASIS      S 
                                         1400     1410     1200     1210     1080     1600     1650     1300     1700   
                                           T        V       H0       H01     AOSYM     SMH    MOLCAS    ERIS     OPER   

 PROGRAMS   *        TOTAL       INT
 CPU TIMES  *         1.57      1.53
 REAL TIME  *         2.09 SEC
 DISK USED  *       654.36 MB      
 GA USED    *         0.00 MB       (max)       0.00 MB       (current)
 **********************************************************************************************************************************

1PROGRAM * RHF-SCF (CLOSED SHELL)       Authors: W. Meyer, H.-J. Werner


 NUMBER OF ELECTRONS:       9+    9-    SPACE SYMMETRY=1    SPIN SYMMETRY: Singlet 
 CONVERGENCE THRESHOLDS:    1.00E-10 (Density)    1.00E-13 (Energy)
 MAX. NUMBER OF ITERATIONS:      200
 INTERPOLATION TYPE:            DIIS
 INTERPOLATION STEPS:              2 (START)      1 (STEP)
 LEVEL SHIFTS:                  0.00 (CLOSED)  0.00 (OPEN) 



 Orbital guess generated from atomic densities. Full valence occupancy:   14

 Molecular orbital dump at record        2100.2

 ITERATION    DDIFF          GRAD             ENERGY        2-EL.EN.            DIPOLE MOMENTS         DIIS
    1      0.000D+00      0.000D+00      -115.05325489    164.544561   -0.48357   -0.90522   -0.00000    0
    2      0.000D+00      0.474D-02      -115.08160635    162.092212   -0.29622   -0.50152   -0.00000    1
    3      0.784D-02      0.254D-02      -115.08865938    163.262346   -0.38762   -0.59905   -0.00000    2
    4      0.257D-02      0.497D-03      -115.08916633    163.106612   -0.38079   -0.59297   -0.00000    3
    5      0.687D-03      0.982D-04      -115.08919727    163.113778   -0.38442   -0.58821   -0.00000    4
    6      0.186D-03      0.186D-04      -115.08919863    163.112373   -0.38483   -0.58820   -0.00000    5
    7      0.479D-04      0.395D-05      -115.08919869    163.111457   -0.38502   -0.58799   -0.00000    6
    8      0.913D-05      0.120D-05      -115.08919869    163.111923   -0.38505   -0.58797   -0.00000    7
    9      0.234D-05      0.324D-06      -115.08919869    163.111818   -0.38506   -0.58796   -0.00000    6
   10      0.770D-06      0.599D-07      -115.08919869    163.111829   -0.38506   -0.58795   -0.00000    6
   11      0.159D-06      0.151D-07      -115.08919869    163.111832   -0.38506   -0.58795   -0.00000    6
   12      0.300D-07      0.639D-08      -115.08919869    163.111830   -0.38506   -0.58795   -0.00000    7
   13      0.112D-07      0.172D-08      -115.08919869    163.111831   -0.38506   -0.58795   -0.00000    7
   14      0.350D-08      0.353D-09      -115.08919869    163.111831   -0.38506   -0.58795   -0.00000    7
   15      0.851D-09      0.906D-10      -115.08919869    163.111831   -0.38506   -0.58795   -0.00000    7
   16      0.184D-09      0.226D-10      -115.08919869    163.111831   -0.38506   -0.58795   -0.00000    7
   17      0.518D-10      0.738D-11      -115.08919869    163.111831   -0.38506   -0.58795   -0.00000    7
   18      0.147D-10      0.157D-11      -115.08919869    163.111831   -0.38506   -0.58795   -0.00000    7
   19      0.302D-11      0.500D-12      -115.08919869    163.111831   -0.38506   -0.58795   -0.00000    7
   20      0.119D-11      0.168D-12      -115.08919869    163.111831   -0.38506   -0.58795   -0.00000    0

 Final occupancy:   9

 !RHF STATE 1.1 Energy               -115.089198694400
 Nuclear energy                        40.36474778
 One-electron energy                 -237.00986188
 Two-electron energy                   81.55591541
 Virial quotient                       -1.00122497
 !RHF STATE 1.1 Dipole moment          -0.38506297    -0.58795447    -0.00000049
 Dipole moment /Debye                  -0.97866835    -1.49433331    -0.00000124

 Orbital energies:

         1.1          2.1          3.1          4.1          5.1          6.1          7.1          8.1          9.1         10.1
    -20.552673   -11.269443    -1.355513    -0.922832    -0.688571    -0.618205    -0.591136    -0.501923    -0.448719     0.138296

        11.1
      0.178717


 **********************************************************************************************************************************
 DATASETS  * FILE   NREC   LENGTH (MB)   RECORD NAMES
              1      19      176.22       500      610      700      900      950      970     1000      129      960     1100   
                                          VAR    BASINP    GEOM    SYMINP    ZMAT    AOBASIS   BASIS     P2S    ABASIS      S 
                                         1400     1410     1200     1210     1080     1600     1650     1300     1700   
                                           T        V       H0       H01     AOSYM     SMH    MOLCAS    ERIS     OPER   

              2       3        0.63       700     1000     2100   
                                         GEOM     BASIS     RHF  

 PROGRAMS   *        TOTAL       RHF       INT
 CPU TIMES  *         5.03      3.46      1.53
 REAL TIME  *         5.96 SEC
 DISK USED  *       654.36 MB      
 GA USED    *         0.00 MB       (max)       0.00 MB       (current)
 **********************************************************************************************************************************


1PROGRAM * CCSD (Closed-shell coupled cluster)     Authors: C. Hampel, H.-J. Werner, 1991, M. Deegan, P.J. Knowles, 1992


 Convergence thresholds:  THRVAR = 1.00D-08  THRDEN = 1.00D-12

 CCSD(T)     terms to be evaluated (factor= 1.000)


 Number of core orbitals:           2 (   2 )
 Number of closed-shell orbitals:   7 (   7 )
 Number of external orbitals:     107 ( 107 )

 Molecular orbitals read from record     2100.2  Type=RHF/CANONICAL (state 1.1)

 Number of N-1 electron functions:               7
 Number of N-2 electron functions:              28
 Number of singly external CSFs:               749
 Number of doubly external CSFs:            280875
 Total number of CSFs:                      281625

 Length of J-op  integral file:               0.00 MB
 Length of K-op  integral file:               0.96 MB
 Length of 3-ext integral record:             0.00 MB

 Memory could be reduced to 12.77 Mwords without degradation in triples

 Integral transformation finished. Total CPU:   0.59 sec, npass=  1  Memory used:   7.23 MW

 Reference energy:                   -115.08919869

 MP2 singlet pair energy:              -0.28095324
 MP2 triplet pair energy:              -0.14729266
 MP2 correlation energy:               -0.42824590
 MP2 total energy:                   -115.51744459

 SCS-MP2 correlation energy:           -0.42879265   (PS=  1.200000  PT=  0.333333)
 SCS-MP2 total energy:               -115.51799135

 ITER.      SQ.NORM     CORR.ENERGY   TOTAL ENERGY   ENERGY CHANGE        DEN1      VAR(S)    VAR(P)  DIIS     TIME
   1      1.11791911    -0.44554203  -115.53474073    -0.01729613    -0.00696703  0.12D-02  0.18D-02  1  1     1.24
   2      1.12578325    -0.44672763  -115.53592632    -0.00118559    -0.00943504  0.16D-04  0.21D-03  2  2     1.92
   3      1.12836356    -0.44680354  -115.53600223    -0.00007591    -0.00177806  0.74D-05  0.10D-04  3  3     2.62
   4      1.12899978    -0.44680500  -115.53600370    -0.00000147    -0.00033138  0.34D-06  0.83D-06  4  4     3.31
   5      1.12910409    -0.44680681  -115.53600551    -0.00000181    -0.00003963  0.11D-06  0.65D-07  5  5     4.01
   6      1.12912863    -0.44680468  -115.53600338     0.00000213    -0.00000737  0.17D-07  0.49D-08  6  6     4.70
   7      1.12913211    -0.44680459  -115.53600329     0.00000009    -0.00000027  0.26D-08  0.87D-09  6  2     5.40
   8      1.12913342    -0.44680454  -115.53600324     0.00000005     0.00000001  0.42D-09  0.10D-09  6  1     6.10
   9      1.12913413    -0.44680449  -115.53600319     0.00000005    -0.00000003  0.28D-10  0.17D-10  6  3     6.79
  10      1.12913421    -0.44680451  -115.53600320    -0.00000002     0.00000006  0.25D-11  0.18D-11  6  4     7.47
  11      1.12913408    -0.44680452  -115.53600321    -0.00000001     0.00000011  0.22D-12  0.12D-12  6  6     8.16
  12      1.12913406    -0.44680452  -115.53600321    -0.00000000     0.00000001  0.26D-13  0.10D-13  6  5     8.86
  13      1.12913406    -0.44680452  -115.53600321    -0.00000000    -0.00000000  0.54D-14  0.16D-14  6  2     9.54
  14      1.12913406    -0.44680452  -115.53600321     0.00000000    -0.00000000  0.42D-15  0.13D-15  6  1    10.24
  15      1.12913406    -0.44680452  -115.53600321    -0.00000000    -0.00000000  0.60D-16  0.27D-16  6  3    10.94
  16      1.12913406    -0.44680452  -115.53600321     0.00000000     0.00000000  0.17D-16  0.32D-17  6  4    11.64
  17      1.12913406    -0.44680452  -115.53600321    -0.00000000     0.00000000  0.12D-17  0.69D-18  6  5    12.33
  18      1.12913406    -0.44680452  -115.53600321    -0.00000000     0.00000000  0.88D-19  0.43D-19  6  6    13.01
  19      1.12913406    -0.44680452  -115.53600321     0.00000000    -0.00000000  0.18D-19  0.93D-20  6  2    13.70
  20      1.12913406    -0.44680452  -115.53600321     0.00000000    -0.00000000  0.12D-20  0.69D-21  6  1    14.37

 Norm of t1 vector:      0.04457931      S-energy:    -0.00000000      T1 diagnostic:  0.00842470
                                                                       D1 diagnostic:  0.01710003


 Total CPU time for triples:      7.20 sec


 RESULTS
 =======

  Reference energy                   -115.089198694401
  CCSD singlet pair energy             -0.313038576043
  CCSD triplet pair energy             -0.133765942434
  CCSD correlation energy              -0.446804518477

  Triples (T) contribution             -0.014769975968
  Total correlation energy             -0.461574494445

  CCSD total energy                  -115.536003212878
  CCSD[T] energy                     -115.551237436558
  CCSD-T energy                      -115.550508726088
 !CCSD(T) total energy               -115.550773188846

 Timing summary (sec):

 STEP                 CPU(USER)    SYS     CPU(TOT)    WALL
 Transformation          0.60      0.07      0.67      0.68
 CCSD iterations        13.77      0.74     14.51     14.55
 Triples                 7.20      0.13      7.33      7.33

 Program statistics:

 Available memory in ccsd:               999999704
 Min. memory needed in ccsd:                915605
 Max. memory used in ccsd:                 1141922
 Max. memory used in cckext:                874802 (20 integral passes)



 **********************************************************************************************************************************
 DATASETS  * FILE   NREC   LENGTH (MB)   RECORD NAMES
              1      20      215.62       500      610      700      900      950      970     1000      129      960     1100   
                                          VAR    BASINP    GEOM    SYMINP    ZMAT    AOBASIS   BASIS     P2S    ABASIS      S 
                                         1400     1410     1200     1210     1080     1600     1650     1300     1700     1380   
                                           T        V       H0       H01     AOSYM     SMH    MOLCAS    ERIS     OPER     JKOP   

              2       3        0.63       700     1000     2100   
                                         GEOM     BASIS     RHF  

 PROGRAMS   *        TOTAL   CCSD(T)       RHF       INT
 CPU TIMES  *        26.61     21.58      3.46      1.53
 REAL TIME  *        28.55 SEC
 DISK USED  *       654.36 MB      
 GA USED    *         0.00 MB       (max)       0.00 MB       (current)
 **********************************************************************************************************************************

        CCSD(T)         RHF-SCF 
   -115.55077319   -115.08919869
 **********************************************************************************************************************************
 Variable memory released
