
    -----------------------------------------------------------------------
          Psi4: An Open-Source Ab Initio Electronic Structure Package
                               Psi4 1.4a2.dev629 

                         Git: Rev {master} 2938fc2 dirty


    D. G. A. Smith, L. A. Burns, A. C. Simmonett, R. M. Parrish,
    M. C. Schieber, R. Galvelis, P. Kraus, H. Kruse, R. Di Remigio,
    A. Alenaizan, A. M. James, S. Lehtola, J. P. Misiewicz, M. Scheurer,
    R. A. Shaw, J. B. Schriber, Y. Xie, Z. L. Glick, D. A. Sirianni,
    J. S. O'Brien, J. M. Waldrop, A. Kumar, E. G. Hohenstein,
    B. P. Pritchard, B. R. Brooks, H. F. Schaefer III, A. Yu. Sokolov,
    K. Patkowski, A. E. DePrince III, U. Bozkaya, R. A. King,
    F. A. Evangelista, J. M. Turney, T. D. Crawford, C. D. Sherrill,
    J. Chem. Phys. 152(18) 184108 (2020). https://doi.org/10.1063/5.0006002

                            Additional Code Authors
    E. T. Seidl, C. L. Janssen, E. F. Valeev, M. L. Leininger,
    J. F. Gonthier, R. M. Richard, H. R. McAlexander, M. Saitow, X. Wang,
    P. Verma, and M. H. Lechner

             Previous Authors, Complete List of Code Contributors,
                       and Citations for Specific Modules
    https://github.com/psi4/psi4/blob/master/codemeta.json
    https://github.com/psi4/psi4/graphs/contributors
    http://psicode.org/psi4manual/master/introduction.html#citing-psifour

    -----------------------------------------------------------------------


    Psi4 started on: Wednesday, 21 September 2022 04:10PM

    Process ID: 86783
    Host:       n071
    PSIDATADIR: /opt/psi/4/master/share/psi4
    Memory:     500.0 MiB
    Threads:    1
    
  ==> Input File <==

--------------------------------------------------------------------------
# o-Benzyne preliminary computations

memory 14 gb

molecule {
  0 1
  units bohr
 C   -1.3750737070   -0.0242786003   -0.0011356070
 O    1.3060142508    0.1206932444   -0.0042801285
 H   -2.0778677914    1.9096111156    0.0019469099
 H   -2.1096017198   -0.9798390581    1.6820232078
 H   -2.1083720163   -0.9788364267   -1.6818531656
 H    1.9411768238   -1.5774823950    0.0032903734
  no_reorient
  no_com
}

set {
  basis 6-31g*
  reference rhf
  e_convergence 10 
  d_convergence 10
  r_convergence 8
  maxiter 300
  dft_spherical_points 1202
  dft_radial_points 99
  freeze_core True
}


#gradient('ccsd(t)')
gradient('b3lyp')
--------------------------------------------------------------------------

  Memory set to  13.039 GiB by Python driver.

Scratch directory: /tmp/
gradient() will perform analytic gradient computation.

*** tstart() called on n071
*** at Wed Sep 21 16:10:11 2022

   => Loading Basis Set <=

    Name: 6-31G*
    Role: ORBITAL
    Keyword: BASIS
    atoms 1   entry C          line   111 file /opt/psi/4/master/share/psi4/basis/6-31gs.gbs 
    atoms 2   entry O          line   145 file /opt/psi/4/master/share/psi4/basis/6-31gs.gbs 
    atoms 3-6 entry H          line    44 file /opt/psi/4/master/share/psi4/basis/6-31gs.gbs 


         ---------------------------------------------------------
                                   SCF
               by Justin Turney, Rob Parrish, Andy Simmonett
                          and Daniel G. A. Smith
                              RKS Reference
                        1 Threads,  13351 MiB Core
         ---------------------------------------------------------

  ==> Geometry <==

    Molecular point group: c1
    Full point group: C1

    Geometry (in Bohr), charge = 0, multiplicity = 1:

       Center              X                  Y                   Z               Mass       
    ------------   -----------------  -----------------  -----------------  -----------------
         C           -1.375073707000    -0.024278600300    -0.001135607000    12.000000000000
         O            1.306014250800     0.120693244400    -0.004280128500    15.994914619570
         H           -2.077867791400     1.909611115600     0.001946909900     1.007825032230
         H           -2.109601719800    -0.979839058100     1.682023207800     1.007825032230
         H           -2.108372016300    -0.978836426700    -1.681853165600     1.007825032230
         H            1.941176823800    -1.577482395000     0.003290373400     1.007825032230

  Running in c1 symmetry.

  Rotational constants: A =      4.28202  B =      0.82705  C =      0.79795 [cm^-1]
  Rotational constants: A = 128371.81060  B =  24794.26888  C =  23921.99654 [MHz]
  Nuclear repulsion =   40.307751855419859

  Charge       = 0
  Multiplicity = 1
  Electrons    = 18
  Nalpha       = 9
  Nbeta        = 9

  ==> Algorithm <==

  SCF Algorithm Type is DF.
  DIIS enabled.
  MOM disabled.
  Fractional occupation disabled.
  Guess Type is SAD.
  Energy threshold   = 1.00e-10
  Density threshold  = 1.00e-10
  Integral threshold = 0.00e+00

  ==> Primary Basis <==

  Basis Set: 6-31G*
    Blend: 6-31G*
    Number of shells: 20
    Number of basis function: 38
    Number of Cartesian functions: 38
    Spherical Harmonics?: false
    Max angular momentum: 2

  ==> DFT Potential <==

   => Composite Functional: B3LYP <= 

    B3LYP Hyb-GGA Exchange-Correlation Functional

    P. J. Stephens, F. J. Devlin, C. F. Chabalowski, and M. J. Frisch, J. Phys. Chem. 98, 11623 (1994)

    Deriv               =              1
    GGA                 =           TRUE
    Meta                =          FALSE

    Exchange Hybrid     =           TRUE
    MP2 Hybrid          =          FALSE

   => Exchange Functionals <=

    0.0800   Slater exchange
    0.7200         Becke 88

   => Exact (HF) Exchange <=

    0.2000               HF 

   => Correlation Functionals <=

    0.1900   Vosko, Wilk & Nusair (VWN5_RPA)
    0.8100   Lee, Yang & Parr

   => Molecular Quadrature <=

    Radial Scheme          =       TREUTLER
    Pruning Scheme         =           NONE
    Nuclear Scheme         =       TREUTLER

    BS radius alpha        =              1
    Pruning alpha          =              1
    Radial Points          =             99
    Spherical Points       =           1202
    Total Points           =         678844
    Total Blocks           =           4722
    Max Points             =            256
    Max Functions          =             38
    Weights Tolerance      =       1.00E-15

   => Loading Basis Set <=

    Name: (6-31G* AUX)
    Role: JKFIT
    Keyword: DF_BASIS_SCF
    atoms 1   entry C          line   121 file /opt/psi/4/master/share/psi4/basis/cc-pvdz-jkfit.gbs 
    atoms 2   entry O          line   221 file /opt/psi/4/master/share/psi4/basis/cc-pvdz-jkfit.gbs 
    atoms 3-6 entry H          line    51 file /opt/psi/4/master/share/psi4/basis/cc-pvdz-jkfit.gbs 

  ==> Integral Setup <==

  DFHelper Memory: AOs need 0.004 GiB; user supplied 9.070 GiB. Using in-core AOs.

  ==> MemDFJK: Density-Fitted J/K Matrices <==

    J tasked:                   Yes
    K tasked:                   Yes
    wK tasked:                   No
    OpenMP threads:               1
    Memory [MiB]:              9287
    Algorithm:                 Core
    Schwarz Cutoff:           1E-12
    Mask sparsity (%):       0.0000
    Fitting Condition:        1E-10

   => Auxiliary Basis Set <=

  Basis Set: (6-31G* AUX)
    Blend: CC-PVDZ-JKFIT
    Number of shells: 84
    Number of basis function: 262
    Number of Cartesian functions: 262
    Spherical Harmonics?: false
    Max angular momentum: 3

  Cached 100.0% of DFT collocation blocks in 0.709 [GiB].

  Minimum eigenvalue in the overlap matrix is 9.7432517007E-03.
  Reciprocal condition number of the overlap matrix is 1.6240681834E-03.
    Using symmetric orthogonalization.

  ==> Pre-Iterations <==

  SCF Guess: Superposition of Atomic Densities via on-the-fly atomic UHF (no occupation information).

   -------------------------
    Irrep   Nso     Nmo    
   -------------------------
     A         38      38 
   -------------------------
    Total      38      38
   -------------------------

  ==> Iterations <==

                           Total Energy        Delta E     RMS |[F,P]|

   @DF-RKS iter SAD:  -115.27626520015286   -1.15276e+02   0.00000e+00 
   @DF-RKS iter   1:  -115.54947700959181   -2.73212e-01   1.60898e-02 DIIS
   @DF-RKS iter   2:  -115.45059186573660    9.88851e-02   2.10647e-02 DIIS
   @DF-RKS iter   3:  -115.71155498121821   -2.60963e-01   2.14118e-03 DIIS
   @DF-RKS iter   4:  -115.71401090709470   -2.45593e-03   6.73077e-04 DIIS
   @DF-RKS iter   5:  -115.71427756918638   -2.66662e-04   8.12148e-05 DIIS
   @DF-RKS iter   6:  -115.71428145080307   -3.88162e-06   8.53658e-06 DIIS
   @DF-RKS iter   7:  -115.71428149701578   -4.62127e-08   7.68777e-07 DIIS
   @DF-RKS iter   8:  -115.71428149742451   -4.08733e-10   1.06879e-07 DIIS
   @DF-RKS iter   9:  -115.71428149743254   -8.02913e-12   2.04681e-08 DIIS
   @DF-RKS iter  10:  -115.71428149743303   -4.97380e-13   1.33826e-09 DIIS
   @DF-RKS iter  11:  -115.71428149743286    1.70530e-13   1.18255e-10 DIIS
   @DF-RKS iter  12:  -115.71428149743292   -5.68434e-14   2.22016e-11 DIIS
  Energy and wave function converged.


  ==> Post-Iterations <==

    Orbital Energies [Eh]
    ---------------------

    Doubly Occupied:                                                      

       1A    -19.138432     2A    -10.223062     3A     -1.011279  
       4A     -0.680168     5A     -0.502599     6A     -0.435617  
       7A     -0.419718     8A     -0.330660     9A     -0.264417  

    Virtual:                                                              

      10A      0.077237    11A      0.132556    12A      0.168425  
      13A      0.176584    14A      0.205407    15A      0.533672  
      16A      0.566221    17A      0.575497    18A      0.791887  
      19A      0.853645    20A      0.872697    21A      0.906855  
      22A      0.955948    23A      0.976898    24A      1.025398  
      25A      1.115546    26A      1.462197    27A      1.501973  
      28A      1.585747    29A      1.744449    30A      2.042067  
      31A      2.115502    32A      2.137292    33A      2.350925  
      34A      2.401454    35A      2.457300    36A      2.793971  
      37A      3.699473    38A      4.216948  

    Final Occupation by Irrep:
              A 
    DOCC [     9 ]

  @DF-RKS Final Energy:  -115.71428149743292

   => Energetics <=

    Nuclear Repulsion Energy =             40.3077518554198591
    One-Electron Energy =                -237.0142911049221084
    Two-Electron Energy =                  93.5446720479271789
    DFT Exchange-Correlation Energy =     -12.5524142958578597
    Empirical Dispersion Energy =           0.0000000000000000
    VV10 Nonlocal Energy =                  0.0000000000000000
    Total Energy =                       -115.7142814974329212

Computation Completed


Properties will be evaluated at   0.000000,   0.000000,   0.000000 [a0]

Properties computed using the SCF density matrix

  Nuclear Dipole Moment: [e a0]
     X:    -2.1570      Y:    -0.8067      Z:    -0.0356

  Electronic Dipole Moment: [e a0]
     X:     1.8243      Y:     0.2226      Z:     0.0387

  Dipole Moment: [e a0]
     X:    -0.3327      Y:    -0.5840      Z:     0.0031     Total:     0.6721

  Dipole Moment: [D]
     X:    -0.8455      Y:    -1.4845      Z:     0.0078     Total:     1.7084


*** tstop() called on n071 at Wed Sep 21 16:10:30 2022
Module time:
	user time   =      18.45 seconds =       0.31 minutes
	system time =       0.36 seconds =       0.01 minutes
	total time  =         19 seconds =       0.32 minutes
Total time:
	user time   =      18.45 seconds =       0.31 minutes
	system time =       0.36 seconds =       0.01 minutes
	total time  =         19 seconds =       0.32 minutes

*** tstart() called on n071
*** at Wed Sep 21 16:10:30 2022


         ------------------------------------------------------------
                                   SCF GRAD                          
                          Rob Parrish, Justin Turney,                
                       Andy Simmonett, and Alex Sokolov              
         ------------------------------------------------------------

  ==> Geometry <==

    Molecular point group: c1
    Full point group: C1

    Geometry (in Bohr), charge = 0, multiplicity = 1:

       Center              X                  Y                   Z               Mass       
    ------------   -----------------  -----------------  -----------------  -----------------
         C           -1.375073707000    -0.024278600300    -0.001135607000    12.000000000000
         O            1.306014250800     0.120693244400    -0.004280128500    15.994914619570
         H           -2.077867791400     1.909611115600     0.001946909900     1.007825032230
         H           -2.109601719800    -0.979839058100     1.682023207800     1.007825032230
         H           -2.108372016300    -0.978836426700    -1.681853165600     1.007825032230
         H            1.941176823800    -1.577482395000     0.003290373400     1.007825032230

  Nuclear repulsion =   40.307751855419859

  ==> Basis Set <==

  Basis Set: 6-31G*
    Blend: 6-31G*
    Number of shells: 20
    Number of basis function: 38
    Number of Cartesian functions: 38
    Spherical Harmonics?: false
    Max angular momentum: 2

  ==> DFJKGrad: Density-Fitted SCF Gradients <==

    Gradient:                    1
    J tasked:                  Yes
    K tasked:                  Yes
    wK tasked:                  No
    OpenMP threads:              1
    Integrals threads:           1
    Memory [MiB]:            10013
    Schwarz Cutoff:          0E+00
    Fitting Condition:       1E-10

   => Auxiliary Basis Set <=

  Basis Set: (6-31G* AUX)
    Blend: CC-PVDZ-JKFIT
    Number of shells: 84
    Number of basis function: 262
    Number of Cartesian functions: 262
    Spherical Harmonics?: false
    Max angular momentum: 3

  ==> DFT Potential <==

   => Composite Functional: B3LYP <= 

    B3LYP Hyb-GGA Exchange-Correlation Functional

    P. J. Stephens, F. J. Devlin, C. F. Chabalowski, and M. J. Frisch, J. Phys. Chem. 98, 11623 (1994)

    Deriv               =              1
    GGA                 =           TRUE
    Meta                =          FALSE

    Exchange Hybrid     =           TRUE
    MP2 Hybrid          =          FALSE

   => Exchange Functionals <=

    0.0800   Slater exchange
    0.7200         Becke 88

   => Exact (HF) Exchange <=

    0.2000               HF 

   => Correlation Functionals <=

    0.1900   Vosko, Wilk & Nusair (VWN5_RPA)
    0.8100   Lee, Yang & Parr

   => Molecular Quadrature <=

    Radial Scheme          =       TREUTLER
    Pruning Scheme         =           NONE
    Nuclear Scheme         =       TREUTLER

    BS radius alpha        =              1
    Pruning alpha          =              1
    Radial Points          =             99
    Spherical Points       =           1202
    Total Points           =         678844
    Total Blocks           =           4722
    Max Points             =            256
    Max Functions          =             38
    Weights Tolerance      =       1.00E-15


  -Total Gradient:
     Atom            X                  Y                   Z
    ------   -----------------  -----------------  -----------------
       1       -0.005169260344    -0.000459600695    -0.000708056017
       2        0.003762941393    -0.008759778091    -0.000133302445
       3        0.000799586566    -0.002844799283     0.000131719144
       4        0.001811269461     0.001686923043    -0.002595136952
       5        0.002392833821     0.001981340688     0.003312471329
       6       -0.003597456002     0.008395979368    -0.000007694876


*** tstop() called on n071 at Wed Sep 21 16:10:32 2022
Module time:
	user time   =       2.75 seconds =       0.05 minutes
	system time =       0.01 seconds =       0.00 minutes
	total time  =          2 seconds =       0.03 minutes
Total time:
	user time   =      21.20 seconds =       0.35 minutes
	system time =       0.37 seconds =       0.01 minutes
	total time  =         21 seconds =       0.35 minutes

    Psi4 stopped on: Wednesday, 21 September 2022 04:10PM
    Psi4 wall time for execution: 0:00:21.62

*** Psi4 exiting successfully. Buy a developer a beer!
