[Molden Format]
[ATOMS] AU
H        1    1       -1.4166987752        1.0214387145        0.0000000000
O        2    8       -0.0001263934       -0.1286173909        0.0000000000
H        3    1        1.4187047307        1.0198126105       -0.0000000000
[Molden Format]
[GTO]
  1 0
s   4 1.00
   13.0100000000000       1.968500000000000E-002
   1.96200000000000       0.137977000000000     
  0.444600000000000       0.478148000000000     
  0.122000000000000       0.501240000000000     
s   4 1.00
   13.0100000000000       0.000000000000000E+000
   1.96200000000000       0.000000000000000E+000
  0.444600000000000       0.000000000000000E+000
  0.122000000000000        1.00000000000000     
p   1 1.00
  0.727000000000000        1.00000000000000     
 
  2 0
s   9 1.00
   11720.0000000000       7.100000000000000E-004
   1759.00000000000       5.470000000000000E-003
   400.800000000000       2.783700000000000E-002
   113.700000000000       0.104800000000000     
   37.0300000000000       0.283062000000000     
   13.2700000000000       0.448719000000000     
   5.02500000000000       0.270952000000000     
   1.01300000000000       1.545800000000000E-002
  0.302300000000000      -2.585000000000000E-003
s   9 1.00
   11720.0000000000      -1.600000000000000E-004
   1759.00000000000      -1.263000000000000E-003
   400.800000000000      -6.267000000000000E-003
   113.700000000000      -2.571600000000000E-002
   37.0300000000000      -7.092400000000000E-002
   13.2700000000000      -0.165411000000000     
   5.02500000000000      -0.116955000000000     
   1.01300000000000       0.557368000000000     
  0.302300000000000       0.572759000000000     
s   9 1.00
   11720.0000000000       0.000000000000000E+000
   1759.00000000000       0.000000000000000E+000
   400.800000000000       0.000000000000000E+000
   113.700000000000       0.000000000000000E+000
   37.0300000000000       0.000000000000000E+000
   13.2700000000000       0.000000000000000E+000
   5.02500000000000       0.000000000000000E+000
   1.01300000000000       0.000000000000000E+000
  0.302300000000000        1.00000000000000     
p   4 1.00
   17.7000000000000       4.301800000000000E-002
   3.85400000000000       0.228913000000000     
   1.04600000000000       0.508728000000000     
  0.275300000000000       0.460531000000000     
p   4 1.00
   17.7000000000000       0.000000000000000E+000
   3.85400000000000       0.000000000000000E+000
   1.04600000000000       0.000000000000000E+000
  0.275300000000000        1.00000000000000     
d   1 1.00
   1.18500000000000        1.00000000000000     
 
  3 0
s   4 1.00
   13.0100000000000       1.968500000000000E-002
   1.96200000000000       0.137977000000000     
  0.444600000000000       0.478148000000000     
  0.122000000000000       0.501240000000000     
s   4 1.00
   13.0100000000000       0.000000000000000E+000
   1.96200000000000       0.000000000000000E+000
  0.444600000000000       0.000000000000000E+000
  0.122000000000000        1.00000000000000     
p   1 1.00
  0.727000000000000        1.00000000000000     
 
[MO]
 Sym= A
 Ene=  -20.5533293794068     
 Spin= Alpha
 Occup= 1.0
  1        0.0003212303
  2       -0.0005787379
  3        0.0005373083
  4       -0.0004765959
  5        0.0000000000
  6       -1.0003797049
  7       -0.0021891405
  8        0.0013812564
  9       -0.0000005999
 10       -0.0025672229
 11        0.0000000000
 12        0.0000011609
 13        0.0016974371
 14        0.0000000000
 15       -0.0000486203
 16       -0.0000119044
 17        0.0000605247
 18        0.0000007087
 19        0.0000000000
 20        0.0000000000
 21        0.0003180122
 22       -0.0005769844
 23       -0.0005368558
 24       -0.0004749036
 25        0.0000000000
 Sym= A
 Ene=  -1.33446017228155     
 Spin= Alpha
 Occup= 1.0
  1        0.3257637017
  2       -0.1531704433
  3        0.0361389827
  4       -0.0213150172
  5        0.0000000000
  6       -0.0076614875
  7        0.8719484578
  8       -0.1196297501
  9       -0.0000212949
 10        0.1155529591
 11        0.0000000000
 12        0.0000177041
 13       -0.0657425754
 14        0.0000000000
 15        0.0009263203
 16        0.0009004742
 17       -0.0018267945
 18       -0.0000088439
 19        0.0000000000
 20        0.0000000000
 21        0.3254143105
 22       -0.1529922375
 23       -0.0361486812
 24       -0.0212427302
 25        0.0000000000
 Sym= A
 Ene= -0.689870128631903     
 Spin= Alpha
 Occup= 1.0
  1        0.5526442515
  2       -0.1834147855
  3        0.0222947118
  4       -0.0330567778
  5        0.0000000000
  6        0.0000006093
  7       -0.0002237571
  8       -0.0001852972
  9       -0.7144956268
 10        0.0008585447
 11        0.0000000000
 12        0.1001618066
 13       -0.0001304520
 14        0.0000000000
 15       -0.0000181945
 16        0.0000229368
 17       -0.0000047423
 18       -0.0268507216
 19        0.0000000000
 20        0.0000000000
 21       -0.5523217744
 22        0.1832076520
 23        0.0223304013
 24        0.0330243263
 25        0.0000000000
 Sym= A
 Ene= -0.570274177601423     
 Spin= Alpha
 Occup= 1.0
  1        0.3584867161
  2       -0.1377055900
  3        0.0322752583
  4        0.0063195482
  5        0.0000000000
  6        0.0023631994
  7       -0.3003085084
  8       -0.1821574737
  9        0.0008164590
 10        0.7887901686
 11        0.0000000000
 12       -0.0000117985
 13       -0.0040396288
 14        0.0000000000
 15       -0.0029693095
 16        0.0104249633
 17       -0.0074556538
 18        0.0000235564
 19        0.0000000000
 20        0.0000000000
 21        0.3588642781
 22       -0.1377224374
 23       -0.0322810642
 24        0.0063300629
 25        0.0000000000
 Sym= A
 Ene= -0.493486485153523     
 Spin= Alpha
 Occup= 1.0
  1        0.0000000000
  2        0.0000000000
  3        0.0000000000
  4        0.0000000000
  5        0.0309348134
  6        0.0000000000
  7        0.0000000000
  8        0.0000000000
  9        0.0000000000
 10        0.0000000000
 11        0.9205690969
 12        0.0000000000
 13        0.0000000000
 14        0.0715441202
 15        0.0000000000
 16        0.0000000000
 17        0.0000000000
 18        0.0000000000
 19        0.0000087372
 20        0.0183355451
 21        0.0000000000
 22        0.0000000000
 23        0.0000000000
 24        0.0000000000
 25        0.0309191089
 Sym= A
 Ene=  0.183594862469423     
 Spin= Alpha
 Occup= 0.0
  1        0.0983431904
  2        0.7736535149
  3        0.0163945506
  4       -0.0161535155
  5        0.0000000000
  6        0.0517599908
  7       -0.1404966290
  8       -0.9079551069
  9       -0.0005223237
 10       -0.2862552072
 11        0.0000000000
 12       -0.0003994392
 13       -0.2145758742
 14        0.0000000000
 15       -0.0022779269
 16       -0.0047889854
 17        0.0070669123
 18        0.0000006951
 19        0.0000000000
 20        0.0000000000
 21        0.0985364658
 22        0.7745727159
 23       -0.0164155156
 24       -0.0161116877
 25        0.0000000000
 Sym= A
 Ene=  0.255262097624927     
 Spin= Alpha
 Occup= 0.0
  1        0.0512556352
  2        1.4159346222
  3        0.0198579563
  4       -0.0162473322
  5        0.0000000000
  6        0.0000348138
  7       -0.0000557474
  8       -0.0007833038
  9        0.4180690986
 10       -0.0003641635
 11        0.0000000000
 12        0.4750713197
 13       -0.0004235229
 14        0.0000000000
 15        0.0000050959
 16       -0.0000147718
 17        0.0000096759
 18        0.0203630353
 19        0.0000000000
 20        0.0000000000
 21       -0.0513253195
 22       -1.4148157303
 23        0.0198244615
 24        0.0161789884
 25        0.0000000000
 Sym= A
 Ene=  0.774797968569606     
 Spin= Alpha
 Occup= 0.0
  1        1.6035387066
  2       -1.5131886005
  3       -0.0713895894
  4        0.1439464075
  5        0.0000000000
  6        0.0001807733
  7        0.0011069997
  8       -0.0015632390
  9        0.3826142015
 10        0.0007383912
 11        0.0000000000
 12        0.2699297566
 13       -0.0008028711
 14        0.0000000000
 15       -0.0001703579
 16        0.0000707521
 17        0.0000996058
 18       -0.1107512346
 19        0.0000000000
 20        0.0000000000
 21       -1.6091055069
 22        1.5185810687
 23       -0.0725146170
 24       -0.1440622827
 25        0.0000000000
 Sym= A
 Ene=  0.857726695219245     
 Spin= Alpha
 Occup= 0.0
  1        1.3281613621
  2       -1.2239911562
  3       -0.2928430496
  4        0.0746044793
  5        0.0000000000
  6       -0.0719207719
  7       -0.5222814976
  8        0.6579153614
  9        0.0002652969
 10       -0.5115659997
 11        0.0000000000
 12        0.0011933906
 13        0.2687979404
 14        0.0000000000
 15        0.0504267254
 16        0.0037663074
 17       -0.0541930327
 18       -0.0003346725
 19        0.0000000000
 20        0.0000000000
 21        1.3216636408
 22       -1.2184761095
 23        0.2925593839
 24        0.0734905882
 25        0.0000000000
 Sym= A
 Ene=   1.16640620275743     
 Spin= Alpha
 Occup= 0.0
  1        0.9536207762
  2       -0.3796246090
  3        0.0635076024
  4       -0.2609934574
  5        0.0000000000
  6       -0.0107479660
  7       -0.2681413238
  8       -0.5538008929
  9        0.0000113397
 10        1.0802801163
 11        0.0000000000
 12        0.0005465900
 13       -1.7738441487
 14        0.0000000000
 15        0.0104283370
 16       -0.0084962676
 17       -0.0019320694
 18        0.0000337789
 19        0.0000000000
 20        0.0000000000
 21        0.9523329919
 22       -0.3804779440
 23       -0.0633680609
 24       -0.2607686007
 25        0.0000000000
 Sym= A
 Ene=   1.19956225390697     
 Spin= Alpha
 Occup= 0.0
  1        0.0000000000
  2        0.0000000000
  3        0.0000000000
  4        0.0000000000
  5        0.0174325590
  6        0.0000000000
  7        0.0000000000
  8        0.0000000000
  9        0.0000000000
 10        0.0000000000
 11       -1.4098163277
 12        0.0000000000
 13        0.0000000000
 14        1.6668184810
 15        0.0000000000
 16        0.0000000000
 17        0.0000000000
 18        0.0000000000
 19        0.0000259194
 20       -0.0028123513
 21        0.0000000000
 22        0.0000000000
 23        0.0000000000
 24        0.0000000000
 25        0.0179499949
 Sym= A
 Ene=   1.25656152448574     
 Spin= Alpha
 Occup= 0.0
  1        0.6166712217
  2        0.5112058688
  3        0.2906450994
  4       -0.1974026781
  5        0.0000000000
  6        0.0000257998
  7        0.0003877394
  8       -0.0003291181
  9       -1.0872462057
 10       -0.0002487319
 11        0.0000000000
 12        2.2446328877
 13       -0.0000837372
 14        0.0000000000
 15        0.0000008560
 16       -0.0000327242
 17        0.0000318682
 18        0.0433925578
 19        0.0000000000
 20        0.0000000000
 21       -0.6180425522
 22       -0.5103013885
 23        0.2910430646
 24        0.1972194865
 25        0.0000000000
 Sym= A
 Ene=   1.42174869875771     
 Spin= Alpha
 Occup= 0.0
  1        0.6331504013
  2       -0.5045752749
  3        0.3669331084
  4        0.5188973203
  5        0.0000000000
  6       -0.1763102835
  7       -0.9318764741
  8        0.8983725652
  9       -0.0000649108
 10        0.1923926592
 11        0.0000000000
 12       -0.0003223407
 13       -0.8733642980
 14        0.0000000000
 15       -0.0385557656
 16        0.0681138881
 17       -0.0295581225
 18        0.0001438858
 19        0.0000000000
 20        0.0000000000
 21        0.6326845803
 22       -0.5043351959
 23       -0.3661751290
 24        0.5194051335
 25        0.0000000000
 Sym= A
 Ene=   1.48269194119762     
 Spin= Alpha
 Occup= 0.0
  1        0.0000000000
  2        0.0000000000
  3        0.0000000000
  4        0.0000000000
  5        0.6868139721
  6        0.0000000000
  7        0.0000000000
  8        0.0000000000
  9        0.0000000000
 10        0.0000000000
 11       -0.0006957494
 12        0.0000000000
 13        0.0000000000
 14        0.0007579336
 15        0.0000000000
 16        0.0000000000
 17        0.0000000000
 18        0.0000000000
 19       -0.1333829487
 20        0.0000315987
 21        0.0000000000
 22        0.0000000000
 23        0.0000000000
 24        0.0000000000
 25       -0.6871666028
 Sym= A
 Ene=   1.65866041958202     
 Spin= Alpha
 Occup= 0.0
  1        0.0000000000
  2        0.0000000000
  3        0.0000000000
  4        0.0000000000
  5        0.7619305516
  6        0.0000000000
  7        0.0000000000
  8        0.0000000000
  9        0.0000000000
 10        0.0000000000
 11       -0.0045459286
 12        0.0000000000
 13        0.0000000000
 14       -0.6357371303
 15        0.0000000000
 16        0.0000000000
 17        0.0000000000
 18        0.0000000000
 19        0.0001043376
 20        0.1609945588
 21        0.0000000000
 22        0.0000000000
 23        0.0000000000
 24        0.0000000000
 25        0.7615040983
 Sym= A
 Ene=   1.86369136937806     
 Spin= Alpha
 Occup= 0.0
  1        1.4032424503
  2       -0.3162145917
  3        0.3532548450
  4       -0.0168265251
  5        0.0000000000
  6        0.7343525523
  7        3.1769838484
  8       -4.8588518203
  9        0.0003394544
 10       -0.1475146354
 11        0.0000000000
 12       -0.0004458139
 13       -0.9022918947
 14        0.0000000000
 15        0.0238522064
 16        0.0630762311
 17       -0.0869284376
 18        0.0000803452
 19        0.0000000000
 20        0.0000000000
 21        1.4019184631
 22       -0.3160620523
 23       -0.3534623257
 24       -0.0157381134
 25        0.0000000000
 Sym= A
 Ene=   1.94068823184524     
 Spin= Alpha
 Occup= 0.0
  1        0.6118581998
  2       -0.2212888305
  3       -0.4684971449
  4       -0.7020203978
  5        0.0000000000
  6       -0.0002965090
  7       -0.0013029284
  8        0.0016479948
  9        0.0315086584
 10        0.0002214701
 11        0.0000000000
 12        0.8365266632
 13       -0.0003992986
 14        0.0000000000
 15       -0.0000225768
 16       -0.0000119424
 17        0.0000345192
 18       -0.0304588708
 19        0.0000000000
 20        0.0000000000
 21       -0.6125159545
 22        0.2213948278
 23       -0.4671427708
 24        0.7026013087
 25        0.0000000000
 Sym= A
 Ene=   2.42679731761206     
 Spin= Alpha
 Occup= 0.0
  1        0.4514558139
  2        0.1046876663
  3        0.7253178065
  4       -0.5314389553
  5        0.0000000000
  6        0.0021522176
  7        0.0119275835
  8        0.0015010637
  9        1.1899676737
 10        0.0086674843
 11        0.0000000000
 12       -0.4300593660
 13       -0.0021082150
 14        0.0000000000
 15       -0.0009729458
 16       -0.0001803747
 17        0.0011533205
 18       -0.1316196970
 19        0.0000000000
 20        0.0000000000
 21       -0.4666860259
 22       -0.1004255547
 23        0.7403329837
 24        0.5412776035
 25        0.0000000000
 Sym= A
 Ene=   2.47410823770282     
 Spin= Alpha
 Occup= 0.0
  1        0.7949241640
  2       -0.2326397056
  3        0.7288207816
  4       -0.5668282561
  5        0.0000000000
  6       -0.2605644832
  7       -1.3656471613
  8       -0.0183834899
  9        0.0113964071
 10       -0.9898492111
 11        0.0000000000
 12       -0.0042957101
 13        0.2782165560
 14        0.0000000000
 15        0.0932596749
 16        0.0267326870
 17       -0.1199923620
 18       -0.0015055908
 19        0.0000000000
 20        0.0000000000
 21        0.7847815112
 22       -0.2339674507
 23       -0.7149247228
 24       -0.5551408025
 25        0.0000000000
 Sym= A
 Ene=   3.29121123328994     
 Spin= Alpha
 Occup= 0.0
  1        0.0000000000
  2        0.0000000000
  3        0.0000000000
  4        0.0000000000
  5        0.3949590830
  6        0.0000000000
  7        0.0000000000
  8        0.0000000000
  9        0.0000000000
 10        0.0000000000
 11        0.0227095672
 12        0.0000000000
 13        0.0000000000
 14       -0.3203126389
 15        0.0000000000
 16        0.0000000000
 17        0.0000000000
 18        0.0000000000
 19       -0.0077223575
 20       -1.0432994855
 21        0.0000000000
 22        0.0000000000
 23        0.0000000000
 24        0.0000000000
 25        0.3995422232
 Sym= A
 Ene=   3.32092856424145     
 Spin= Alpha
 Occup= 0.0
  1        0.0000000000
  2        0.0000000000
  3        0.0000000000
  4        0.0000000000
  5        0.3659326226
  6        0.0000000000
  7        0.0000000000
  8        0.0000000000
  9        0.0000000000
 10        0.0000000000
 11        0.0000377610
 12        0.0000000000
 13        0.0000000000
 14       -0.0022171726
 15        0.0000000000
 16        0.0000000000
 17        0.0000000000
 18        0.0000000000
 19        1.0605810401
 20       -0.0077504407
 21        0.0000000000
 22        0.0000000000
 23        0.0000000000
 24        0.0000000000
 25       -0.3603468527
 Sym= A
 Ene=   3.50731790830743     
 Spin= Alpha
 Occup= 0.0
  1        0.3785433204
  2       -0.1697449733
  3        0.3068794507
  4        0.3347630675
  5        0.0000000000
  6        0.0754388269
  7        0.2851734145
  8       -0.5570011122
  9       -0.0000792319
 10        0.0245361129
 11        0.0000000000
 12       -0.0005980583
 13       -0.4783206969
 14        0.0000000000
 15        0.4500842298
 16       -0.6143098788
 17        0.1642256491
 18       -0.0015961170
 19        0.0000000000
 20        0.0000000000
 21        0.3788913769
 22       -0.1698114925
 23       -0.3062280656
 24        0.3346945210
 25        0.0000000000
 Sym= A
 Ene=   3.83932496797651     
 Spin= Alpha
 Occup= 0.0
  1        2.0985104971
  2       -0.8596383914
  3        0.6203499494
  4       -0.4736038592
  5        0.0000000000
  6        0.1668074424
  7        0.4422018651
  8       -2.5329923228
  9       -0.0003134114
 10       -0.5743637957
 11        0.0000000000
 12       -0.0011524704
 13       -0.7165355304
 14        0.0000000000
 15       -0.4868936371
 16       -0.1507809174
 17        0.6376745545
 18       -0.0004442089
 19        0.0000000000
 20        0.0000000000
 21        2.0991167296
 22       -0.8595901823
 23       -0.6217970401
 24       -0.4732697553
 25        0.0000000000
 Sym= A
 Ene=   4.15178578698949     
 Spin= Alpha
 Occup= 0.0
  1        1.8013253475
  2       -0.6158694119
  3        0.5908453492
  4       -0.5143171406
  5        0.0000000000
  6       -0.0001236583
  7       -0.0006775615
  8       -0.0022266865
  9        0.6529209297
 10       -0.0014221252
 11        0.0000000000
 12        0.8126361094
 13       -0.0012433058
 14        0.0000000000
 15        0.0005956297
 16       -0.0011264018
 17        0.0005307722
 18        1.3272934245
 19        0.0000000000
 20        0.0000000000
 21       -1.7955225778
 22        0.6133045008
 23        0.5902721656
 24        0.5125399466
 25        0.0000000000
 [FREQ]
        0.0000399044
        0.0000308133
        0.0000000000
        0.0000000000
        0.0000104923
        0.0000307421
     1691.6239211373
     3824.9394732843
     3931.3071101239
 [FR-COORD]
H            0.0000000000       -1.4177019700        1.0206261212
O            0.0000000000        0.0000000000       -0.1286174488
H            0.0000000000        1.4177019700        1.0206261212
 [FR-NORM-COORD]
  vibration                      1
        0.0000000000        0.0452227741        0.1590888786
       -0.0000000000       -0.1401351552        0.2386662214
        0.9447004351        0.0452227741       -0.0392707421
  vibration                      2
        0.0000000000        0.1632087157       -0.0639993969
       -0.0000000000        0.1625314889       -0.8565374506
        0.2204397608        0.1632087157       -0.3660100137
  vibration                      3
        0.0174914515       -0.0000000000        0.0000000000
       -0.9998470129       -0.0000000000        0.0000000000
       -0.0000000000       -0.0000000000        0.0000000000
  vibration                      4
        0.9998470129        0.0000000000       -0.0000000000
        0.0174914515        0.0000000000       -0.0000000000
        0.0000000000        0.0000000000        0.0000000000
  vibration                      5
        0.0000000000        0.0532771127        0.3151669040
        0.0000000000       -0.8580426678       -0.0647388606
       -0.1835527540        0.0532771127       -0.3476678988
  vibration                      6
        0.0000000000        0.4336786037        0.4929098081
       -0.0000000000        0.3834538747        0.3054112586
       -0.1589206921        0.4336786037       -0.3395835114
  vibration                      7
        0.0000000000        0.4209156890        0.5354442138
       -0.0000000000        0.0000000000       -0.2688102553
       -0.0000000000       -0.4209156890        0.5354442138
  vibration                      8
       -0.0000000000        0.5681812939       -0.3966636575
       -0.0000000000       -0.0000000000        0.1991379425
       -0.0000000000       -0.5681812939       -0.3966636575
  vibration                      9
       -0.0000000000        0.5295302010       -0.4292574826
       -0.0000000000       -0.2658412303       -0.0000000000
       -0.0000000000        0.5295302010        0.4292574826
