
    -----------------------------------------------------------------------
          Psi4: An Open-Source Ab Initio Electronic Structure Package
                               Psi4 1.4a2.dev629 

                         Git: Rev {master} 2938fc2 dirty


    D. G. A. Smith, L. A. Burns, A. C. Simmonett, R. M. Parrish,
    M. C. Schieber, R. Galvelis, P. Kraus, H. Kruse, R. Di Remigio,
    A. Alenaizan, A. M. James, S. Lehtola, J. P. Misiewicz, M. Scheurer,
    R. A. Shaw, J. B. Schriber, Y. Xie, Z. L. Glick, D. A. Sirianni,
    J. S. O'Brien, J. M. Waldrop, A. Kumar, E. G. Hohenstein,
    B. P. Pritchard, B. R. Brooks, H. F. Schaefer III, A. Yu. Sokolov,
    K. Patkowski, A. E. DePrince III, U. Bozkaya, R. A. King,
    F. A. Evangelista, J. M. Turney, T. D. Crawford, C. D. Sherrill,
    J. Chem. Phys. 152(18) 184108 (2020). https://doi.org/10.1063/5.0006002

                            Additional Code Authors
    E. T. Seidl, C. L. Janssen, E. F. Valeev, M. L. Leininger,
    J. F. Gonthier, R. M. Richard, H. R. McAlexander, M. Saitow, X. Wang,
    P. Verma, and M. H. Lechner

             Previous Authors, Complete List of Code Contributors,
                       and Citations for Specific Modules
    https://github.com/psi4/psi4/blob/master/codemeta.json
    https://github.com/psi4/psi4/graphs/contributors
    http://psicode.org/psi4manual/master/introduction.html#citing-psifour

    -----------------------------------------------------------------------


    Psi4 started on: Monday, 06 September 2021 06:16PM

    Process ID: 14320
    Host:       n045
    PSIDATADIR: /opt/psi/4/master/share/psi4
    Memory:     500.0 MiB
    Threads:    1
    
  ==> Input File <==

--------------------------------------------------------------------------
# o-Benzyne preliminary computations

memory 14 gb

molecule {
  0 1
  units bohr
 H    0.0000000000   -1.4271169250    0.9978774384
 O    0.0000000000    0.0049723111   -0.1254971809
 H    0.0000000000    1.4221446140    0.9939633625
}

set {
  basis cc-pvdz
  reference rhf
  e_convergence 10 
  d_convergence 10
  r_convergence 8
  maxiter 300
  freeze_core True
}

e, wfn = energy('ccsd(t)', return_wfn = True)
psi4.print_out('Giraffe The Energy is %.12f \n'%(e))
--------------------------------------------------------------------------

  Memory set to  13.039 GiB by Python driver.

Scratch directory: /tmp/

*** tstart() called on n045
*** at Mon Sep  6 18:16:18 2021

   => Loading Basis Set <=

    Name: CC-PVDZ
    Role: ORBITAL
    Keyword: BASIS
    atoms 1, 3 entry H          line    22 file /opt/psi/4/master/share/psi4/basis/cc-pvdz.gbs 
    atoms 2    entry O          line   198 file /opt/psi/4/master/share/psi4/basis/cc-pvdz.gbs 


         ---------------------------------------------------------
                                   SCF
               by Justin Turney, Rob Parrish, Andy Simmonett
                          and Daniel G. A. Smith
                              RHF Reference
                        1 Threads,  13351 MiB Core
         ---------------------------------------------------------

  ==> Geometry <==

    Molecular point group: cs
    Full point group: Cs

    Geometry (in Bohr), charge = 0, multiplicity = 1:

       Center              X                  Y                   Z               Mass       
    ------------   -----------------  -----------------  -----------------  -----------------
         H            1.431254522756    -0.997871312780     0.000000000000     1.007825032230
         O           -0.000834713344     0.125503306520     0.000000000000    15.994914619570
         H           -1.418007016244    -0.993957236880     0.000000000000     1.007825032230

  Running in cs symmetry.

  Rotational constants: A =     26.74439  B =     14.71429  C =      9.49198 [cm^-1]
  Rotational constants: A = 801776.73231  B = 441123.42730  C = 284562.27747 [MHz]
  Nuclear repulsion =    9.175997751881134

  Charge       = 0
  Multiplicity = 1
  Electrons    = 10
  Nalpha       = 5
  Nbeta        = 5

  ==> Algorithm <==

  SCF Algorithm Type is PK.
  DIIS enabled.
  MOM disabled.
  Fractional occupation disabled.
  Guess Type is SAD.
  Energy threshold   = 1.00e-10
  Density threshold  = 1.00e-10
  Integral threshold = 0.00e+00

  ==> Primary Basis <==

  Basis Set: CC-PVDZ
    Blend: CC-PVDZ
    Number of shells: 12
    Number of basis function: 24
    Number of Cartesian functions: 25
    Spherical Harmonics?: true
    Max angular momentum: 2

  ==> Integral Setup <==

  Using in-core PK algorithm.
   Calculation information:
      Number of atoms:                   3
      Number of AO shells:              12
      Number of primitives:             32
      Number of atomic orbitals:        25
      Number of basis functions:        24

      Integral cutoff                 1.00e-12
      Number of threads:                 1

  Performing in-core PK
  Using 90300 doubles for integral storage.
  We computed 3081 shell quartets total.
  Whereas there are 3081 unique shell quartets.

  ==> DiskJK: Disk-Based J/K Matrices <==

    J tasked:                  Yes
    K tasked:                  Yes
    wK tasked:                  No
    Memory [MiB]:            10013
    Schwarz Cutoff:          1E-12

    OpenMP threads:              1

  Minimum eigenvalue in the overlap matrix is 3.4203097164E-02.
  Reciprocal condition number of the overlap matrix is 9.2133931860E-03.
    Using symmetric orthogonalization.

  ==> Pre-Iterations <==

  SCF Guess: Superposition of Atomic Densities via on-the-fly atomic UHF (no occupation information).

   -------------------------
    Irrep   Nso     Nmo    
   -------------------------
     A'        18      18 
     A"         6       6 
   -------------------------
    Total      24      24
   -------------------------

  ==> Iterations <==

                        Total Energy        Delta E     RMS |[F,P]|

   @RHF iter SAD:   -75.50958572881946   -7.55096e+01   0.00000e+00 
   @RHF iter   1:   -75.95365400841858   -4.44068e-01   2.20292e-02 DIIS
   @RHF iter   2:   -76.00704564140968   -5.33916e-02   1.26250e-02 DIIS
   @RHF iter   3:   -76.02624516257067   -1.91995e-02   1.15090e-03 DIIS
   @RHF iter   4:   -76.02663168281731   -3.86520e-04   2.65488e-04 DIIS
   @RHF iter   5:   -76.02665119489329   -1.95121e-05   4.85610e-05 DIIS
   @RHF iter   6:   -76.02665210953069   -9.14637e-07   7.60413e-06 DIIS
   @RHF iter   7:   -76.02665213406596   -2.45353e-08   1.02375e-06 DIIS
   @RHF iter   8:   -76.02665213452049   -4.54534e-10   2.38809e-07 DIIS
   @RHF iter   9:   -76.02665213454988   -2.93880e-11   4.32261e-08 DIIS
   @RHF iter  10:   -76.02665213455077   -8.95284e-13   3.58308e-09 DIIS
   @RHF iter  11:   -76.02665213455079   -1.42109e-14   6.52333e-10 DIIS
   @RHF iter  12:   -76.02665213455086   -7.10543e-14   8.07524e-11 DIIS
  Energy and wave function converged.


  ==> Post-Iterations <==

    Orbital Energies [Eh]
    ---------------------

    Doubly Occupied:                                                      

       1Ap   -20.551320     2Ap    -1.336345     3Ap    -0.696362  
       4Ap    -0.568076     1App   -0.493331  

    Virtual:                                                              

       5Ap     0.185002     6Ap     0.256045     7Ap     0.784454  
       8Ap     0.856653     9Ap     1.164401     2App    1.200102  
      10Ap     1.254436    11Ap     1.436344     3App    1.478796  
       4App    1.669049    12Ap     1.865729    13Ap     1.938000  
      14Ap     2.443396    15Ap     2.488668     5App    3.288288  
       6App    3.333575    16Ap     3.511496    17Ap     3.856381  
      18Ap     4.150427  

    Final Occupation by Irrep:
             Ap   App 
    DOCC [     4,    1 ]

  @RHF Final Energy:   -76.02665213455086

   => Energetics <=

    Nuclear Repulsion Energy =              9.1759977518811340
    One-Electron Energy =                -123.1144316272908839
    Two-Electron Energy =                  37.9117817408588991
    Total Energy =                        -76.0266521345508437

Computation Completed


Properties will be evaluated at   0.000000,   0.000000,   0.000000 [a0]

Properties computed using the SCF density matrix

  Nuclear Dipole Moment: [e a0]
     X:     0.0066      Y:    -0.9878      Z:     0.0000

  Electronic Dipole Moment: [e a0]
     X:    -0.0031      Y:     0.1724      Z:     0.0000

  Dipole Moment: [e a0]
     X:     0.0035      Y:    -0.8154      Z:     0.0000     Total:     0.8154

  Dipole Moment: [D]
     X:     0.0088      Y:    -2.0725      Z:     0.0000     Total:     2.0725


*** tstop() called on n045 at Mon Sep  6 18:16:18 2021
Module time:
	user time   =       0.49 seconds =       0.01 minutes
	system time =       0.00 seconds =       0.00 minutes
	total time  =          0 seconds =       0.00 minutes
Total time:
	user time   =       0.49 seconds =       0.01 minutes
	system time =       0.00 seconds =       0.00 minutes
	total time  =          0 seconds =       0.00 minutes
 MINTS: Wrapper to libmints.
   by Justin Turney

   Calculation information:
      Number of threads:                 1
      Number of atoms:                   3
      Number of AO shells:              12
      Number of SO shells:              12
      Number of primitives:             32
      Number of atomic orbitals:        25
      Number of basis functions:        24

      Number of irreps:                  2
      Integral cutoff                 0.00e+00
      Number of functions per irrep: [  18    6 ]

 OEINTS: Overlap, kinetic, potential, dipole, and quadrupole integrals
         stored in file 35.

      Computing two-electron integrals...done
      Computed 22659 non-zero two-electron integrals.
        Stored in file 33.


*** tstart() called on n045
*** at Mon Sep  6 18:16:18 2021


	Wfn Parameters:
	--------------------
	Wavefunction         = CCSD_T
	Number of irreps     = 2
	Number of MOs        = 24
	Number of active MOs = 23
	AO-Basis             = NONE
	Semicanonical        = false
	Reference            = RHF
	Print Level          = 1

	IRREP	# MOs	# FZDC	# DOCC	# SOCC	# VIRT	# FZVR
	-----	-----	------	------	------	------	------
	 Ap	   18	    1	    3	    0	    14	    0
	 App	   6	    0	    1	    0	    5	    0
	Transforming integrals...
	IWL integrals will be deleted.
	(OO|OO)...
	Presorting SO-basis two-electron integrals.
	Sorting File: SO Ints (nn|nn) nbuckets = 1
	Transforming the one-electron integrals and constructing Fock matrices
	Starting first half-transformation.
	Sorting half-transformed integrals.
	First half integral transformation complete.
	Starting second half-transformation.
	Two-electron integral transformation complete.
	(OO|OV)...
	Starting second half-transformation.
	Two-electron integral transformation complete.
	(OO|VV)...
	Starting second half-transformation.
	Two-electron integral transformation complete.
	(OV|OO)...
	Starting first half-transformation.
	Sorting half-transformed integrals.
	First half integral transformation complete.
	Starting second half-transformation.
	Two-electron integral transformation complete.
	(OV|OV)...
	Starting second half-transformation.
	Two-electron integral transformation complete.
	(OV|VV)...
	Starting second half-transformation.
	Two-electron integral transformation complete.
	(VV|OO)...
	Starting first half-transformation.
	Sorting half-transformed integrals.
	First half integral transformation complete.
	Starting second half-transformation.
	Two-electron integral transformation complete.
	(VV|OV)...
	Starting second half-transformation.
	Two-electron integral transformation complete.
	(VV|VV)...
	Starting second half-transformation.
	Two-electron integral transformation complete.
	Frozen core energy     =    -61.31132163486461

	Size of irrep 0 of <ab|cd> integrals:      0.049 (MW) /      0.391 (MB)
	Size of irrep 1 of <ab|cd> integrals:      0.020 (MW) /      0.157 (MB)
	Total:                                     0.068 (MW) /      0.548 (MB)

	Size of irrep 0 of <ia|bc> integrals:      0.010 (MW) /      0.083 (MB)
	Size of irrep 1 of <ia|bc> integrals:      0.004 (MW) /      0.032 (MB)
	Total:                                     0.014 (MW) /      0.116 (MB)

	Size of irrep 0 of tijab amplitudes:       0.002 (MW) /      0.018 (MB)
	Size of irrep 1 of tijab amplitudes:       0.001 (MW) /      0.007 (MB)
	Total:                                     0.003 (MW) /      0.024 (MB)

	Nuclear Rep. energy          =      9.17599775188113
	SCF energy                   =    -76.02665213455086
	One-electron energy          =    -41.59442783537543
	Two-electron energy          =     17.70309958380803
	Reference energy             =    -76.02665213455087

*** tstop() called on n045 at Mon Sep  6 18:16:19 2021
Module time:
	user time   =       0.04 seconds =       0.00 minutes
	system time =       0.03 seconds =       0.00 minutes
	total time  =          1 seconds =       0.02 minutes
Total time:
	user time   =       0.57 seconds =       0.01 minutes
	system time =       0.03 seconds =       0.00 minutes
	total time  =          1 seconds =       0.02 minutes
            **************************
            *                        *
            *        CCENERGY        *
            *                        *
            **************************

    Nuclear Rep. energy (wfn)     =    9.175997751881134
    SCF energy          (wfn)     =  -76.026652134550858
    Reference energy    (file100) =  -76.026652134550872

    Input parameters:
    -----------------
    Wave function   =     CCSD_T
    Reference wfn   =     RHF
    Brueckner       =     No
    Memory (Mbytes) =     14000.0
    Maxiter         =    300
    R_Convergence   =     1.0e-08
    E_Convergence   =     1.0e-10
    Restart         =     Yes
    DIIS            =     Yes
    AO Basis        =     NONE
    ABCD            =     NEW
    Cache Level     =     2
    Cache Type      =     LOW
    Print Level     =     1
    Num. of threads =     1
    # Amps to Print =     10
    Print MP2 Amps? =     No
    Analyze T2 Amps =     No
    Print Pair Ener =     No
    Local CC        =     No
    SCS-MP2         =     False
    SCSN-MP2        =     False
    SCS-CCSD        =     False

MP2 correlation energy -0.2018749814840849
                Solving CC Amplitude Equations
                ------------------------------
  Iter             Energy              RMS        T1Diag      D1Diag    New D1Diag    D2Diag
  ----     ---------------------    ---------   ----------  ----------  ----------   --------
     0        -0.201874981484085    0.000e+00    0.000000    0.000000    0.000000    0.109761
     1        -0.207030676897909    2.670e-02    0.004524    0.008664    0.008664    0.116745
     2        -0.210998111667307    9.421e-03    0.005357    0.009989    0.009989    0.122123
     3        -0.211412194739449    2.445e-03    0.005842    0.010833    0.010833    0.123346
     4        -0.211423449721888    5.623e-04    0.005888    0.011020    0.011020    0.123546
     5        -0.211434637094580    1.668e-04    0.005914    0.011127    0.011127    0.123580
     6        -0.211432772987042    5.525e-05    0.005924    0.011171    0.011171    0.123574
     7        -0.211432549359355    1.490e-05    0.005927    0.011185    0.011185    0.123572
     8        -0.211432422771323    2.581e-06    0.005927    0.011187    0.011187    0.123571
     9        -0.211432376556174    6.235e-07    0.005927    0.011187    0.011187    0.123571
    10        -0.211432390897285    1.262e-07    0.005927    0.011187    0.011187    0.123571
    11        -0.211432389555057    2.689e-08    0.005927    0.011187    0.011187    0.123571
    12        -0.211432389970803    4.513e-09    0.005927    0.011187    0.011187    0.123571
    13        -0.211432389854662    9.895e-10    0.005927    0.011187    0.011187    0.123571
    14        -0.211432389846980    2.038e-10    0.005927    0.011187    0.011187    0.123571
    15        -0.211432389844187    5.895e-11    0.005927    0.011187    0.011187    0.123571

    Iterations converged.


    Largest TIA Amplitudes:
              2   0         0.0075284823
              1   9        -0.0072126284
              1   1         0.0060060429
              2  10        -0.0049049862
              1   5         0.0046330132
              0   4         0.0042226210
              0   0         0.0037239261
              3  16         0.0033086686
              3  14         0.0030746632
              2   3         0.0030359279

    Largest TIjAb Amplitudes:
      3   3  14  14        -0.0514060850
      1   1   2   2        -0.0361645930
      2   2   4   4        -0.0350442456
      1   1   1   1        -0.0296373109
      2   3   4  14         0.0284309186
      3   2  14   4         0.0284309186
      1   1   3   3        -0.0280730034
      2   2   2   2        -0.0257656091
      1   3   5  14         0.0228585502
      3   1  14   5         0.0228585502

    SCF energy       (wfn)                    =  -76.026652134550858
    Reference energy (file100)                =  -76.026652134550872

    Opposite-spin MP2 correlation energy      =   -0.151112703953380
    Same-spin MP2 correlation energy          =   -0.050762277530705
    Singles MP2 correlation energy            =   -0.000000000000000
    MP2 correlation energy                    =   -0.201874981484085
      * MP2 total energy                      =  -76.228527116034954

    Opposite-spin CCSD correlation energy     =   -0.166108731441083
    Same-spin CCSD correlation energy         =   -0.045323658403105
    Singles CCSD correlation energy           =    0.000000000000000
    CCSD correlation energy                   =   -0.211432389844187
      * CCSD total energy                     =  -76.238084524395063

            **************************
            *                        *
            *        CCTRIPLES       *
            *                        *
            **************************


    Wave function   =    CCSD_T
    Reference wfn   =      RHF

    Nuclear Rep. energy (wfn)                =    9.175997751881134
    SCF energy          (wfn)                =  -76.026652134550858
    Reference energy    (file100)            =  -76.026652134550872
    CCSD energy         (file100)            =   -0.211432389844187
    Total CCSD energy   (file100)            =  -76.238084524395063

    Number of ijk index combinations:               20
    Memory available in words        :      1750000000
    ~Words needed per explicit thread:           10976
    Number of threads for explicit ijk threading:    1

    MKL num_threads set to 1 for explicit threading.

    (T) energy                                =   -0.003053428566182
      * CCSD(T) total energy                  =  -76.241137952961239

Giraffe The Energy is -76.241137952961 

    Psi4 stopped on: Monday, 06 September 2021 06:16PM
    Psi4 wall time for execution: 0:00:03.15

*** Psi4 exiting successfully. Buy a developer a beer!
