
    -----------------------------------------------------------------------
          Psi4: An Open-Source Ab Initio Electronic Structure Package
                               Psi4 1.4a2.dev629 

                         Git: Rev {master} 2938fc2 dirty


    D. G. A. Smith, L. A. Burns, A. C. Simmonett, R. M. Parrish,
    M. C. Schieber, R. Galvelis, P. Kraus, H. Kruse, R. Di Remigio,
    A. Alenaizan, A. M. James, S. Lehtola, J. P. Misiewicz, M. Scheurer,
    R. A. Shaw, J. B. Schriber, Y. Xie, Z. L. Glick, D. A. Sirianni,
    J. S. O'Brien, J. M. Waldrop, A. Kumar, E. G. Hohenstein,
    B. P. Pritchard, B. R. Brooks, H. F. Schaefer III, A. Yu. Sokolov,
    K. Patkowski, A. E. DePrince III, U. Bozkaya, R. A. King,
    F. A. Evangelista, J. M. Turney, T. D. Crawford, C. D. Sherrill,
    J. Chem. Phys. 152(18) 184108 (2020). https://doi.org/10.1063/5.0006002

                            Additional Code Authors
    E. T. Seidl, C. L. Janssen, E. F. Valeev, M. L. Leininger,
    J. F. Gonthier, R. M. Richard, H. R. McAlexander, M. Saitow, X. Wang,
    P. Verma, and M. H. Lechner

             Previous Authors, Complete List of Code Contributors,
                       and Citations for Specific Modules
    https://github.com/psi4/psi4/blob/master/codemeta.json
    https://github.com/psi4/psi4/graphs/contributors
    http://psicode.org/psi4manual/master/introduction.html#citing-psifour

    -----------------------------------------------------------------------


    Psi4 started on: Tuesday, 15 September 2020 12:57PM

    Process ID: 11047
    Host:       n058
    PSIDATADIR: /opt/psi/4/master/share/psi4
    Memory:     500.0 MiB
    Threads:    1
    
  ==> Input File <==

--------------------------------------------------------------------------
# o-Benzyne preliminary computations

memory 14 gb

molecule {
  0 1
  C         -1.3717513437         -0.0249716441          0.0000042690  
  O          1.3018247247          0.1205543542          0.0000032917  
  H         -2.0699627824          1.8970098466         -0.0009160971  
  H         -2.0994246410         -0.9693713632          1.6667737957  
  H         -2.0993442441         -0.9708749559         -1.6659488469  
  H          1.9410367852         -1.5727155543         -0.0000118857  
  units bohr
}

set {
  basis=cc-pVTZ
  reference rhf
  e_convergence 10 
  d_convergence 10
  r_convergence 8
  maxiter 300
}

energy('ccsd(t)')
--------------------------------------------------------------------------

  Memory set to  13.039 GiB by Python driver.

Scratch directory: /tmp/

*** tstart() called on n058
*** at Tue Sep 15 12:57:29 2020

   => Loading Basis Set <=

    Name: CC-PVTZ
    Role: ORBITAL
    Keyword: BASIS
    atoms 1   entry C          line   186 file /opt/psi/4/master/share/psi4/basis/cc-pvtz.gbs 
    atoms 2   entry O          line   262 file /opt/psi/4/master/share/psi4/basis/cc-pvtz.gbs 
    atoms 3-6 entry H          line    23 file /opt/psi/4/master/share/psi4/basis/cc-pvtz.gbs 


         ---------------------------------------------------------
                                   SCF
               by Justin Turney, Rob Parrish, Andy Simmonett
                          and Daniel G. A. Smith
                              RHF Reference
                        1 Threads,  13351 MiB Core
         ---------------------------------------------------------

  ==> Geometry <==

    Molecular point group: c1
    Full point group: C1

    Geometry (in Bohr), charge = 0, multiplicity = 1:

       Center              X                  Y                   Z               Mass       
    ------------   -----------------  -----------------  -----------------  -----------------
         C           -1.371751342532    -0.024971643156     0.000004267807    12.000000000000
         O            1.301824725868     0.120554355144     0.000003290507    15.994914619570
         H           -2.069962781232     1.897009847544    -0.000916098293     1.007825032230
         H           -2.099424639832    -0.969371362256     1.666773794507     1.007825032230
         H           -2.099344242932    -0.970874954956    -1.665948848093     1.007825032230
         H            1.941036786368    -1.572715553356    -0.000011886893     1.007825032230

  Running in c1 symmetry.

  Rotational constants: A =      4.34544  B =      0.83282  C =      0.80327 [cm^-1]
  Rotational constants: A = 130273.09399  B =  24967.39208  C =  24081.35863 [MHz]
  Nuclear repulsion =   40.481471534039336

  Charge       = 0
  Multiplicity = 1
  Electrons    = 18
  Nalpha       = 9
  Nbeta        = 9

  ==> Algorithm <==

  SCF Algorithm Type is PK.
  DIIS enabled.
  MOM disabled.
  Fractional occupation disabled.
  Guess Type is SAD.
  Energy threshold   = 1.00e-10
  Density threshold  = 1.00e-10
  Integral threshold = 0.00e+00

  ==> Primary Basis <==

  Basis Set: CC-PVTZ
    Blend: CC-PVTZ
    Number of shells: 44
    Number of basis function: 116
    Number of Cartesian functions: 130
    Spherical Harmonics?: true
    Max angular momentum: 3

  ==> Integral Setup <==

  Using in-core PK algorithm.
   Calculation information:
      Number of atoms:                   6
      Number of AO shells:              44
      Number of primitives:             84
      Number of atomic orbitals:       130
      Number of basis functions:       116

      Integral cutoff                 1.00e-12
      Number of threads:                 1

  Performing in-core PK
  Using 46056582 doubles for integral storage.
  We computed 490499 shell quartets total.
  Whereas there are 490545 unique shell quartets.

  ==> DiskJK: Disk-Based J/K Matrices <==

    J tasked:                  Yes
    K tasked:                  Yes
    wK tasked:                  No
    Memory [MiB]:            10013
    Schwarz Cutoff:          1E-12

    OpenMP threads:              1

  Minimum eigenvalue in the overlap matrix is 1.7999178793E-03.
  Reciprocal condition number of the overlap matrix is 2.7051145454E-04.
    Using symmetric orthogonalization.

  ==> Pre-Iterations <==

  SCF Guess: Superposition of Atomic Densities via on-the-fly atomic UHF (no occupation information).

   -------------------------
    Irrep   Nso     Nmo    
   -------------------------
     A        116     116 
   -------------------------
    Total     116     116
   -------------------------

  ==> Iterations <==

                        Total Energy        Delta E     RMS |[F,P]|

   @RHF iter SAD:  -114.43476168917555   -1.14435e+02   0.00000e+00 
   @RHF iter   1:  -115.01460664596041   -5.79845e-01   3.42080e-03 DIIS
   @RHF iter   2:  -115.07185732531097   -5.72507e-02   1.94338e-03 DIIS
   @RHF iter   3:  -115.08850189769350   -1.66446e-02   3.02276e-04 DIIS
   @RHF iter   4:  -115.08938440827379   -8.82511e-04   8.83905e-05 DIIS
   @RHF iter   5:  -115.08945845345778   -7.40452e-05   2.13282e-05 DIIS
   @RHF iter   6:  -115.08946328428370   -4.83083e-06   4.72495e-06 DIIS
   @RHF iter   7:  -115.08946365117843   -3.66895e-07   1.09666e-06 DIIS
   @RHF iter   8:  -115.08946367271380   -2.15354e-08   2.26312e-07 DIIS
   @RHF iter   9:  -115.08946367361797   -9.04166e-10   4.19208e-08 DIIS
   @RHF iter  10:  -115.08946367364770   -2.97291e-11   1.07666e-08 DIIS
   @RHF iter  11:  -115.08946367364969   -1.98952e-12   2.19011e-09 DIIS
   @RHF iter  12:  -115.08946367364985   -1.56319e-13   3.90602e-10 DIIS
   @RHF iter  13:  -115.08946367364995   -9.94760e-14   7.16299e-11 DIIS
  Energy and wave function converged.


  ==> Post-Iterations <==

    Orbital Energies [Eh]
    ---------------------

    Doubly Occupied:                                                      

       1A    -20.551776     2A    -11.265851     3A     -1.355397  
       4A     -0.926036     5A     -0.689664     6A     -0.620265  
       7A     -0.591430     8A     -0.502608     9A     -0.449519  

    Virtual:                                                              

      10A      0.138736    11A      0.179132    12A      0.220909  
      13A      0.224545    14A      0.291110    15A      0.386135  
      16A      0.404048    17A      0.546719    18A      0.585334  
      19A      0.626014    20A      0.627004    21A      0.641826  
      22A      0.691617    23A      0.706601    24A      0.723184  
      25A      0.833603    26A      0.865836    27A      0.872705  
      28A      0.928050    29A      1.072615    30A      1.102664  
      31A      1.178546    32A      1.191251    33A      1.264634  
      34A      1.272105    35A      1.285609    36A      1.365803  
      37A      1.449100    38A      1.493313    39A      1.527471  
      40A      1.547768    41A      1.586116    42A      1.622745  
      43A      1.786926    44A      2.093478    45A      2.180950  
      46A      2.201586    47A      2.301620    48A      2.324753  
      49A      2.484786    50A      2.509121    51A      2.571743  
      52A      2.807745    53A      2.953863    54A      3.057913  
      55A      3.114473    56A      3.120051    57A      3.143337  
      58A      3.225203    59A      3.246687    60A      3.318014  
      61A      3.318336    62A      3.346191    63A      3.384841  
      64A      3.503448    65A      3.619373    66A      3.637092  
      67A      3.709630    68A      3.713356    69A      3.749931  
      70A      3.765210    71A      3.819810    72A      3.854876  
      73A      3.909883    74A      4.015505    75A      4.030990  
      76A      4.121234    77A      4.164823    78A      4.178272  
      79A      4.254110    80A      4.261061    81A      4.296317  
      82A      4.413098    83A      4.447526    84A      4.476672  
      85A      4.571239    86A      4.592248    87A      4.720574  
      88A      4.801681    89A      5.010444    90A      5.044066  
      91A      5.073797    92A      5.209017    93A      5.290216  
      94A      5.333580    95A      5.384269    96A      5.456894  
      97A      5.566616    98A      5.569097    99A      5.590055  
     100A      5.797174   101A      5.947155   102A      6.200293  
     103A      6.217273   104A      6.261095   105A      6.440794  
     106A      6.647431   107A      7.001464   108A      7.127985  
     109A      7.186954   110A      7.237770   111A      7.358275  
     112A      7.438070   113A      7.595675   114A      7.916997  
     115A     12.161075   116A     13.853443  

    Final Occupation by Irrep:
              A 
    DOCC [     9 ]

  @RHF Final Energy:  -115.08946367364995

   => Energetics <=

    Nuclear Repulsion Energy =             40.4814715340393363
    One-Electron Energy =                -237.2367775053749313
    Two-Electron Energy =                  81.6658422976856428
    Total Energy =                       -115.0894636736499450

Computation Completed


Properties will be evaluated at   0.000000,   0.000000,   0.000000 [a0]

Properties computed using the SCF density matrix

  Nuclear Dipole Moment: [e a0]
     X:    -2.1436      Y:    -0.8013      Z:    -0.0001

  Electronic Dipole Moment: [e a0]
     X:     1.7572      Y:     0.2121      Z:     0.0000

  Dipole Moment: [e a0]
     X:    -0.3864      Y:    -0.5893      Z:    -0.0000     Total:     0.7047

  Dipole Moment: [D]
     X:    -0.9822      Y:    -1.4978      Z:    -0.0001     Total:     1.7911


*** tstop() called on n058 at Tue Sep 15 12:57:32 2020
Module time:
	user time   =       3.27 seconds =       0.05 minutes
	system time =       0.03 seconds =       0.00 minutes
	total time  =          3 seconds =       0.05 minutes
Total time:
	user time   =       3.27 seconds =       0.05 minutes
	system time =       0.03 seconds =       0.00 minutes
	total time  =          3 seconds =       0.05 minutes
 MINTS: Wrapper to libmints.
   by Justin Turney

   Calculation information:
      Number of threads:                 1
      Number of atoms:                   6
      Number of AO shells:              44
      Number of SO shells:              44
      Number of primitives:             84
      Number of atomic orbitals:       130
      Number of basis functions:       116

      Number of irreps:                  1
      Integral cutoff                 0.00e+00
      Number of functions per irrep: [ 116 ]

 OEINTS: Overlap, kinetic, potential, dipole, and quadrupole integrals
         stored in file 35.

      Computing two-electron integrals...done
      Computed 22872132 non-zero two-electron integrals.
        Stored in file 33.


*** tstart() called on n058
*** at Tue Sep 15 12:57:34 2020


	Wfn Parameters:
	--------------------
	Wavefunction         = CCSD_T
	Number of irreps     = 1
	Number of MOs        = 116
	Number of active MOs = 116
	AO-Basis             = NONE
	Semicanonical        = false
	Reference            = RHF
	Print Level          = 1

	IRREP	# MOs	# FZDC	# DOCC	# SOCC	# VIRT	# FZVR
	-----	-----	------	------	------	------	------
	 A	   116	    0	    9	    0	    107	    0
	Transforming integrals...
	IWL integrals will be deleted.
	(OO|OO)...
	Presorting SO-basis two-electron integrals.
	Sorting File: SO Ints (nn|nn) nbuckets = 1
	Transforming the one-electron integrals and constructing Fock matrices
	Starting first half-transformation.
	Sorting half-transformed integrals.
	First half integral transformation complete.
	Starting second half-transformation.
	Two-electron integral transformation complete.
	(OO|OV)...
	Starting second half-transformation.
	Two-electron integral transformation complete.
	(OO|VV)...
	Starting second half-transformation.
	Two-electron integral transformation complete.
	(OV|OO)...
	Starting first half-transformation.
	Sorting half-transformed integrals.
	First half integral transformation complete.
	Starting second half-transformation.
	Two-electron integral transformation complete.
	(OV|OV)...
	Starting second half-transformation.
	Two-electron integral transformation complete.
	(OV|VV)...
	Starting second half-transformation.
	Two-electron integral transformation complete.
	(VV|OO)...
	Starting first half-transformation.
	Sorting half-transformed integrals.
	First half integral transformation complete.
	Starting second half-transformation.
	Two-electron integral transformation complete.
	(VV|OV)...
	Starting second half-transformation.
	Two-electron integral transformation complete.
	(VV|VV)...
	Starting second half-transformation.
	Two-electron integral transformation complete.
	Frozen core energy     =      0.00000000000000

	Size of irrep 0 of <ab|cd> integrals:    131.080 (MW) /   1048.637 (MB)
	Total:                                   131.080 (MW) /   1048.637 (MB)

	Size of irrep 0 of <ia|bc> integrals:     11.025 (MW) /     88.203 (MB)
	Total:                                    11.025 (MW) /     88.203 (MB)

	Size of irrep 0 of tijab amplitudes:       0.927 (MW) /      7.419 (MB)
	Total:                                     0.927 (MW) /      7.419 (MB)

	Nuclear Rep. energy          =     40.48147153403934
	SCF energy                   =   -115.08946367364995
	One-electron energy          =   -237.23677753712406
	Two-electron energy          =     81.66584232943487
	Reference energy             =   -115.08946367364985

*** tstop() called on n058 at Tue Sep 15 12:57:45 2020
Module time:
	user time   =       7.75 seconds =       0.13 minutes
	system time =       2.74 seconds =       0.05 minutes
	total time  =         11 seconds =       0.18 minutes
Total time:
	user time   =      12.56 seconds =       0.21 minutes
	system time =       2.92 seconds =       0.05 minutes
	total time  =         16 seconds =       0.27 minutes
            **************************
            *                        *
            *        CCENERGY        *
            *                        *
            **************************

    Nuclear Rep. energy (wfn)     =   40.481471534039336
    SCF energy          (wfn)     = -115.089463673649945
    Reference energy    (file100) = -115.089463673649846

    Input parameters:
    -----------------
    Wave function   =     CCSD_T
    Reference wfn   =     RHF
    Brueckner       =     No
    Memory (Mbytes) =     14000.0
    Maxiter         =    300
    R_Convergence   =     1.0e-08
    E_Convergence   =     1.0e-10
    Restart         =     Yes
    DIIS            =     Yes
    AO Basis        =     NONE
    ABCD            =     NEW
    Cache Level     =     2
    Cache Type      =     LOW
    Print Level     =     1
    Num. of threads =     1
    # Amps to Print =     10
    Print MP2 Amps? =     No
    Analyze T2 Amps =     No
    Print Pair Ener =     No
    Local CC        =     No
    SCS-MP2         =     False
    SCSN-MP2        =     False
    SCS-CCSD        =     False

MP2 correlation energy -0.4573809633446625
                Solving CC Amplitude Equations
                ------------------------------
  Iter             Energy              RMS        T1Diag      D1Diag    New D1Diag    D2Diag
  ----     ---------------------    ---------   ----------  ----------  ----------   --------
     0        -0.457380963344662    0.000e+00    0.000000    0.000000    0.000000    0.128042
     1        -0.464929842108862    4.743e-02    0.006460    0.014802    0.014802    0.129147
     2        -0.474840088912039    1.553e-02    0.006573    0.014783    0.014783    0.134845
     3        -0.476301689235094    5.430e-03    0.007364    0.016857    0.016857    0.136266
     4        -0.476199375688938    1.192e-03    0.007417    0.017004    0.017004    0.136494
     5        -0.476239057836714    4.306e-04    0.007449    0.017140    0.017140    0.136592
     6        -0.476247461203165    1.217e-04    0.007459    0.017191    0.017191    0.136599
     7        -0.476245313959394    4.522e-05    0.007460    0.017206    0.017206    0.136597
     8        -0.476245180428928    1.683e-05    0.007462    0.017215    0.017215    0.136596
     9        -0.476245279601867    4.839e-06    0.007462    0.017216    0.017216    0.136596
    10        -0.476245037563403    1.537e-06    0.007462    0.017217    0.017217    0.136596
    11        -0.476245103909801    4.724e-07    0.007462    0.017217    0.017217    0.136596
    12        -0.476245089875574    1.165e-07    0.007462    0.017217    0.017217    0.136596
    13        -0.476245092982680    4.163e-08    0.007462    0.017217    0.017217    0.136596
    14        -0.476245094118865    1.180e-08    0.007462    0.017217    0.017217    0.136596
    15        -0.476245094156448    4.820e-09    0.007462    0.017217    0.017217    0.136596
    16        -0.476245094185557    1.502e-09    0.007462    0.017217    0.017217    0.136596

    Iterations converged.


    Largest TIA Amplitudes:
              5   6        -0.0079941212
              5  14         0.0076347884
              5  10        -0.0069297138
              8  14        -0.0063958112
              6   7         0.0060499984
              6   3        -0.0058875424
              7   8         0.0058061855
              5   2         0.0054575604
              8   6         0.0053169655
              6   5        -0.0050970326

    Largest TIjAb Amplitudes:
      5   5  10  10        -0.0230753812
      8   8  14  14        -0.0212876576
      6   6   7   7        -0.0212483812
      7   7  12  12        -0.0206106836
      4   4   7   7        -0.0190391830
      6   6   8   8        -0.0162065528
      5   5  14  14        -0.0152062030
      7   7   7   7        -0.0151401744
      5   5   2  10         0.0148539663
      5   5  10   2         0.0148539663

    SCF energy       (wfn)                    = -115.089463673649945
    Reference energy (file100)                = -115.089463673649846

    Opposite-spin MP2 correlation energy      =   -0.353792937043793
    Same-spin MP2 correlation energy          =   -0.103588026300870
    Singles MP2 correlation energy            =   -0.000000000000000
    MP2 correlation energy                    =   -0.457380963344662
      * MP2 total energy                      = -115.546844636994507

    Opposite-spin CCSD correlation energy     =   -0.381691909692087
    Same-spin CCSD correlation energy         =   -0.094553184493469
    Singles CCSD correlation energy           =    0.000000000000000
    CCSD correlation energy                   =   -0.476245094185557
      * CCSD total energy                     = -115.565708767835403

            **************************
            *                        *
            *        CCTRIPLES       *
            *                        *
            **************************


    Wave function   =    CCSD_T
    Reference wfn   =      RHF

    Nuclear Rep. energy (wfn)                =   40.481471534039336
    SCF energy          (wfn)                = -115.089463673649945
    Reference energy    (file100)            = -115.089463673649846
    CCSD energy         (file100)            =   -0.476245094185557
    Total CCSD energy   (file100)            = -115.565708767835403

    Number of ijk index combinations:              165
    Memory available in words        :      1750000000
    ~Words needed per explicit thread:         4900172
    Number of threads for explicit ijk threading:    1

    MKL num_threads set to 1 for explicit threading.

    (T) energy                                =   -0.015011510126199
      * CCSD(T) total energy                  = -115.580720277961603


    Psi4 stopped on: Tuesday, 15 September 2020 12:58PM
    Psi4 wall time for execution: 0:01:05.41

*** Psi4 exiting successfully. Buy a developer a beer!
