
 Primary working directories    : /tmp/601555.108.gen4.q
 Secondary working directories  : /tmp/601555.108.gen4.q
 Wavefunction directory         : /home/vulcan/mel64643/wfu/
 Main file repository           : /tmp/601555.108.gen4.q/

 ARCHNAME  : Linux/x86_64
 FC        : /opt/intel/compilers_and_libraries_2016.1.150/linux/bin/intel64/ifort
 FCVERSION : 16.0.1
 BLASLIB   : -mkl
 id        : ccgc

 Nodes     nprocs
 n061         1
 ga_uses_ma=false, calling ma_init with nominal heap.
 GA-space will be limited to   8.0 MW (determined by -G option)

 Using customized tuning parameters: mindgm=10; mindgv=16; mindgc=4; mindgr=1; noblas=0; mincuda=1000; minvec=7
 default implementation of scratch files=df  

 ***,Optimization of min3
 memory,1000,m
 gthresh,energy=1.0d-12,orbital=1.0d-10,oneint=1.0d-16,twoint=1.0d-16,optgrad=1.0d-6,compress=1.0d-13
 geomtyp=xyz
 
  bohr
  geometry = {
  6
  arbitrary comment
  C   -1.3765618792   -0.0242353267    0.0000003417
  O    1.3111293319    0.1224030967    0.0000002983
  H   -2.0786473582    1.9040797564   -0.0000797406
  H   -2.1098922946   -0.9769979758    1.6755528907
  H   -2.1098853070   -0.9771286357   -1.6754808980
  H    1.9401333471   -1.5782530349   -0.0000013022
 }
 
 basis=cc-pvdz
 {rhf;maxit,200}
 {ccsd(t);maxit,200}

 Variables initialized (661), CPU time= 0.00 sec
 Commands  initialized (458), CPU time= 0.01 sec, 486 directives.
 Default parameters read. Elapsed time= 0.05 sec

 Checking input...
 Passed
1


                                         ***  PROGRAM SYSTEM MOLPRO  ***
                         Copyright, University College Cardiff Consultants Limited, 2008

                                    Version 2010.1 linked May 16 2016 07:17:05


 **********************************************************************************************************************************
 LABEL *   Optimization of min3                                                          
 Linux-4.4.3/n061(x86_64) 64 bit mpp version                                             DATE: 06-Nov-21          TIME: 15:40:01  
 **********************************************************************************************************************************

 SHA1:             9e8077add272b0f3cad6f7df79ec5211205f459d
 **********************************************************************************************************************************

 THRESHOLDS:

 ZERO    =  1.00D-12  ONEINT  =  1.00D-16  TWOINT  =  1.00D-16  PREFAC  =  1.00D-14  LOCALI  =  1.00D-09  EORDER  =  1.00D-04
 ENERGY  =  1.00D-12  ETEST   =  0.00D+00  EDENS   =  0.00D+00  THRDEDEF=  1.00D-06  GRADIENT=  1.00D-02  STEP    =  1.00D-03
 ORBITAL =  1.00D-10  CIVEC   =  1.00D-05  COEFF   =  1.00D-04  PRINTCI =  5.00D-02  PUNCHCI =  9.90D+01  OPTGRAD =  1.00D-06
 OPTENERG=  1.00D-06  OPTSTEP =  3.00D-04  THRGRAD =  1.00D-10  COMPRESS=  1.00D-13  VARMIN  =  1.00D-07  VARMAX  =  1.00D-03
 THRDOUB =  0.00D+00  THRDIV  =  1.00D-05  THRRED  =  1.00D-07  THRPSP  =  1.00D+00  THRDC   =  1.00D-10  THRCS   =  1.00D-10
 THRNRM  =  1.00D-08  THREQ   =  0.00D+00  THRDE   =  1.00D+00  THRREF  =  1.00D-05  SPARFAC =  1.00D+00  THRDLP  =  1.00D-07
 THRDIA  =  1.00D-10  THRDLS  =  1.00D-07  THRGPS  =  0.00D+00  THRKEX  =  0.00D+00  THRDIS  =  2.00D-01  THRVAR  =  1.00D-10
 THRLOC  =  1.00D-06  THRGAP  =  1.00D-06  THRLOCT = -1.00D+00  THRGAPT = -1.00D+00  THRORB  =  1.00D-06  THRMLTP =  0.00D+00
 THRCPQCI=  1.00D-10  KEXTA   =  0.00D+00  THRCOARS=  0.00D+00  SYMTOL  =  1.00D-06  GRADTOL =  1.00D-06  THROVL  =  1.00D-08
 THRORTH =  1.00D-08  GRID    =  1.00D-06  GRIDMAX =  1.00D-03  DTMAX   =  0.00D+00

 SETTING GEOMTYP        =    XYZ
 ZUNIT=BOHR
 

 Variable memory set to 1000000000 words,  buffer space   230000 words

 SETTING BASIS          =    CC-PVDZ


 Recomputing integrals since basis changed


 Using spherical harmonics

 Library entry C      S cc-pVDZ              selected for orbital group  1
 Library entry C      P cc-pVDZ              selected for orbital group  1
 Library entry C      D cc-pVDZ              selected for orbital group  1
 Library entry O      S cc-pVDZ              selected for orbital group  2
 Library entry O      P cc-pVDZ              selected for orbital group  2
 Library entry O      D cc-pVDZ              selected for orbital group  2
 Library entry H      S cc-pVDZ              selected for orbital group  3
 Library entry H      P cc-pVDZ              selected for orbital group  3

1PROGRAM * SEWARD (Integral evaluation for generally contracted gaussian basis sets)     Author: Roland Lindh, 1990

 Geometry written to block  1 of record 700


 Point group  C1  



 ATOMIC COORDINATES

 NR  ATOM    CHARGE       X              Y              Z

   1  C       6.00   -1.376561879   -0.024235327    0.000000342
   2  O       8.00    1.311129332    0.122403097    0.000000298
   3  H       1.00   -2.078647358    1.904079756   -0.000079741
   4  H       1.00   -2.109892295   -0.976997976    1.675552891
   5  H       1.00   -2.109885307   -0.977128636   -1.675480898
   6  H       1.00    1.940133347   -1.578253035   -0.000001302

 Bond lengths in Bohr (Angstrom)

 1-2  2.691688480  1-3  2.052150844  1-4  2.062281869  1-5  2.062281817  2-6  1.813250487
     ( 1.424380197)     ( 1.085951456)     ( 1.091312564)     ( 1.091312536)     ( 0.959530832)

 Bond angles

  1-2-6  107.17447959   2-1-3  106.88327792   2-1-4  112.34807441   2-1-5  112.34807762

  3-1-4  108.20945335   3-1-5  108.20928994   4-1-5  108.67352284

 NUCLEAR CHARGE:                   18
 NUMBER OF PRIMITIVE AOS:          82
 NUMBER OF SYMMETRY AOS:           80
 NUMBER OF CONTRACTIONS:           48   (  48A   )
 NUMBER OF CORE ORBITALS:           2   (   2A   )
 NUMBER OF VALENCE ORBITALS:       12   (  12A   )


 NUCLEAR REPULSION ENERGY   40.28850799


 Eigenvalues of metric

         1 0.966E-02 0.176E-01 0.365E-01 0.370E-01 0.381E-01 0.472E-01 0.472E-01 0.515E-01


 Contracted 2-electron integrals neglected if value below      1.0D-16
 AO integral compression algorithm  1   Integral accuracy      1.0D-16

     6.291 MB (compressed) written to integral file ( 98.2%)

     Node minimum: 6.291 MB, node maximum: 6.291 MB


 NUMBER OF SORTED TWO-ELECTRON INTEGRALS:     692076.     BUFFER LENGTH:  32768
 NUMBER OF SEGMENTS:   1  SEGMENT LENGTH:     692076      RECORD LENGTH: 524288

 Memory used in sort:       1.25 MW

 SORT1 READ      832256. AND WROTE      682147. INTEGRALS IN      2 RECORDS. CPU TIME:     0.00 SEC, REAL TIME:     0.01 SEC
 SORT2 READ      682147. AND WROTE      692076. INTEGRALS IN     24 RECORDS. CPU TIME:     0.02 SEC, REAL TIME:     0.03 SEC

 FILE SIZES:   FILE 1:     8.0 MBYTE,  FILE 4:     8.4 MBYTE,   TOTAL:     16.4 MBYTE

 OPERATOR DM      FOR CENTER  0  COORDINATES:    0.000000    0.000000    0.000000


 **********************************************************************************************************************************
 DATASETS  * FILE   NREC   LENGTH (MB)   RECORD NAMES
              1      19        8.03       500      610      700      900      950      970     1000      129      960     1100   
                                          VAR    BASINP    GEOM    SYMINP    ZMAT    AOBASIS   BASIS     P2S    ABASIS      S 
                                         1400     1410     1200     1210     1080     1600     1650     1300     1700   
                                           T        V       H0       H01     AOSYM     SMH    MOLCAS    ERIS     OPER   

 PROGRAMS   *        TOTAL       INT
 CPU TIMES  *         0.23      0.19
 REAL TIME  *         0.42 SEC
 DISK USED  *        23.34 MB      
 GA USED    *         0.00 MB       (max)       0.00 MB       (current)
 **********************************************************************************************************************************

1PROGRAM * RHF-SCF (CLOSED SHELL)       Authors: W. Meyer, H.-J. Werner


 NUMBER OF ELECTRONS:       9+    9-    SPACE SYMMETRY=1    SPIN SYMMETRY: Singlet 
 CONVERGENCE THRESHOLDS:    1.00E-10 (Density)    1.00E-13 (Energy)
 MAX. NUMBER OF ITERATIONS:      200
 INTERPOLATION TYPE:            DIIS
 INTERPOLATION STEPS:              2 (START)      1 (STEP)
 LEVEL SHIFTS:                  0.00 (CLOSED)  0.00 (OPEN) 



 Orbital guess generated from atomic densities. Full valence occupancy:   14

 Molecular orbital dump at record        2100.2

 ITERATION    DDIFF          GRAD             ENERGY        2-EL.EN.            DIPOLE MOMENTS         DIIS
    1      0.000D+00      0.000D+00      -115.01408860    164.349043   -0.50437   -0.90244   -0.00000    0
    2      0.000D+00      0.110D-01      -115.04243869    162.132722   -0.32447   -0.53676   -0.00000    1
    3      0.205D-01      0.530D-02      -115.04847315    163.156836   -0.40866   -0.61220   -0.00000    2
    4      0.639D-02      0.113D-02      -115.04893779    163.000994   -0.39842   -0.60107   -0.00000    3
    5      0.204D-02      0.203D-03      -115.04895894    163.007143   -0.40128   -0.59678   -0.00000    4
    6      0.433D-03      0.356D-04      -115.04895974    163.007424   -0.40159   -0.59658   -0.00000    5
    7      0.935D-04      0.752D-05      -115.04895977    163.006181   -0.40173   -0.59642   -0.00000    6
    8      0.152D-04      0.243D-05      -115.04895977    163.006565   -0.40177   -0.59639   -0.00000    7
    9      0.517D-05      0.491D-06      -115.04895977    163.006526   -0.40178   -0.59639   -0.00000    6
   10      0.141D-05      0.876D-07      -115.04895977    163.006525   -0.40179   -0.59639   -0.00000    6
   11      0.235D-06      0.326D-07      -115.04895977    163.006530   -0.40179   -0.59639   -0.00000    6
   12      0.584D-07      0.137D-07      -115.04895977    163.006528   -0.40179   -0.59639   -0.00000    7
   13      0.255D-07      0.302D-08      -115.04895977    163.006528   -0.40179   -0.59639   -0.00000    7
   14      0.755D-08      0.653D-09      -115.04895977    163.006528   -0.40179   -0.59639   -0.00000    7
   15      0.168D-08      0.150D-09      -115.04895977    163.006528   -0.40179   -0.59639   -0.00000    7
   16      0.335D-09      0.455D-10      -115.04895977    163.006528   -0.40179   -0.59639   -0.00000    7
   17      0.883D-10      0.162D-10      -115.04895977    163.006528   -0.40179   -0.59639   -0.00000    7
   18      0.419D-10      0.292D-11      -115.04895977    163.006528   -0.40179   -0.59639   -0.00000    7
   19      0.686D-11      0.654D-12      -115.04895977    163.006528   -0.40179   -0.59639   -0.00000    7
   20      0.165D-11      0.257D-12      -115.04895977    163.006528   -0.40179   -0.59639   -0.00000    0

 Final occupancy:   9

 !RHF STATE 1.1 Energy               -115.048959773754
 Nuclear energy                        40.28850799
 One-electron energy                 -236.84073199
 Two-electron energy                   81.50326423
 Virial quotient                       -1.00086520
 !RHF STATE 1.1 Dipole moment          -0.40178804    -0.59639037    -0.00000275
 Dipole moment /Debye                  -1.02117645    -1.51577384    -0.00000699

 Orbital energies:

         1.1          2.1          3.1          4.1          5.1          6.1          7.1          8.1          9.1         10.1
    -20.549964   -11.273894    -1.348661    -0.922481    -0.682346    -0.613712    -0.584221    -0.498131    -0.443691     0.184711

        11.1
      0.224532


 **********************************************************************************************************************************
 DATASETS  * FILE   NREC   LENGTH (MB)   RECORD NAMES
              1      19        8.03       500      610      700      900      950      970     1000      129      960     1100   
                                          VAR    BASINP    GEOM    SYMINP    ZMAT    AOBASIS   BASIS     P2S    ABASIS      S 
                                         1400     1410     1200     1210     1080     1600     1650     1300     1700   
                                           T        V       H0       H01     AOSYM     SMH    MOLCAS    ERIS     OPER   

              2       3        0.39       700     1000     2100   
                                         GEOM     BASIS     RHF  

 PROGRAMS   *        TOTAL       RHF       INT
 CPU TIMES  *         0.32      0.09      0.19
 REAL TIME  *         0.56 SEC
 DISK USED  *        23.34 MB      
 GA USED    *         0.00 MB       (max)       0.00 MB       (current)
 **********************************************************************************************************************************


1PROGRAM * CCSD (Closed-shell coupled cluster)     Authors: C. Hampel, H.-J. Werner, 1991, M. Deegan, P.J. Knowles, 1992


 Convergence thresholds:  THRVAR = 1.00D-08  THRDEN = 1.00D-12

 CCSD(T)     terms to be evaluated (factor= 1.000)


 Number of core orbitals:           2 (   2 )
 Number of closed-shell orbitals:   7 (   7 )
 Number of external orbitals:      39 (  39 )

 Molecular orbitals read from record     2100.2  Type=RHF/CANONICAL (state 1.1)

 Number of N-1 electron functions:               7
 Number of N-2 electron functions:              28
 Number of singly external CSFs:               273
 Number of doubly external CSFs:             37401
 Total number of CSFs:                       37675

 Length of J-op  integral file:               0.00 MB
 Length of K-op  integral file:               0.19 MB
 Length of 3-ext integral record:             0.00 MB

 Memory could be reduced to 0.96 Mwords without degradation in triples

 Integral transformation finished. Total CPU:   0.02 sec, npass=  1  Memory used:   0.66 MW

 Reference energy:                   -115.04895977

 MP2 singlet pair energy:              -0.21862242
 MP2 triplet pair energy:              -0.11985051
 MP2 correlation energy:               -0.33847294
 MP2 total energy:                   -115.38743271

 SCS-MP2 correlation energy:           -0.33692056   (PS=  1.200000  PT=  0.333333)
 SCS-MP2 total energy:               -115.38588034

 ITER.      SQ.NORM     CORR.ENERGY   TOTAL ENERGY   ENERGY CHANGE        DEN1      VAR(S)    VAR(P)  DIIS     TIME
   1      1.10726685    -0.36124350  -115.41020327    -0.02277056    -0.01409163  0.91D-03  0.17D-02  1  1     0.06
   2      1.11577640    -0.36318397  -115.41214374    -0.00194047    -0.00924381  0.20D-04  0.16D-03  2  2     0.10
   3      1.11765646    -0.36331091  -115.41227068    -0.00012694    -0.00120425  0.95D-05  0.86D-05  3  3     0.14
   4      1.11817172    -0.36330943  -115.41226920     0.00000148    -0.00025493  0.34D-06  0.67D-06  4  4     0.17
   5      1.11827013    -0.36330980  -115.41226958    -0.00000037    -0.00003617  0.10D-06  0.49D-07  5  5     0.21
   6      1.11828925    -0.36330843  -115.41226820     0.00000138    -0.00000435  0.16D-07  0.41D-08  6  6     0.25
   7      1.11829405    -0.36330801  -115.41226778     0.00000042    -0.00000035  0.20D-08  0.72D-09  6  1     0.29
   8      1.11829533    -0.36330811  -115.41226789    -0.00000010     0.00000075  0.26D-09  0.73D-10  6  3     0.33
   9      1.11829640    -0.36330799  -115.41226776     0.00000012    -0.00000038  0.13D-10  0.10D-10  6  2     0.37
  10      1.11829633    -0.36330799  -115.41226776    -0.00000000     0.00000007  0.11D-11  0.88D-12  6  5     0.41
  11      1.11829636    -0.36330799  -115.41226776     0.00000000    -0.00000000  0.19D-12  0.51D-13  6  4     0.45
  12      1.11829634    -0.36330799  -115.41226776    -0.00000000     0.00000001  0.19D-13  0.10D-13  6  1     0.49
  13      1.11829635    -0.36330799  -115.41226776    -0.00000000    -0.00000000  0.23D-14  0.94D-15  6  6     0.53
  14      1.11829635    -0.36330799  -115.41226776     0.00000000    -0.00000000  0.22D-15  0.12D-15  6  3     0.57
  15      1.11829635    -0.36330799  -115.41226776    -0.00000000    -0.00000000  0.25D-16  0.16D-16  6  2     0.60
  16      1.11829635    -0.36330799  -115.41226776    -0.00000000    -0.00000000  0.55D-17  0.16D-17  6  5     0.64
  17      1.11829635    -0.36330799  -115.41226776    -0.00000000    -0.00000000  0.53D-18  0.25D-18  6  4     0.68
  18      1.11829635    -0.36330799  -115.41226776     0.00000000    -0.00000000  0.81D-19  0.42D-19  6  1     0.72
  19      1.11829635    -0.36330799  -115.41226776    -0.00000000    -0.00000000  0.93D-20  0.42D-20  6  6     0.76
  20      1.11829635    -0.36330799  -115.41226776     0.00000000     0.00000000  0.13D-20  0.54D-21  6  3     0.80

 Norm of t1 vector:      0.04175221      S-energy:    -0.00000000      T1 diagnostic:  0.00789043
                                                                       D1 diagnostic:  0.01769285


 Total CPU time for triples:      0.21 sec


 RESULTS
 =======

  Reference energy                   -115.048959773754
  CCSD singlet pair energy             -0.254547360134
  CCSD triplet pair energy             -0.108760629255
  CCSD correlation energy              -0.363307989390

  Triples (T) contribution             -0.007739620099
  Total correlation energy             -0.371047609489

  CCSD total energy                  -115.412267763144
  CCSD[T] energy                     -115.420297704321
  CCSD-T energy                      -115.419857299324
 !CCSD(T) total energy               -115.420007383244

 Timing summary (sec):

 STEP                 CPU(USER)    SYS     CPU(TOT)    WALL
 Transformation          0.02      0.01      0.03      0.03
 CCSD iterations         0.78      0.03      0.81      0.85
 Triples                 0.21      0.01      0.22      0.21

 Program statistics:

 Available memory in ccsd:               999999704
 Min. memory needed in ccsd:                136801
 Max. memory used in ccsd:                  163198
 Max. memory used in cckext:                182024 (20 integral passes)



 **********************************************************************************************************************************
 DATASETS  * FILE   NREC   LENGTH (MB)   RECORD NAMES
              1      20       10.56       500      610      700      900      950      970     1000      129      960     1100   
                                          VAR    BASINP    GEOM    SYMINP    ZMAT    AOBASIS   BASIS     P2S    ABASIS      S 
                                         1400     1410     1200     1210     1080     1600     1650     1300     1700     1380   
                                           T        V       H0       H01     AOSYM     SMH    MOLCAS    ERIS     OPER     JKOP   

              2       3        0.39       700     1000     2100   
                                         GEOM     BASIS     RHF  

 PROGRAMS   *        TOTAL   CCSD(T)       RHF       INT
 CPU TIMES  *         1.34      1.02      0.09      0.19
 REAL TIME  *         1.67 SEC
 DISK USED  *        24.77 MB      
 GA USED    *         0.00 MB       (max)       0.00 MB       (current)
 **********************************************************************************************************************************

        CCSD(T)         RHF-SCF 
   -115.42000738   -115.04895977
 **********************************************************************************************************************************
 Variable memory released
