
    -----------------------------------------------------------------------
          Psi4: An Open-Source Ab Initio Electronic Structure Package
                               Psi4 1.4a2.dev629 

                         Git: Rev {master} 2938fc2 dirty


    D. G. A. Smith, L. A. Burns, A. C. Simmonett, R. M. Parrish,
    M. C. Schieber, R. Galvelis, P. Kraus, H. Kruse, R. Di Remigio,
    A. Alenaizan, A. M. James, S. Lehtola, J. P. Misiewicz, M. Scheurer,
    R. A. Shaw, J. B. Schriber, Y. Xie, Z. L. Glick, D. A. Sirianni,
    J. S. O'Brien, J. M. Waldrop, A. Kumar, E. G. Hohenstein,
    B. P. Pritchard, B. R. Brooks, H. F. Schaefer III, A. Yu. Sokolov,
    K. Patkowski, A. E. DePrince III, U. Bozkaya, R. A. King,
    F. A. Evangelista, J. M. Turney, T. D. Crawford, C. D. Sherrill,
    J. Chem. Phys. 152(18) 184108 (2020). https://doi.org/10.1063/5.0006002

                            Additional Code Authors
    E. T. Seidl, C. L. Janssen, E. F. Valeev, M. L. Leininger,
    J. F. Gonthier, R. M. Richard, H. R. McAlexander, M. Saitow, X. Wang,
    P. Verma, and M. H. Lechner

             Previous Authors, Complete List of Code Contributors,
                       and Citations for Specific Modules
    https://github.com/psi4/psi4/blob/master/codemeta.json
    https://github.com/psi4/psi4/graphs/contributors
    http://psicode.org/psi4manual/master/introduction.html#citing-psifour

    -----------------------------------------------------------------------


    Psi4 started on: Wednesday, 21 September 2022 04:22PM

    Process ID: 87687
    Host:       n071
    PSIDATADIR: /opt/psi/4/master/share/psi4
    Memory:     500.0 MiB
    Threads:    1
    
  ==> Input File <==

--------------------------------------------------------------------------
# o-Benzyne preliminary computations

memory 14 gb

molecule {
  0 1
  units bohr
 C   -1.3750722674   -0.0242788081    0.0008382290
 O    1.3060147756    0.1206919397    0.0035774666
 H   -2.0778683037    1.9096115933   -0.0013663174
 H   -2.1107397792   -0.9781494988    1.6827139215
 H   -2.1072350260   -0.9805262244   -1.6811597441
 H    1.9411764407   -1.5774811217   -0.0046119657
}

set {
  basis cc-pvtz
  reference rhf
  e_convergence 10 
  d_convergence 10
  r_convergence 8
  maxiter 300
  freeze_core True
}

e, wfn = energy('ccsd(t)', return_wfn = True)
psi4.print_out('Giraffe The Energy is %.12f \n'%(e))
--------------------------------------------------------------------------

  Memory set to  13.039 GiB by Python driver.

Scratch directory: /tmp/

*** tstart() called on n071
*** at Wed Sep 21 16:22:10 2022

   => Loading Basis Set <=

    Name: CC-PVTZ
    Role: ORBITAL
    Keyword: BASIS
    atoms 1   entry C          line   186 file /opt/psi/4/master/share/psi4/basis/cc-pvtz.gbs 
    atoms 2   entry O          line   262 file /opt/psi/4/master/share/psi4/basis/cc-pvtz.gbs 
    atoms 3-6 entry H          line    23 file /opt/psi/4/master/share/psi4/basis/cc-pvtz.gbs 


         ---------------------------------------------------------
                                   SCF
               by Justin Turney, Rob Parrish, Andy Simmonett
                          and Daniel G. A. Smith
                              RHF Reference
                        1 Threads,  13351 MiB Core
         ---------------------------------------------------------

  ==> Geometry <==

    Molecular point group: c1
    Full point group: C1

    Geometry (in Bohr), charge = 0, multiplicity = 1:

       Center              X                  Y                   Z               Mass       
    ------------   -----------------  -----------------  -----------------  -----------------
         C           -1.375071816007    -0.024273767010    -0.001123329581    12.000000000000
         O            1.306015226993     0.120696980790     0.001615908019    15.994914619570
         H           -2.077867852307     1.909616634390    -0.003327875981     1.007825032230
         H           -2.110739327807    -0.978144457710     1.680752362919     1.007825032230
         H           -2.107234574607    -0.980521183310    -1.683121302681     1.007825032230
         H            1.941176892093    -1.577476080610    -0.006573524281     1.007825032230

  Running in c1 symmetry.

  Rotational constants: A =      4.28208  B =      0.82705  C =      0.79795 [cm^-1]
  Rotational constants: A = 128373.40352  B =  24794.35654  C =  23922.01009 [MHz]
  Nuclear repulsion =   40.307755672524685

  Charge       = 0
  Multiplicity = 1
  Electrons    = 18
  Nalpha       = 9
  Nbeta        = 9

  ==> Algorithm <==

  SCF Algorithm Type is PK.
  DIIS enabled.
  MOM disabled.
  Fractional occupation disabled.
  Guess Type is SAD.
  Energy threshold   = 1.00e-10
  Density threshold  = 1.00e-10
  Integral threshold = 0.00e+00

  ==> Primary Basis <==

  Basis Set: CC-PVTZ
    Blend: CC-PVTZ
    Number of shells: 44
    Number of basis function: 116
    Number of Cartesian functions: 130
    Spherical Harmonics?: true
    Max angular momentum: 3

  ==> Integral Setup <==

  Using in-core PK algorithm.
   Calculation information:
      Number of atoms:                   6
      Number of AO shells:              44
      Number of primitives:             84
      Number of atomic orbitals:       130
      Number of basis functions:       116

      Integral cutoff                 1.00e-12
      Number of threads:                 1

  Performing in-core PK
  Using 46056582 doubles for integral storage.
  We computed 490475 shell quartets total.
  Whereas there are 490545 unique shell quartets.

  ==> DiskJK: Disk-Based J/K Matrices <==

    J tasked:                  Yes
    K tasked:                  Yes
    wK tasked:                  No
    Memory [MiB]:            10013
    Schwarz Cutoff:          1E-12

    OpenMP threads:              1

  Minimum eigenvalue in the overlap matrix is 1.8504407748E-03.
  Reciprocal condition number of the overlap matrix is 2.7981568571E-04.
    Using symmetric orthogonalization.

  ==> Pre-Iterations <==

  SCF Guess: Superposition of Atomic Densities via on-the-fly atomic UHF (no occupation information).

   -------------------------
    Irrep   Nso     Nmo    
   -------------------------
     A        116     116 
   -------------------------
    Total     116     116
   -------------------------

  ==> Iterations <==

                        Total Energy        Delta E     RMS |[F,P]|

   @RHF iter SAD:  -114.41439481111428   -1.14414e+02   0.00000e+00 
   @RHF iter   1:  -115.01448542492979   -6.00091e-01   3.41257e-03 DIIS
   @RHF iter   2:  -115.07131142189004   -5.68260e-02   1.95511e-03 DIIS
   @RHF iter   3:  -115.08815171889026   -1.68403e-02   3.00935e-04 DIIS
   @RHF iter   4:  -115.08903601715726   -8.84298e-04   8.77548e-05 DIIS
   @RHF iter   5:  -115.08910950944392   -7.34923e-05   2.14377e-05 DIIS
   @RHF iter   6:  -115.08911437115054   -4.86171e-06   4.73777e-06 DIIS
   @RHF iter   7:  -115.08911473871017   -3.67560e-07   1.09821e-06 DIIS
   @RHF iter   8:  -115.08911476023682   -2.15267e-08   2.26669e-07 DIIS
   @RHF iter   9:  -115.08911476114518   -9.08358e-10   4.21331e-08 DIIS
   @RHF iter  10:  -115.08911476117514   -2.99565e-11   1.08653e-08 DIIS
   @RHF iter  11:  -115.08911476117719   -2.04636e-12   2.22842e-09 DIIS
   @RHF iter  12:  -115.08911476117731   -1.27898e-13   3.98687e-10 DIIS
   @RHF iter  13:  -115.08911476117714    1.70530e-13   7.35302e-11 DIIS
  Energy and wave function converged.


  ==> Post-Iterations <==

    Orbital Energies [Eh]
    ---------------------

    Doubly Occupied:                                                      

       1A    -20.552620     2A    -11.269754     3A     -1.354102  
       4A     -0.923076     5A     -0.687873     6A     -0.617659  
       7A     -0.590047     8A     -0.502057     9A     -0.449146  

    Virtual:                                                              

      10A      0.138409    11A      0.178612    12A      0.220168  
      13A      0.223731    14A      0.290536    15A      0.386809  
      16A      0.404483    17A      0.544501    18A      0.583151  
      19A      0.623034    20A      0.625001    21A      0.637994  
      22A      0.689881    23A      0.703319    24A      0.720936  
      25A      0.833279    26A      0.864638    27A      0.872110  
      28A      0.927873    29A      1.067827    30A      1.100401  
      31A      1.177510    32A      1.189288    33A      1.261333  
      34A      1.272491    35A      1.281866    36A      1.365213  
      37A      1.446635    38A      1.491714    39A      1.521773  
      40A      1.544732    41A      1.582028    42A      1.619397  
      43A      1.772877    44A      2.092316    45A      2.179921  
      46A      2.196953    47A      2.299757    48A      2.322920  
      49A      2.489946    50A      2.511181    51A      2.578304  
      52A      2.805044    53A      2.949583    54A      3.054986  
      55A      3.108514    56A      3.115323    57A      3.145090  
      58A      3.222185    59A      3.242298    60A      3.312525  
      61A      3.313795    62A      3.342106    63A      3.384099  
      64A      3.499489    65A      3.612507    66A      3.633443  
      67A      3.698498    68A      3.705928    69A      3.743810  
      70A      3.759964    71A      3.813651    72A      3.835713  
      73A      3.904100    74A      4.010072    75A      4.028110  
      76A      4.117256    77A      4.159421    78A      4.168520  
      79A      4.245982    80A      4.254611    81A      4.285308  
      82A      4.396842    83A      4.435185    84A      4.463769  
      85A      4.555104    86A      4.579114    87A      4.709664  
      88A      4.780192    89A      4.991173    90A      5.030308  
      91A      5.050149    92A      5.199030    93A      5.264674  
      94A      5.309283    95A      5.365983    96A      5.435044  
      97A      5.538705    98A      5.541603    99A      5.557629  
     100A      5.784727   101A      5.943464   102A      6.187783  
     103A      6.205960   104A      6.243004   105A      6.423809  
     106A      6.635542   107A      6.994317   108A      7.125667  
     109A      7.175975   110A      7.235878   111A      7.352374  
     112A      7.428142   113A      7.594451   114A      7.907706  
     115A     12.127736   116A     13.687643  

    Final Occupation by Irrep:
              A 
    DOCC [     9 ]

  @RHF Final Energy:  -115.08911476117714

   => Energetics <=

    Nuclear Repulsion Energy =             40.3077556725246851
    One-Electron Energy =                -236.9010734790907406
    Two-Electron Energy =                  81.5042030453889197
    Total Energy =                       -115.0891147611771430

Computation Completed


Properties will be evaluated at   0.000000,   0.000000,   0.000000 [a0]

Properties computed using the SCF density matrix

  Nuclear Dipole Moment: [e a0]
     X:    -2.1570      Y:    -0.8066      Z:    -0.0061

  Electronic Dipole Moment: [e a0]
     X:     1.7698      Y:     0.2184      Z:     0.0025

  Dipole Moment: [e a0]
     X:    -0.3872      Y:    -0.5882      Z:    -0.0036     Total:     0.7042

  Dipole Moment: [D]
     X:    -0.9842      Y:    -1.4950      Z:    -0.0091     Total:     1.7899


*** tstop() called on n071 at Wed Sep 21 16:22:15 2022
Module time:
	user time   =       4.63 seconds =       0.08 minutes
	system time =       0.08 seconds =       0.00 minutes
	total time  =          5 seconds =       0.08 minutes
Total time:
	user time   =       4.63 seconds =       0.08 minutes
	system time =       0.08 seconds =       0.00 minutes
	total time  =          5 seconds =       0.08 minutes
 MINTS: Wrapper to libmints.
   by Justin Turney

   Calculation information:
      Number of threads:                 1
      Number of atoms:                   6
      Number of AO shells:              44
      Number of SO shells:              44
      Number of primitives:             84
      Number of atomic orbitals:       130
      Number of basis functions:       116

      Number of irreps:                  1
      Integral cutoff                 0.00e+00
      Number of functions per irrep: [ 116 ]

 OEINTS: Overlap, kinetic, potential, dipole, and quadrupole integrals
         stored in file 35.

      Computing two-electron integrals...done
      Computed 22873534 non-zero two-electron integrals.
        Stored in file 33.


*** tstart() called on n071
*** at Wed Sep 21 16:22:17 2022


	Wfn Parameters:
	--------------------
	Wavefunction         = CCSD_T
	Number of irreps     = 1
	Number of MOs        = 116
	Number of active MOs = 114
	AO-Basis             = NONE
	Semicanonical        = false
	Reference            = RHF
	Print Level          = 1

	IRREP	# MOs	# FZDC	# DOCC	# SOCC	# VIRT	# FZVR
	-----	-----	------	------	------	------	------
	 A	   116	    2	    7	    0	    107	    0
	Transforming integrals...
	IWL integrals will be deleted.
	(OO|OO)...
	Presorting SO-basis two-electron integrals.
	Sorting File: SO Ints (nn|nn) nbuckets = 1
	Transforming the one-electron integrals and constructing Fock matrices
	Starting first half-transformation.
	Sorting half-transformed integrals.
	First half integral transformation complete.
	Starting second half-transformation.
	Two-electron integral transformation complete.
	(OO|OV)...
	Starting second half-transformation.
	Two-electron integral transformation complete.
	(OO|VV)...
	Starting second half-transformation.
	Two-electron integral transformation complete.
	(OV|OO)...
	Starting first half-transformation.
	Sorting half-transformed integrals.
	First half integral transformation complete.
	Starting second half-transformation.
	Two-electron integral transformation complete.
	(OV|OV)...
	Starting second half-transformation.
	Two-electron integral transformation complete.
	(OV|VV)...
	Starting second half-transformation.
	Two-electron integral transformation complete.
	(VV|OO)...
	Starting first half-transformation.
	Sorting half-transformed integrals.
	First half integral transformation complete.
	Starting second half-transformation.
	Two-electron integral transformation complete.
	(VV|OV)...
	Starting second half-transformation.
	Two-electron integral transformation complete.
	(VV|VV)...
	Starting second half-transformation.
	Two-electron integral transformation complete.
	Frozen core energy     =   -106.48984452580720

	Size of irrep 0 of <ab|cd> integrals:    131.080 (MW) /   1048.637 (MB)
	Total:                                   131.080 (MW) /   1048.637 (MB)

	Size of irrep 0 of <ia|bc> integrals:      8.575 (MW) /     68.602 (MB)
	Total:                                     8.575 (MW) /     68.602 (MB)

	Size of irrep 0 of tijab amplitudes:       0.561 (MW) /      4.488 (MB)
	Total:                                     0.561 (MW) /      4.488 (MB)

	Nuclear Rep. energy          =     40.30775567252469
	SCF energy                   =   -115.08911476117714
	One-electron energy          =    -87.56613204986033
	Two-electron energy          =     38.65910614196576
	Reference energy             =   -115.08911476117709

*** tstop() called on n071 at Wed Sep 21 16:22:29 2022
Module time:
	user time   =       8.43 seconds =       0.14 minutes
	system time =       3.14 seconds =       0.05 minutes
	total time  =         12 seconds =       0.20 minutes
Total time:
	user time   =      14.67 seconds =       0.24 minutes
	system time =       3.38 seconds =       0.06 minutes
	total time  =         19 seconds =       0.32 minutes
            **************************
            *                        *
            *        CCENERGY        *
            *                        *
            **************************

    Nuclear Rep. energy (wfn)     =   40.307755672524685
    SCF energy          (wfn)     = -115.089114761177143
    Reference energy    (file100) = -115.089114761177086

    Input parameters:
    -----------------
    Wave function   =     CCSD_T
    Reference wfn   =     RHF
    Brueckner       =     No
    Memory (Mbytes) =     14000.0
    Maxiter         =    300
    R_Convergence   =     1.0e-08
    E_Convergence   =     1.0e-10
    Restart         =     Yes
    DIIS            =     Yes
    AO Basis        =     NONE
    ABCD            =     NEW
    Cache Level     =     2
    Cache Type      =     LOW
    Print Level     =     1
    Num. of threads =     1
    # Amps to Print =     10
    Print MP2 Amps? =     No
    Analyze T2 Amps =     No
    Print Pair Ener =     No
    Local CC        =     No
    SCS-MP2         =     False
    SCSN-MP2        =     False
    SCS-CCSD        =     False

MP2 correlation energy -0.4283342086623930
                Solving CC Amplitude Equations
                ------------------------------
  Iter             Energy              RMS        T1Diag      D1Diag    New D1Diag    D2Diag
  ----     ---------------------    ---------   ----------  ----------  ----------   --------
     0        -0.428334208662393    0.000e+00    0.000000    0.000000    0.000000    0.128386
     1        -0.435619551091293    4.785e-02    0.007307    0.014794    0.014794    0.129725
     2        -0.445454309344440    1.576e-02    0.007423    0.014729    0.014729    0.135515
     3        -0.446925504906706    5.532e-03    0.008330    0.016878    0.016878    0.136962
     4        -0.446833707661350    1.221e-03    0.008390    0.016994    0.016994    0.137198
     5        -0.446876600380025    4.460e-04    0.008429    0.017140    0.017140    0.137301
     6        -0.446884108011476    1.283e-04    0.008440    0.017197    0.017197    0.137309
     7        -0.446881615550146    4.759e-05    0.008443    0.017214    0.017214    0.137306
     8        -0.446881643499309    1.752e-05    0.008444    0.017224    0.017224    0.137306
     9        -0.446881726776537    4.965e-06    0.008445    0.017226    0.017226    0.137306
    10        -0.446881476438863    1.573e-06    0.008445    0.017226    0.017226    0.137305
    11        -0.446881541881928    4.897e-07    0.008445    0.017226    0.017226    0.137306
    12        -0.446881527072923    1.201e-07    0.008445    0.017226    0.017226    0.137306
    13        -0.446881530564387    4.351e-08    0.008445    0.017226    0.017226    0.137306
    14        -0.446881531779368    1.232e-08    0.008445    0.017226    0.017226    0.137306
    15        -0.446881531819845    5.141e-09    0.008445    0.017226    0.017226    0.137306
    16        -0.446881531842770    1.585e-09    0.008445    0.017226    0.017226    0.137306

    Iterations converged.


    Largest TIA Amplitudes:
              3   6        -0.0081344133
              3  14        -0.0076002471
              6  14         0.0067282393
              3   9        -0.0067219307
              4   7         0.0058764163
              5   8         0.0058199796
              4   3        -0.0057808601
              6   6         0.0054854952
              3   2        -0.0054843790
              4   5        -0.0051545460

    Largest TIjAb Amplitudes:
      3   3   9   9        -0.0231257627
      4   4   7   7        -0.0215783929
      6   6  14  14        -0.0210965618
      5   5  12  12        -0.0203805973
      2   2   7   7        -0.0190548597
      4   4   8   8        -0.0160901764
      3   3  14  14        -0.0151792550
      3   3   2   9        -0.0151130620
      3   3   9   2        -0.0151130620
      3   6   9   9        -0.0150205825

    SCF energy       (wfn)                    = -115.089114761177143
    Reference energy (file100)                = -115.089114761177086

    Opposite-spin MP2 correlation energy      =   -0.330131588866974
    Same-spin MP2 correlation energy          =   -0.098202619795419
    Singles MP2 correlation energy            =   -0.000000000000000
    MP2 correlation energy                    =   -0.428334208662393
      * MP2 total energy                      = -115.517448969839478

    Opposite-spin CCSD correlation energy     =   -0.357718804701350
    Same-spin CCSD correlation energy         =   -0.089162727141420
    Singles CCSD correlation energy           =    0.000000000000000
    CCSD correlation energy                   =   -0.446881531842770
      * CCSD total energy                     = -115.535996293019849

            **************************
            *                        *
            *        CCTRIPLES       *
            *                        *
            **************************


    Wave function   =    CCSD_T
    Reference wfn   =      RHF

    Nuclear Rep. energy (wfn)                =   40.307755672524685
    SCF energy          (wfn)                = -115.089114761177143
    Reference energy    (file100)            = -115.089114761177086
    CCSD energy         (file100)            =   -0.446881531842770
    Total CCSD energy   (file100)            = -115.535996293019849

    Number of ijk index combinations:               84
    Memory available in words        :      1750000000
    ~Words needed per explicit thread:         4900172
    Number of threads for explicit ijk threading:    1

    MKL num_threads set to 1 for explicit threading.

    (T) energy                                =   -0.014790158384487
      * CCSD(T) total energy                  = -115.550786451404349

Giraffe The Energy is -115.550786451404 

    Psi4 stopped on: Wednesday, 21 September 2022 04:23PM
    Psi4 wall time for execution: 0:00:50.94

*** Psi4 exiting successfully. Buy a developer a beer!
