
 Working directory              : /scratch/mel64643/tmp/40073403/
 Global scratch directory       : /scratch/mel64643/tmp/40073403/
 Wavefunction directory         : /home/mel64643/wfu/
 Main file repository           : /scratch/mel64643/tmp/40073403/

 id        : ccgc

 Nodes     nprocs
 a1-8         3
 Distribution of processes:   nprocs(total)=    4   nprocs(compute)=    3   nprocs(helper)=    1
 GA implementation: MPI file
 GA implementation (serial work in mppx): MPI file

 Using customized tuning parameters: mindgm=1; mindgv=20; mindgc=4; mindgr=1; noblas=0; minvec=7
 default implementation of scratch files=sf  


 Variables initialized (1015), CPU time= 0.01 sec
 ***,Optimization of min3
 memory,1000,m
 gthresh,energy=1.0d-12,orbital=1.0d-10,oneint=1.0d-16,twoint=1.0d-16,optgrad=1.0d-6,compress=1.0d-13
 geomtyp=xyz
 
  bohr
  geometry = {
  6
  arbitrary comment
  C   -1.3733029397   -0.0242255808   -0.0027854899
  O    1.3090983040    0.1217819226   -0.0003844008
  H   -2.0778924289    1.9197907576   -0.0091010137
  H   -2.1123717180   -0.9937292465    1.6979552188
  H   -2.1085339068   -0.9767797563   -1.6849990441
  H    1.9392785294   -1.5769702166   -0.0006936803
 }
 
 basis=cc-pvdz
 {rhf;maxit,200}
 {ccsd(t);maxit,200}
 Commands initialized (818), CPU time= 0.00 sec, 672 directives.
 Default parameters read. Elapsed time= 0.09 sec

 Checking input...
 Passed
1


                                         ***  PROGRAM SYSTEM MOLPRO  ***
                                       Copyright, TTI GmbH Stuttgart, 2015
                                    Version 2022.1 linked Mar  4 2022 00:40:14


 **********************************************************************************************************************************
 LABEL *   Optimization of min3                                                          
  64 bit mpp version                                                                     DATE: 07-Aug-25          TIME: 21:26:55  
 **********************************************************************************************************************************

 SHA1:             31073afc4d8441e10870424e0d77336a33bc4286
 **********************************************************************************************************************************

 Memory per process:      1000 MW
 Total memory per node:   3000 MW

 GA preallocation disabled
 GA check disabled

 Variable memory set to 1000.0 MW


 THRESHOLDS:

 ZERO    =  1.00D-12  ONEINT  =  1.00D-16  TWOINT  =  1.00D-16  PREFAC  =  1.00D-14  XXXXXX  =  1.00D-09  EORDER  =  1.00D-04
 ENERGY  =  1.00D-12  ETEST   =  0.00D+00  EDENS   =  0.00D+00  THRDEDEF=  1.00D-06  GRADIENT=  1.00D-05  STEP    =  1.00D-03
 ORBITAL =  1.00D-10  CIVEC   =  1.00D-05  COEFF   =  1.00D-04  PRINTCI =  5.00D-02  PUNCHCI =  9.90D+01  OPTGRAD =  1.00D-06
 OPTENERG=  1.00D-06  OPTSTEP =  3.00D-04  THRGRAD =  1.00D-10  COMPRESS=  1.00D-13  VARMIN  =  1.00D-07  VARMAX  =  1.00D-03
 THRDOUB =  0.00D+00  THRDIV  =  1.00D-05  THRRED  =  1.00D-07  THRPSP  =  1.00D+00  THRDC   =  1.00D-10  THRCS   =  1.00D-10
 THRNRM  =  1.00D-08  THREQ   =  0.00D+00  THRDE   =  1.00D+00  THRREF  =  1.00D-05  SPARFAC =  1.00D+00  THRDLP  =  1.00D-07
 THRDIA  =  1.00D-10  THRDLS  =  1.00D-07  THRGPS  =  0.00D+00  THRKEX  =  0.00D+00  THRDIS  =  2.00D-01  THRVAR  =  1.00D-10
 THRLOC  =  1.00D-06  THRGAP  =  1.00D-06  THRLOCT = -1.00D+00  THRGAPT = -1.00D+00  THRORB  =  1.00D-06  THRMLTP =  0.00D+00
 THRCPQCI=  1.00D-10  KEXTA   =  0.00D+00  THRCOARS=  0.00D+00  SYMTOL  =  1.00D-06  GRADTOL =  1.00D-06  THROVL  =  1.00D-08
 THRORTH =  1.00D-08  THRDLOVL= -1.00D+00  GRID    =  1.00D-06  GRIDMAX =  1.00D-03  DTMAX   =  0.00D+00  THROCCDE=  1.00D-01
 THROCCDE=  1.00D-01  THRPRINT=  2.50D-01

 SETTING GEOMTYP        =    XYZ
 ZUNIT=BOHR

 SETTING BASIS          =    CC-PVDZ


 Recomputing integrals since basis changed


 Using spherical harmonics

 Library entry C      S cc-pVDZ              selected for orbital group  1
 Library entry C      P cc-pVDZ              selected for orbital group  1
 Library entry C      D cc-pVDZ              selected for orbital group  1
 Library entry O      S cc-pVDZ              selected for orbital group  2
 Library entry O      P cc-pVDZ              selected for orbital group  2
 Library entry O      D cc-pVDZ              selected for orbital group  2
 Library entry H      S cc-pVDZ              selected for orbital group  3
 Library entry H      P cc-pVDZ              selected for orbital group  3


 PROGRAM * SEWARD (Integral evaluation for generally contracted gaussian basis sets)     Author: Roland Lindh, 1990

 Geometry written to block  1 of record 700


 Point group  C1  



 ATOMIC COORDINATES

 NR  ATOM    CHARGE       X              Y              Z

   1  C       6.00   -1.373302940   -0.024225581   -0.002785490
   2  O       8.00    1.309098304    0.121781923   -0.000384401
   3  H       1.00   -2.077892429    1.919790758   -0.009101014
   4  H       1.00   -2.112371718   -0.993729247    1.697955219
   5  H       1.00   -2.108533907   -0.976779756   -1.684999044
   6  H       1.00    1.939278529   -1.576970217   -0.000693680

 Bond lengths in Bohr (Angstrom)

 1-2  2.686373092  1-3  2.067773140  1-4  2.092529325  1-5  2.068276208  2-6  1.811873628
     ( 1.421567420)     ( 1.094218423)     ( 1.107318832)     ( 1.094484635)     ( 0.958802233)

 Bond angles

  1-2-6  107.23752398   2-1-3  106.80699452   2-1-4  112.15584357   2-1-5  112.37786264

  3-1-4  108.52505305   3-1-5  108.02169179   4-1-5  108.79126160

 NUCLEAR CHARGE:                   18
 NUMBER OF PRIMITIVE AOS:          82
 NUMBER OF SYMMETRY AOS:           80
 NUMBER OF CONTRACTIONS:           48   (   48A   )
 NUMBER OF INNER CORE ORBITALS:     0   (    0A   )
 NUMBER OF OUTER CORE ORBITALS:     2   (    2A   )
 NUMBER OF VALENCE ORBITALS:       12   (   12A   )


 NUCLEAR REPULSION ENERGY   40.23724341

 Eigenvalues of metric

         1 0.970E-02 0.177E-01 0.372E-01 0.383E-01 0.384E-01 0.477E-01 0.492E-01 0.521E-01


 Contracted 2-electron integrals neglected if value below      1.0D-16
 AO integral compression algorithm  1   Integral accuracy      1.0D-16

     7.340 MB (compressed) written to integral file (100.0%)

     Node minimum: 2.359 MB, node maximum: 2.621 MB


 NUMBER OF SORTED TWO-ELECTRON INTEGRALS:     231084.     BUFFER LENGTH:  32768
 NUMBER OF SEGMENTS:   1  SEGMENT LENGTH:     231084      RECORD LENGTH: 524288

 Memory used in sort:       0.79 MW

 SORT1 READ      832256. AND WROTE      227683. INTEGRALS IN      1 RECORDS. CPU TIME:     0.00 SEC, REAL TIME:     0.04 SEC
 SORT2 READ      682150. AND WROTE      692076. INTEGRALS IN     27 RECORDS. CPU TIME:     0.02 SEC, REAL TIME:     0.02 SEC

 Node minimum:      230300.  Node maximum:      231084. integrals

 OPERATOR DM      FOR CENTER  0  COORDINATES:    0.000000    0.000000    0.000000


 **********************************************************************************************************************************
 DATASETS  * FILE   NREC   LENGTH (MB)   RECORD NAMES
              1      18       28.73       500      610      700      900      950      970     1000      129      960     1100   
                                          VAR    BASINP    GEOM    SYMINP    ZMAT    AOBASIS   BASIS     P2S    ABASIS      S 
                                         1400     1410     1200     1210     1080     1600     1650     1700   
                                           T        V       H0       H01     AOSYM     SMH    MOLCAS    OPER   

 PROGRAMS   *        TOTAL       INT
 CPU TIMES  *         0.39      0.26
 REAL TIME  *         1.31 SEC
 DISK USED  *        29.07 MB (local),      104.69 MB (total)
 GA USED    *         0.00 MB       (max)       0.00 MB       (current)
 **********************************************************************************************************************************


 Program * Restricted Hartree-Fock

 Orbital guess generated from atomic densities. Full valence occupancy:   14

 Initial occupancy:   9

 NELEC=   18   SYM=1   MS2= 0   THRE=1.0D-12   THRD=1.0D-10   THRG=1.0D-10  HFMA2=F  DIIS_START=2   DIIS_MAX=10   DIIS_INCORE=F

 Level shifts:    0.00 (CLOSED)    0.00 (OPEN)    0.30 (GAP_MIN)

 ITER           ETOT              DE          GRAD        DDIFF     DIIS  NEXP   TIME(IT)  TIME(TOT)  DIAG
   1     -115.01400352    -115.01400352     0.00D+00     0.16D+00     0     0       0.00      0.00    start
   2     -115.04238118      -0.02837766     0.10D-01     0.21D-01     1     0       0.01      0.01    diag
   3     -115.04847561      -0.00609442     0.49D-02     0.64D-02     2     0       0.00      0.01    diag
   4     -115.04893885      -0.00046324     0.10D-02     0.20D-02     3     0       0.00      0.01    diag
   5     -115.04895985      -0.00002100     0.18D-03     0.43D-03     4     0       0.00      0.01    diag
   6     -115.04896064      -0.00000079     0.32D-04     0.92D-04     5     0       0.02      0.03    diag
   7     -115.04896067      -0.00000003     0.65D-05     0.15D-04     6     0       0.00      0.03    diag
   8     -115.04896068      -0.00000000     0.21D-05     0.47D-05     7     0       0.00      0.03    fixocc
   9     -115.04896068      -0.00000000     0.44D-06     0.14D-05     8     0       0.00      0.03    diag
  10     -115.04896068      -0.00000000     0.69D-07     0.23D-06     9     0       0.00      0.03    diag/orth
  11     -115.04896068      -0.00000000     0.16D-07     0.44D-07     9     0       0.01      0.04    diag
  12     -115.04896068       0.00000000     0.42D-08     0.13D-07     9     0       0.00      0.04    diag
  13     -115.04896068      -0.00000000     0.70D-09     0.19D-08     9     0       0.00      0.04    diag
  14     -115.04896068       0.00000000     0.16D-09     0.42D-09     9     0       0.00      0.04    diag
  15     -115.04896068       0.00000000     0.67D-10     0.13D-09     9     0       0.00      0.04    diag
  16     -115.04896068      -0.00000000     0.20D-10     0.47D-10     9     0       0.01      0.05    diag
  17     -115.04896068       0.00000000     0.51D-11     0.84D-11     0     0       0.00      0.05    diag

 Final occupancy:   9

 !RHF STATE 1.1 Energy               -115.048960676927
  RHF One-electron energy            -236.740641060158
  RHF Two-electron energy              81.454436973608
  RHF Kinetic energy                  114.917793822591
  RHF Nuclear energy                   40.237243409623
  RHF Virial quotient                  -1.001141397254

 !RHF STATE 1.1 Dipole moment          -0.39190564    -0.59443682    -0.00589447
 Dipole moment /Debye                  -0.99612477    -1.51090769    -0.01498225

 Orbital energies:

           1.1          2.1          3.1          4.1          5.1          6.1          7.1          8.1          9.1         10.1
    -20.550391   -11.276851    -1.350220    -0.919460    -0.682536    -0.612533    -0.584224    -0.496792    -0.442877     0.184176

          11.1
      0.224136


 HOMO      9.1    -0.442877 =     -12.0513eV
 LUMO     10.1     0.184176 =       5.0117eV
 LUMO-HOMO         0.627053 =      17.0630eV

 Orbitals saved in record  2100.2


 **********************************************************************************************************************************
 DATASETS  * FILE   NREC   LENGTH (MB)   RECORD NAMES
              1      18       28.73       500      610      700      900      950      970     1000      129      960     1100   
                                          VAR    BASINP    GEOM    SYMINP    ZMAT    AOBASIS   BASIS     P2S    ABASIS      S 
                                         1400     1410     1200     1210     1080     1600     1650     1700   
                                           T        V       H0       H01     AOSYM     SMH    MOLCAS    OPER   

              2       4        0.47       700     1000      520     2100   
                                         GEOM     BASIS   MCVARS     RHF  

 PROGRAMS   *        TOTAL   RHF-SCF       INT
 CPU TIMES  *         0.44      0.05      0.26
 REAL TIME  *         1.54 SEC
 DISK USED  *        29.40 MB (local),      105.68 MB (total)
 GA USED    *         0.00 MB       (max)       0.00 MB       (current)
 **********************************************************************************************************************************


 PROGRAM * CCSD (Closed-shell coupled cluster)     Authors: C. Hampel, H.-J. Werner, 1991, M. Deegan, P.J. Knowles, 1992


 Convergence thresholds:  THRVAR = 1.00D-08  THRDEN = 1.00D-12

 CCSD(T)     terms to be evaluated (factor= 1.000)


 Number of core orbitals:           2 (   2 )
 Number of closed-shell orbitals:   7 (   7 )
 Number of external orbitals:      39 (  39 )

 Molecular orbitals read from record     2100.2  Type=RHF/CANONICAL  

 Number of N-1 electron functions:               7
 Number of N-2 electron functions:              28
 Number of singly external CSFs:               273
 Number of doubly external CSFs:             37401
 Total number of CSFs:                       37675

 Length of J-op  integral file:               0.00 MB
 Length of K-op  integral file:               0.16 MB
 Length of 3-ext integral record:             0.00 MB

 Memory could be reduced to 0.73 Mwords without degradation in triples

 Integral transformation finished. Total CPU:   0.01 sec, npass=  1  Memory used:   0.66 MW

 Reference energy:                   -115.04896068

 MP2 singlet pair energy:              -0.21890095
 MP2 triplet pair energy:              -0.11987644
 MP2 correlation energy:               -0.33877739
 MP2 total energy:                   -115.38773807

 SCS-MP2 correlation energy:           -0.33727093   (PS=  1.200000  PT=  0.333333)
 SCS-MP2 total energy:               -115.38623160

 ITER.      SQ.NORM     CORR.ENERGY   TOTAL ENERGY   ENERGY CHANGE        DEN1      VAR(S)    VAR(P)  DIIS     TIME  TIME/IT
   1      1.10770736    -0.36161255  -115.41057322    -0.02283516    -0.01411007  0.92D-03  0.18D-02  1  1     0.05     0.04
   2      1.11631108    -0.36357231  -115.41253299    -0.00195976    -0.00929319  0.20D-04  0.16D-03  2  2     0.07     0.04
   3      1.11822455    -0.36370243  -115.41266311    -0.00013013    -0.00121926  0.96D-05  0.88D-05  3  3     0.09     0.04
   4      1.11874927    -0.36370114  -115.41266182     0.00000129    -0.00025881  0.34D-06  0.69D-06  4  4     0.11     0.04
   5      1.11884950    -0.36370159  -115.41266227    -0.00000045    -0.00003667  0.10D-06  0.51D-07  5  5     0.13     0.03
   6      1.11886900    -0.36370023  -115.41266090     0.00000136    -0.00000449  0.16D-07  0.42D-08  6  6     0.15     0.03
   7      1.11887378    -0.36369980  -115.41266048     0.00000043    -0.00000035  0.20D-08  0.73D-09  6  1     0.16     0.04
   8      1.11887505    -0.36369990  -115.41266058    -0.00000010     0.00000075  0.26D-09  0.73D-10  6  3     0.19     0.04
   9      1.11887614    -0.36369978  -115.41266045     0.00000013    -0.00000039  0.13D-10  0.11D-10  6  2     0.21     0.03
  10      1.11887606    -0.36369978  -115.41266046    -0.00000000     0.00000007  0.11D-11  0.90D-12  6  5     0.23     0.04
  11      1.11887610    -0.36369978  -115.41266045     0.00000000    -0.00000000  0.19D-12  0.52D-13  6  4     0.25     0.03
  12      1.11887608    -0.36369978  -115.41266046    -0.00000000     0.00000001  0.20D-13  0.10D-13  6  1     0.26     0.03
  13      1.11887608    -0.36369978  -115.41266046    -0.00000000    -0.00000000  0.28D-14  0.99D-15  6  6     0.28     0.03
  14      1.11887608    -0.36369978  -115.41266046     0.00000000    -0.00000000  0.32D-15  0.14D-15  6  3     0.30     0.03
  15      1.11887608    -0.36369978  -115.41266046    -0.00000000    -0.00000000  0.51D-16  0.20D-16  6  2     0.32     0.03
  16      1.11887608    -0.36369978  -115.41266046    -0.00000000    -0.00000000  0.75D-17  0.20D-17  6  4     0.34     0.03
  17      1.11887608    -0.36369978  -115.41266046    -0.00000000    -0.00000000  0.17D-17  0.27D-18  6  5     0.36     0.03
  18      1.11887608    -0.36369978  -115.41266046     0.00000000    -0.00000000  0.44D-18  0.93D-19  6  1     0.38     0.03
  19      1.11887608    -0.36369978  -115.41266046     0.00000000    -0.00000000  0.41D-19  0.11D-19  6  6     0.40     0.03
  20      1.11887608    -0.36369978  -115.41266046     0.00000000     0.00000000  0.32D-20  0.16D-20  6  3     0.42     0.03

 Norm of t1 vector:      0.04183076      S-energy:    -0.00000000      T1 diagnostic:  0.00790527
                                                                       D1 diagnostic:  0.01750646
                                                                       D2 diagnostic:  0.13468057 (internal)


 Total CPU time for triples:      0.08 sec


 RESULTS
 =======

  Reference energy                   -115.048960676928
  CCSD singlet pair energy             -0.254971500485
  CCSD triplet pair energy             -0.108728277935
  CCSD correlation energy              -0.363699778420

  Triples (T) contribution             -0.007775360213
  Total correlation energy             -0.371475138634

  CCSD total energy                  -115.412660455348
  CCSD[T] energy                     -115.420729422521
  CCSD-T energy                      -115.420283954087
 !CCSD(T) total energy               -115.420435815561

 Timing summary (sec):

 STEP                 CPU(USER)    SYS     CPU(TOT)    WALL
 Transformation          0.01      0.01      0.02      0.04
 CCSD iterations         0.41      0.06      0.47      0.67
 Triples                 0.08      0.01      0.09      0.08

 Program statistics:

 Available memory in ccsd:               999999795
 Min. memory needed in ccsd:                136177
 Max. memory used in ccsd:                  162910
 Max. memory used in cckext:                178997 (20 integral passes)



 **********************************************************************************************************************************
 DATASETS  * FILE   NREC   LENGTH (MB)   RECORD NAMES
              1      19       31.13       500      610      700      900      950      970     1000      129      960     1100   
                                          VAR    BASINP    GEOM    SYMINP    ZMAT    AOBASIS   BASIS     P2S    ABASIS      S 
                                         1400     1410     1200     1210     1080     1600     1650     1700     1380   
                                           T        V       H0       H01     AOSYM     SMH    MOLCAS    OPER     JKOP   

              2       4        0.47       700     1000      520     2100   
                                         GEOM     BASIS   MCVARS     RHF  

 PROGRAMS   *        TOTAL   CCSD(T)   RHF-SCF       INT
 CPU TIMES  *         0.97      0.53      0.05      0.26
 REAL TIME  *         2.39 SEC
 DISK USED  *        35.56 MB (local),      116.33 MB (total)
 SF USED    *         5.97 MB
 GA USED    *         0.00 MB       (max)       0.00 MB       (current)
 **********************************************************************************************************************************

 CCSD(T)/cc-pVDZ energy=   -115.420435815561

         CCSD(T)         RHF-SCF
   -115.42043582   -115.04896068
 **********************************************************************************************************************************
 Molpro calculation terminated
