
 Primary working directories    : /tmp/601555.137.gen4.q
 Secondary working directories  : /tmp/601555.137.gen4.q
 Wavefunction directory         : /home/vulcan/mel64643/wfu/
 Main file repository           : /tmp/601555.137.gen4.q/

 ARCHNAME  : Linux/x86_64
 FC        : /opt/intel/compilers_and_libraries_2016.1.150/linux/bin/intel64/ifort
 FCVERSION : 16.0.1
 BLASLIB   : -mkl
 id        : ccgc

 Nodes     nprocs
 n066         1
 ga_uses_ma=false, calling ma_init with nominal heap.
 GA-space will be limited to   8.0 MW (determined by -G option)

 Using customized tuning parameters: mindgm=10; mindgv=16; mindgc=4; mindgr=1; noblas=0; mincuda=1000; minvec=7
 default implementation of scratch files=df  

 ***,Optimization of min3
 memory,1000,m
 gthresh,energy=1.0d-12,orbital=1.0d-10,oneint=1.0d-16,twoint=1.0d-16,optgrad=1.0d-6,compress=1.0d-13
 geomtyp=xyz
 
  bohr
  geometry = {
  6
  arbitrary comment
  C   -1.3718226706   -0.0225968515    0.0000003249
  O    1.3051682584    0.1238291840    0.0000002920
  H   -2.0775030694    1.9019069189   -0.0000795370
  H   -2.1033026135   -0.9778268312    1.6858243229
  H   -2.1032952884   -0.9779585669   -1.6857524942
  H    1.9270312235   -1.5774859734   -0.0000013186
 }
 
 basis=cc-pvdz
 {rhf;maxit,200}
 {ccsd(t);maxit,200}

 Variables initialized (661), CPU time= 0.00 sec
 Commands  initialized (458), CPU time= 0.00 sec, 486 directives.
 Default parameters read. Elapsed time= 0.05 sec

 Checking input...
 Passed
1


                                         ***  PROGRAM SYSTEM MOLPRO  ***
                         Copyright, University College Cardiff Consultants Limited, 2008

                                    Version 2010.1 linked May 16 2016 07:17:05


 **********************************************************************************************************************************
 LABEL *   Optimization of min3                                                          
 Linux-4.4.3/n066(x86_64) 64 bit mpp version                                             DATE: 06-Nov-21          TIME: 15:40:31  
 **********************************************************************************************************************************

 SHA1:             9e8077add272b0f3cad6f7df79ec5211205f459d
 **********************************************************************************************************************************

 THRESHOLDS:

 ZERO    =  1.00D-12  ONEINT  =  1.00D-16  TWOINT  =  1.00D-16  PREFAC  =  1.00D-14  LOCALI  =  1.00D-09  EORDER  =  1.00D-04
 ENERGY  =  1.00D-12  ETEST   =  0.00D+00  EDENS   =  0.00D+00  THRDEDEF=  1.00D-06  GRADIENT=  1.00D-02  STEP    =  1.00D-03
 ORBITAL =  1.00D-10  CIVEC   =  1.00D-05  COEFF   =  1.00D-04  PRINTCI =  5.00D-02  PUNCHCI =  9.90D+01  OPTGRAD =  1.00D-06
 OPTENERG=  1.00D-06  OPTSTEP =  3.00D-04  THRGRAD =  1.00D-10  COMPRESS=  1.00D-13  VARMIN  =  1.00D-07  VARMAX  =  1.00D-03
 THRDOUB =  0.00D+00  THRDIV  =  1.00D-05  THRRED  =  1.00D-07  THRPSP  =  1.00D+00  THRDC   =  1.00D-10  THRCS   =  1.00D-10
 THRNRM  =  1.00D-08  THREQ   =  0.00D+00  THRDE   =  1.00D+00  THRREF  =  1.00D-05  SPARFAC =  1.00D+00  THRDLP  =  1.00D-07
 THRDIA  =  1.00D-10  THRDLS  =  1.00D-07  THRGPS  =  0.00D+00  THRKEX  =  0.00D+00  THRDIS  =  2.00D-01  THRVAR  =  1.00D-10
 THRLOC  =  1.00D-06  THRGAP  =  1.00D-06  THRLOCT = -1.00D+00  THRGAPT = -1.00D+00  THRORB  =  1.00D-06  THRMLTP =  0.00D+00
 THRCPQCI=  1.00D-10  KEXTA   =  0.00D+00  THRCOARS=  0.00D+00  SYMTOL  =  1.00D-06  GRADTOL =  1.00D-06  THROVL  =  1.00D-08
 THRORTH =  1.00D-08  GRID    =  1.00D-06  GRIDMAX =  1.00D-03  DTMAX   =  0.00D+00

 SETTING GEOMTYP        =    XYZ
 ZUNIT=BOHR
 

 Variable memory set to 1000000000 words,  buffer space   230000 words

 SETTING BASIS          =    CC-PVDZ


 Recomputing integrals since basis changed


 Using spherical harmonics

 Library entry C      S cc-pVDZ              selected for orbital group  1
 Library entry C      P cc-pVDZ              selected for orbital group  1
 Library entry C      D cc-pVDZ              selected for orbital group  1
 Library entry O      S cc-pVDZ              selected for orbital group  2
 Library entry O      P cc-pVDZ              selected for orbital group  2
 Library entry O      D cc-pVDZ              selected for orbital group  2
 Library entry H      S cc-pVDZ              selected for orbital group  3
 Library entry H      P cc-pVDZ              selected for orbital group  3

1PROGRAM * SEWARD (Integral evaluation for generally contracted gaussian basis sets)     Author: Roland Lindh, 1990

 Geometry written to block  1 of record 700


 Point group  C1  



 ATOMIC COORDINATES

 NR  ATOM    CHARGE       X              Y              Z

   1  C       6.00   -1.371822671   -0.022596852    0.000000325
   2  O       8.00    1.305168258    0.123829184    0.000000292
   3  H       1.00   -2.077503069    1.901906919   -0.000079537
   4  H       1.00   -2.103302613   -0.977826831    1.685824323
   5  H       1.00   -2.103295288   -0.977958567   -1.685752494
   6  H       1.00    1.927031224   -1.577485973   -0.000001319

 Bond lengths in Bohr (Angstrom)

 1-2  2.680992543  1-3  2.049804770  1-4  2.071118001  1-5  2.071118240  2-6  1.811404652
     ( 1.418720151)     ( 1.084709967)     ( 1.095988443)     ( 1.095988570)     ( 0.958554058)

 Bond angles

  1-2-6  106.94747251   2-1-3  107.00622053   2-1-4  112.20019389   2-1-5  112.20018639

  3-1-4  108.14750683   3-1-5  108.14735461   4-1-5  108.96751730

 NUCLEAR CHARGE:                   18
 NUMBER OF PRIMITIVE AOS:          82
 NUMBER OF SYMMETRY AOS:           80
 NUMBER OF CONTRACTIONS:           48   (  48A   )
 NUMBER OF CORE ORBITALS:           2   (   2A   )
 NUMBER OF VALENCE ORBITALS:       12   (  12A   )


 NUCLEAR REPULSION ENERGY   40.35944164


 Eigenvalues of metric

         1 0.964E-02 0.176E-01 0.366E-01 0.376E-01 0.380E-01 0.474E-01 0.478E-01 0.513E-01


 Contracted 2-electron integrals neglected if value below      1.0D-16
 AO integral compression algorithm  1   Integral accuracy      1.0D-16

     6.291 MB (compressed) written to integral file ( 98.2%)

     Node minimum: 6.291 MB, node maximum: 6.291 MB


 NUMBER OF SORTED TWO-ELECTRON INTEGRALS:     692076.     BUFFER LENGTH:  32768
 NUMBER OF SEGMENTS:   1  SEGMENT LENGTH:     692076      RECORD LENGTH: 524288

 Memory used in sort:       1.25 MW

 SORT1 READ      832256. AND WROTE      682147. INTEGRALS IN      2 RECORDS. CPU TIME:     0.01 SEC, REAL TIME:     0.01 SEC
 SORT2 READ      682147. AND WROTE      692076. INTEGRALS IN     24 RECORDS. CPU TIME:     0.02 SEC, REAL TIME:     0.02 SEC

 FILE SIZES:   FILE 1:     8.0 MBYTE,  FILE 4:     8.4 MBYTE,   TOTAL:     16.4 MBYTE

 OPERATOR DM      FOR CENTER  0  COORDINATES:    0.000000    0.000000    0.000000


 **********************************************************************************************************************************
 DATASETS  * FILE   NREC   LENGTH (MB)   RECORD NAMES
              1      19        8.03       500      610      700      900      950      970     1000      129      960     1100   
                                          VAR    BASINP    GEOM    SYMINP    ZMAT    AOBASIS   BASIS     P2S    ABASIS      S 
                                         1400     1410     1200     1210     1080     1600     1650     1300     1700   
                                           T        V       H0       H01     AOSYM     SMH    MOLCAS    ERIS     OPER   

 PROGRAMS   *        TOTAL       INT
 CPU TIMES  *         0.22      0.18
 REAL TIME  *         0.41 SEC
 DISK USED  *        23.34 MB      
 GA USED    *         0.00 MB       (max)       0.00 MB       (current)
 **********************************************************************************************************************************

1PROGRAM * RHF-SCF (CLOSED SHELL)       Authors: W. Meyer, H.-J. Werner


 NUMBER OF ELECTRONS:       9+    9-    SPACE SYMMETRY=1    SPIN SYMMETRY: Singlet 
 CONVERGENCE THRESHOLDS:    1.00E-10 (Density)    1.00E-13 (Energy)
 MAX. NUMBER OF ITERATIONS:      200
 INTERPOLATION TYPE:            DIIS
 INTERPOLATION STEPS:              2 (START)      1 (STEP)
 LEVEL SHIFTS:                  0.00 (CLOSED)  0.00 (OPEN) 



 Orbital guess generated from atomic densities. Full valence occupancy:   14

 Molecular orbital dump at record        2100.2

 ITERATION    DDIFF          GRAD             ENERGY        2-EL.EN.            DIPOLE MOMENTS         DIIS
    1      0.000D+00      0.000D+00      -115.01423505    164.479164   -0.49695   -0.90203   -0.00000    0
    2      0.000D+00      0.110D-01      -115.04264161    162.261487   -0.31744   -0.53436   -0.00000    1
    3      0.205D-01      0.529D-02      -115.04865885    163.284933   -0.40113   -0.60953   -0.00000    2
    4      0.638D-02      0.112D-02      -115.04912231    163.128752   -0.39090   -0.59816   -0.00000    3
    5      0.204D-02      0.202D-03      -115.04914334    163.135243   -0.39373   -0.59379   -0.00000    4
    6      0.433D-03      0.354D-04      -115.04914413    163.135391   -0.39404   -0.59356   -0.00000    5
    7      0.930D-04      0.736D-05      -115.04914416    163.134204   -0.39418   -0.59339   -0.00000    6
    8      0.150D-04      0.237D-05      -115.04914417    163.134586   -0.39421   -0.59337   -0.00000    7
    9      0.501D-05      0.489D-06      -115.04914417    163.134545   -0.39423   -0.59337   -0.00000    6
   10      0.140D-05      0.870D-07      -115.04914417    163.134544   -0.39423   -0.59337   -0.00000    6
   11      0.233D-06      0.323D-07      -115.04914417    163.134549   -0.39423   -0.59337   -0.00000    6
   12      0.580D-07      0.135D-07      -115.04914417    163.134547   -0.39423   -0.59337   -0.00000    7
   13      0.252D-07      0.296D-08      -115.04914417    163.134548   -0.39423   -0.59337   -0.00000    7
   14      0.741D-08      0.645D-09      -115.04914417    163.134548   -0.39423   -0.59337   -0.00000    7
   15      0.166D-08      0.148D-09      -115.04914417    163.134548   -0.39423   -0.59337   -0.00000    7
   16      0.328D-09      0.444D-10      -115.04914417    163.134548   -0.39423   -0.59337   -0.00000    7
   17      0.864D-10      0.146D-10      -115.04914417    163.134548   -0.39423   -0.59337   -0.00000    0

 Final occupancy:   9

 !RHF STATE 1.1 Energy               -115.049144168086
 Nuclear energy                        40.35944164
 One-electron energy                 -236.97585958
 Two-electron energy                   81.56727377
 Virial quotient                       -1.00083938
 !RHF STATE 1.1 Dipole moment          -0.39422924    -0.59336872    -0.00000281
 Dipole moment /Debye                  -1.00196515    -1.50809407    -0.00000715

 Orbital energies:

         1.1          2.1          3.1          4.1          5.1          6.1          7.1          8.1          9.1         10.1
    -20.550035   -11.274309    -1.351211    -0.921346    -0.683250    -0.614134    -0.585895    -0.497510    -0.442966     0.184487

        11.1
      0.224824


 **********************************************************************************************************************************
 DATASETS  * FILE   NREC   LENGTH (MB)   RECORD NAMES
              1      19        8.03       500      610      700      900      950      970     1000      129      960     1100   
                                          VAR    BASINP    GEOM    SYMINP    ZMAT    AOBASIS   BASIS     P2S    ABASIS      S 
                                         1400     1410     1200     1210     1080     1600     1650     1300     1700   
                                           T        V       H0       H01     AOSYM     SMH    MOLCAS    ERIS     OPER   

              2       3        0.39       700     1000     2100   
                                         GEOM     BASIS     RHF  

 PROGRAMS   *        TOTAL       RHF       INT
 CPU TIMES  *         0.31      0.09      0.18
 REAL TIME  *         0.52 SEC
 DISK USED  *        23.34 MB      
 GA USED    *         0.00 MB       (max)       0.00 MB       (current)
 **********************************************************************************************************************************


1PROGRAM * CCSD (Closed-shell coupled cluster)     Authors: C. Hampel, H.-J. Werner, 1991, M. Deegan, P.J. Knowles, 1992


 Convergence thresholds:  THRVAR = 1.00D-08  THRDEN = 1.00D-12

 CCSD(T)     terms to be evaluated (factor= 1.000)


 Number of core orbitals:           2 (   2 )
 Number of closed-shell orbitals:   7 (   7 )
 Number of external orbitals:      39 (  39 )

 Molecular orbitals read from record     2100.2  Type=RHF/CANONICAL (state 1.1)

 Number of N-1 electron functions:               7
 Number of N-2 electron functions:              28
 Number of singly external CSFs:               273
 Number of doubly external CSFs:             37401
 Total number of CSFs:                       37675

 Length of J-op  integral file:               0.00 MB
 Length of K-op  integral file:               0.19 MB
 Length of 3-ext integral record:             0.00 MB

 Memory could be reduced to 0.96 Mwords without degradation in triples

 Integral transformation finished. Total CPU:   0.02 sec, npass=  1  Memory used:   0.66 MW

 Reference energy:                   -115.04914417

 MP2 singlet pair energy:              -0.21858037
 MP2 triplet pair energy:              -0.11984379
 MP2 correlation energy:               -0.33842416
 MP2 total energy:                   -115.38756832

 SCS-MP2 correlation energy:           -0.33686591   (PS=  1.200000  PT=  0.333333)
 SCS-MP2 total energy:               -115.38601008

 ITER.      SQ.NORM     CORR.ENERGY   TOTAL ENERGY   ENERGY CHANGE        DEN1      VAR(S)    VAR(P)  DIIS     TIME
   1      1.10723658    -0.36121668  -115.41036084    -0.02279252    -0.01412496  0.91D-03  0.17D-02  1  1     0.05
   2      1.11574146    -0.36315668  -115.41230085    -0.00194001    -0.00923792  0.20D-04  0.16D-03  2  2     0.09
   3      1.11761335    -0.36328313  -115.41242730    -0.00012645    -0.00119938  0.94D-05  0.85D-05  3  3     0.13
   4      1.11812540    -0.36328171  -115.41242588     0.00000143    -0.00025388  0.33D-06  0.67D-06  4  4     0.17
   5      1.11822256    -0.36328212  -115.41242628    -0.00000041    -0.00003581  0.97D-07  0.48D-07  5  5     0.21
   6      1.11824131    -0.36328078  -115.41242494     0.00000134    -0.00000432  0.15D-07  0.40D-08  6  6     0.25
   7      1.11824597    -0.36328036  -115.41242453     0.00000041    -0.00000034  0.20D-08  0.70D-09  6  1     0.29
   8      1.11824722    -0.36328047  -115.41242463    -0.00000010     0.00000074  0.25D-09  0.70D-10  6  3     0.32
   9      1.11824826    -0.36328034  -115.41242451     0.00000012    -0.00000038  0.12D-10  0.10D-10  6  2     0.36
  10      1.11824819    -0.36328035  -115.41242451    -0.00000000     0.00000007  0.10D-11  0.85D-12  6  5     0.40
  11      1.11824822    -0.36328034  -115.41242451     0.00000000    -0.00000000  0.18D-12  0.49D-13  6  4     0.44
  12      1.11824821    -0.36328034  -115.41242451    -0.00000000     0.00000001  0.18D-13  0.96D-14  6  1     0.48
  13      1.11824821    -0.36328035  -115.41242451    -0.00000000    -0.00000000  0.23D-14  0.90D-15  6  6     0.52
  14      1.11824821    -0.36328034  -115.41242451     0.00000000    -0.00000000  0.22D-15  0.12D-15  6  3     0.56
  15      1.11824821    -0.36328034  -115.41242451    -0.00000000    -0.00000000  0.24D-16  0.16D-16  6  2     0.60
  16      1.11824821    -0.36328034  -115.41242451    -0.00000000    -0.00000000  0.54D-17  0.16D-17  6  5     0.63
  17      1.11824821    -0.36328034  -115.41242451    -0.00000000    -0.00000000  0.51D-18  0.24D-18  6  4     0.67
  18      1.11824821    -0.36328034  -115.41242451     0.00000000    -0.00000000  0.79D-19  0.41D-19  6  1     0.71
  19      1.11824821    -0.36328034  -115.41242451    -0.00000000    -0.00000000  0.88D-20  0.41D-20  6  6     0.75
  20      1.11824821    -0.36328034  -115.41242451     0.00000000     0.00000000  0.12D-20  0.53D-21  6  3     0.79

 Norm of t1 vector:      0.04157492      S-energy:    -0.00000000      T1 diagnostic:  0.00785692
                                                                       D1 diagnostic:  0.01739858


 Total CPU time for triples:      0.20 sec


 RESULTS
 =======

  Reference energy                   -115.049144168086
  CCSD singlet pair energy             -0.254498886977
  CCSD triplet pair energy             -0.108781457932
  CCSD correlation energy              -0.363280344910

  Triples (T) contribution             -0.007730268728
  Total correlation energy             -0.371010613638

  CCSD total energy                  -115.412424512996
  CCSD[T] energy                     -115.420443882739
  CCSD-T energy                      -115.420005269036
 !CCSD(T) total energy               -115.420154781724

 Timing summary (sec):

 STEP                 CPU(USER)    SYS     CPU(TOT)    WALL
 Transformation          0.02      0.00      0.02      0.02
 CCSD iterations         0.77      0.05      0.82      0.84
 Triples                 0.20      0.01      0.21      0.22

 Program statistics:

 Available memory in ccsd:               999999704
 Min. memory needed in ccsd:                136801
 Max. memory used in ccsd:                  163198
 Max. memory used in cckext:                182024 (20 integral passes)



 **********************************************************************************************************************************
 DATASETS  * FILE   NREC   LENGTH (MB)   RECORD NAMES
              1      20       10.56       500      610      700      900      950      970     1000      129      960     1100   
                                          VAR    BASINP    GEOM    SYMINP    ZMAT    AOBASIS   BASIS     P2S    ABASIS      S 
                                         1400     1410     1200     1210     1080     1600     1650     1300     1700     1380   
                                           T        V       H0       H01     AOSYM     SMH    MOLCAS    ERIS     OPER     JKOP   

              2       3        0.39       700     1000     2100   
                                         GEOM     BASIS     RHF  

 PROGRAMS   *        TOTAL   CCSD(T)       RHF       INT
 CPU TIMES  *         1.31      1.00      0.09      0.18
 REAL TIME  *         1.63 SEC
 DISK USED  *        24.76 MB      
 GA USED    *         0.00 MB       (max)       0.00 MB       (current)
 **********************************************************************************************************************************

        CCSD(T)         RHF-SCF 
   -115.42015478   -115.04914417
 **********************************************************************************************************************************
 Variable memory released
