
    -----------------------------------------------------------------------
          Psi4: An Open-Source Ab Initio Electronic Structure Package
                               Psi4 1.4a2.dev629 

                         Git: Rev {master} 2938fc2 dirty


    D. G. A. Smith, L. A. Burns, A. C. Simmonett, R. M. Parrish,
    M. C. Schieber, R. Galvelis, P. Kraus, H. Kruse, R. Di Remigio,
    A. Alenaizan, A. M. James, S. Lehtola, J. P. Misiewicz, M. Scheurer,
    R. A. Shaw, J. B. Schriber, Y. Xie, Z. L. Glick, D. A. Sirianni,
    J. S. O'Brien, J. M. Waldrop, A. Kumar, E. G. Hohenstein,
    B. P. Pritchard, B. R. Brooks, H. F. Schaefer III, A. Yu. Sokolov,
    K. Patkowski, A. E. DePrince III, U. Bozkaya, R. A. King,
    F. A. Evangelista, J. M. Turney, T. D. Crawford, C. D. Sherrill,
    J. Chem. Phys. 152(18) 184108 (2020). https://doi.org/10.1063/5.0006002

                            Additional Code Authors
    E. T. Seidl, C. L. Janssen, E. F. Valeev, M. L. Leininger,
    J. F. Gonthier, R. M. Richard, H. R. McAlexander, M. Saitow, X. Wang,
    P. Verma, and M. H. Lechner

             Previous Authors, Complete List of Code Contributors,
                       and Citations for Specific Modules
    https://github.com/psi4/psi4/blob/master/codemeta.json
    https://github.com/psi4/psi4/graphs/contributors
    http://psicode.org/psi4manual/master/introduction.html#citing-psifour

    -----------------------------------------------------------------------


    Psi4 started on: Monday, 06 September 2021 06:16PM

    Process ID: 16146
    Host:       n016
    PSIDATADIR: /opt/psi/4/master/share/psi4
    Memory:     500.0 MiB
    Threads:    1
    
  ==> Input File <==

--------------------------------------------------------------------------
# o-Benzyne preliminary computations

memory 14 gb

molecule {
  0 1
  units bohr
 H   -0.0000000000   -1.4231165924    0.9965657988
 O    0.0000000000   -0.0049789280   -0.1307072622
 H    0.0000000000    1.4280955205    1.0004850834
}

set {
  basis cc-pvdz
  reference rhf
  e_convergence 10 
  d_convergence 10
  r_convergence 8
  maxiter 300
  freeze_core True
}

e, wfn = energy('ccsd(t)', return_wfn = True)
psi4.print_out('Giraffe The Energy is %.12f \n'%(e))
--------------------------------------------------------------------------

  Memory set to  13.039 GiB by Python driver.

Scratch directory: /tmp/

*** tstart() called on n016
*** at Mon Sep  6 18:16:08 2021

   => Loading Basis Set <=

    Name: CC-PVDZ
    Role: ORBITAL
    Keyword: BASIS
    atoms 1, 3 entry H          line    22 file /opt/psi/4/master/share/psi4/basis/cc-pvdz.gbs 
    atoms 2    entry O          line   198 file /opt/psi/4/master/share/psi4/basis/cc-pvdz.gbs 


         ---------------------------------------------------------
                                   SCF
               by Justin Turney, Rob Parrish, Andy Simmonett
                          and Daniel G. A. Smith
                              RHF Reference
                        1 Threads,  13351 MiB Core
         ---------------------------------------------------------

  ==> Geometry <==

    Molecular point group: cs
    Full point group: Cs

    Geometry (in Bohr), charge = 0, multiplicity = 1:

       Center              X                  Y                   Z               Mass       
    ------------   -----------------  -----------------  -----------------  -----------------
         H            1.418973488550    -1.000895126097     0.000000000000     1.007825032230
         O            0.000835824150     0.126377934903     0.000000000000    15.994914619570
         H           -1.432238624350    -1.004814410697     0.000000000000     1.007825032230

  Running in cs symmetry.

  Rotational constants: A =     26.37553  B =     14.69415  C =      9.43679 [cm^-1]
  Rotational constants: A = 790718.48710  B = 440519.40447  C = 282907.82750 [MHz]
  Nuclear repulsion =    9.148540852898650

  Charge       = 0
  Multiplicity = 1
  Electrons    = 10
  Nalpha       = 5
  Nbeta        = 5

  ==> Algorithm <==

  SCF Algorithm Type is PK.
  DIIS enabled.
  MOM disabled.
  Fractional occupation disabled.
  Guess Type is SAD.
  Energy threshold   = 1.00e-10
  Density threshold  = 1.00e-10
  Integral threshold = 0.00e+00

  ==> Primary Basis <==

  Basis Set: CC-PVDZ
    Blend: CC-PVDZ
    Number of shells: 12
    Number of basis function: 24
    Number of Cartesian functions: 25
    Spherical Harmonics?: true
    Max angular momentum: 2

  ==> Integral Setup <==

  Using in-core PK algorithm.
   Calculation information:
      Number of atoms:                   3
      Number of AO shells:              12
      Number of primitives:             32
      Number of atomic orbitals:        25
      Number of basis functions:        24

      Integral cutoff                 1.00e-12
      Number of threads:                 1

  Performing in-core PK
  Using 90300 doubles for integral storage.
  We computed 3081 shell quartets total.
  Whereas there are 3081 unique shell quartets.

  ==> DiskJK: Disk-Based J/K Matrices <==

    J tasked:                  Yes
    K tasked:                  Yes
    wK tasked:                  No
    Memory [MiB]:            10013
    Schwarz Cutoff:          1E-12

    OpenMP threads:              1

  Minimum eigenvalue in the overlap matrix is 3.4364946597E-02.
  Reciprocal condition number of the overlap matrix is 9.2656272540E-03.
    Using symmetric orthogonalization.

  ==> Pre-Iterations <==

  SCF Guess: Superposition of Atomic Densities via on-the-fly atomic UHF (no occupation information).

   -------------------------
    Irrep   Nso     Nmo    
   -------------------------
     A'        18      18 
     A"         6       6 
   -------------------------
    Total      24      24
   -------------------------

  ==> Iterations <==

                        Total Energy        Delta E     RMS |[F,P]|

   @RHF iter SAD:   -75.50587724808339   -7.55059e+01   0.00000e+00 
   @RHF iter   1:   -75.95323083579413   -4.47354e-01   2.20291e-02 DIIS
   @RHF iter   2:   -76.00668780560103   -5.34570e-02   1.26748e-02 DIIS
   @RHF iter   3:   -76.02605262323627   -1.93648e-02   1.15540e-03 DIIS
   @RHF iter   4:   -76.02644317048913   -3.90547e-04   2.68598e-04 DIIS
   @RHF iter   5:   -76.02646317236248   -2.00019e-05   4.89783e-05 DIIS
   @RHF iter   6:   -76.02646410052570   -9.28163e-07   7.60360e-06 DIIS
   @RHF iter   7:   -76.02646412481701   -2.42913e-08   1.01212e-06 DIIS
   @RHF iter   8:   -76.02646412525711   -4.40096e-10   2.37440e-07 DIIS
   @RHF iter   9:   -76.02646412528631   -2.92033e-11   4.39307e-08 DIIS
   @RHF iter  10:   -76.02646412528718   -8.66862e-13   3.64958e-09 DIIS
   @RHF iter  11:   -76.02646412528723   -5.68434e-14   6.62606e-10 DIIS
   @RHF iter  12:   -76.02646412528723    0.00000e+00   8.10727e-11 DIIS
  Energy and wave function converged.


  ==> Post-Iterations <==

    Orbital Energies [Eh]
    ---------------------

    Doubly Occupied:                                                      

       1Ap   -20.552035     2Ap    -1.335124     3Ap    -0.694123  
       4Ap    -0.568241     1App   -0.493250  

    Virtual:                                                              

       5Ap     0.184430     6Ap     0.255639     7Ap     0.781199  
       8Ap     0.855399     9Ap     1.164904     2App    1.199964  
      10Ap     1.254993    11Ap     1.433550     3App    1.479186  
       4App    1.666560    12Ap     1.865630    13Ap     1.936764  
      14Ap     2.435646    15Ap     2.481834     5App    3.287397  
       6App    3.329383    16Ap     3.508708    17Ap     3.850801  
      18Ap     4.148925  

    Final Occupation by Irrep:
             Ap   App 
    DOCC [     4,    1 ]

  @RHF Final Energy:   -76.02646412528723

   => Energetics <=

    Nuclear Repulsion Energy =              9.1485408528986500
    One-Electron Energy =                -123.0644654734362575
    Two-Electron Energy =                  37.8894604952503826
    Total Energy =                        -76.0264641252872195

Computation Completed


Properties will be evaluated at   0.000000,   0.000000,   0.000000 [a0]

Properties computed using the SCF density matrix

  Nuclear Dipole Moment: [e a0]
     X:    -0.0066      Y:    -0.9947      Z:     0.0000

  Electronic Dipole Moment: [e a0]
     X:     0.0031      Y:     0.1761      Z:     0.0000

  Dipole Moment: [e a0]
     X:    -0.0034      Y:    -0.8186      Z:     0.0000     Total:     0.8186

  Dipole Moment: [D]
     X:    -0.0087      Y:    -2.0806      Z:     0.0000     Total:     2.0806


*** tstop() called on n016 at Mon Sep  6 18:16:10 2021
Module time:
	user time   =       1.22 seconds =       0.02 minutes
	system time =       0.00 seconds =       0.00 minutes
	total time  =          2 seconds =       0.03 minutes
Total time:
	user time   =       1.22 seconds =       0.02 minutes
	system time =       0.00 seconds =       0.00 minutes
	total time  =          2 seconds =       0.03 minutes
 MINTS: Wrapper to libmints.
   by Justin Turney

   Calculation information:
      Number of threads:                 1
      Number of atoms:                   3
      Number of AO shells:              12
      Number of SO shells:              12
      Number of primitives:             32
      Number of atomic orbitals:        25
      Number of basis functions:        24

      Number of irreps:                  2
      Integral cutoff                 0.00e+00
      Number of functions per irrep: [  18    6 ]

 OEINTS: Overlap, kinetic, potential, dipole, and quadrupole integrals
         stored in file 35.

      Computing two-electron integrals...done
      Computed 22595 non-zero two-electron integrals.
        Stored in file 33.


*** tstart() called on n016
*** at Mon Sep  6 18:16:10 2021


	Wfn Parameters:
	--------------------
	Wavefunction         = CCSD_T
	Number of irreps     = 2
	Number of MOs        = 24
	Number of active MOs = 23
	AO-Basis             = NONE
	Semicanonical        = false
	Reference            = RHF
	Print Level          = 1

	IRREP	# MOs	# FZDC	# DOCC	# SOCC	# VIRT	# FZVR
	-----	-----	------	------	------	------	------
	 Ap	   18	    1	    3	    0	    14	    0
	 App	   6	    0	    1	    0	    5	    0
	Transforming integrals...
	IWL integrals will be deleted.
	(OO|OO)...
	Presorting SO-basis two-electron integrals.
	Sorting File: SO Ints (nn|nn) nbuckets = 1
	Transforming the one-electron integrals and constructing Fock matrices
	Starting first half-transformation.
	Sorting half-transformed integrals.
	First half integral transformation complete.
	Starting second half-transformation.
	Two-electron integral transformation complete.
	(OO|OV)...
	Starting second half-transformation.
	Two-electron integral transformation complete.
	(OO|VV)...
	Starting second half-transformation.
	Two-electron integral transformation complete.
	(OV|OO)...
	Starting first half-transformation.
	Sorting half-transformed integrals.
	First half integral transformation complete.
	Starting second half-transformation.
	Two-electron integral transformation complete.
	(OV|OV)...
	Starting second half-transformation.
	Two-electron integral transformation complete.
	(OV|VV)...
	Starting second half-transformation.
	Two-electron integral transformation complete.
	(VV|OO)...
	Starting first half-transformation.
	Sorting half-transformed integrals.
	First half integral transformation complete.
	Starting second half-transformation.
	Two-electron integral transformation complete.
	(VV|OV)...
	Starting second half-transformation.
	Two-electron integral transformation complete.
	(VV|VV)...
	Starting second half-transformation.
	Two-electron integral transformation complete.
	Frozen core energy     =    -61.30452462483814

	Size of irrep 0 of <ab|cd> integrals:      0.049 (MW) /      0.391 (MB)
	Size of irrep 1 of <ab|cd> integrals:      0.020 (MW) /      0.157 (MB)
	Total:                                     0.068 (MW) /      0.548 (MB)

	Size of irrep 0 of <ia|bc> integrals:      0.010 (MW) /      0.083 (MB)
	Size of irrep 1 of <ia|bc> integrals:      0.004 (MW) /      0.032 (MB)
	Total:                                     0.014 (MW) /      0.116 (MB)

	Size of irrep 0 of tijab amplitudes:       0.002 (MW) /      0.018 (MB)
	Size of irrep 1 of tijab amplitudes:       0.001 (MW) /      0.007 (MB)
	Total:                                     0.003 (MW) /      0.024 (MB)

	Nuclear Rep. energy          =      9.14854085289865
	SCF energy                   =    -76.02646412528723
	One-electron energy          =    -41.55948622466340
	Two-electron energy          =     17.68900587131584
	Reference energy             =    -76.02646412528706

*** tstop() called on n016 at Mon Sep  6 18:16:10 2021
Module time:
	user time   =       0.06 seconds =       0.00 minutes
	system time =       0.06 seconds =       0.00 minutes
	total time  =          0 seconds =       0.00 minutes
Total time:
	user time   =       1.40 seconds =       0.02 minutes
	system time =       0.07 seconds =       0.00 minutes
	total time  =          2 seconds =       0.03 minutes
            **************************
            *                        *
            *        CCENERGY        *
            *                        *
            **************************

    Nuclear Rep. energy (wfn)     =    9.148540852898650
    SCF energy          (wfn)     =  -76.026464125287234
    Reference energy    (file100) =  -76.026464125287063

    Input parameters:
    -----------------
    Wave function   =     CCSD_T
    Reference wfn   =     RHF
    Brueckner       =     No
    Memory (Mbytes) =     14000.0
    Maxiter         =    300
    R_Convergence   =     1.0e-08
    E_Convergence   =     1.0e-10
    Restart         =     Yes
    DIIS            =     Yes
    AO Basis        =     NONE
    ABCD            =     NEW
    Cache Level     =     2
    Cache Type      =     LOW
    Print Level     =     1
    Num. of threads =     1
    # Amps to Print =     10
    Print MP2 Amps? =     No
    Analyze T2 Amps =     No
    Print Pair Ener =     No
    Local CC        =     No
    SCS-MP2         =     False
    SCSN-MP2        =     False
    SCS-CCSD        =     False

MP2 correlation energy -0.2021236464038589
                Solving CC Amplitude Equations
                ------------------------------
  Iter             Energy              RMS        T1Diag      D1Diag    New D1Diag    D2Diag
  ----     ---------------------    ---------   ----------  ----------  ----------   --------
     0        -0.202123646403859    0.000e+00    0.000000    0.000000    0.000000    0.110085
     1        -0.207240849945813    2.684e-02    0.004559    0.008721    0.008721    0.117091
     2        -0.211236620884895    9.499e-03    0.005399    0.010059    0.010059    0.122527
     3        -0.211658038121978    2.479e-03    0.005892    0.010930    0.010930    0.123775
     4        -0.211669398747493    5.707e-04    0.005939    0.011127    0.011127    0.123979
     5        -0.211680792189241    1.702e-04    0.005966    0.011238    0.011238    0.124015
     6        -0.211678869560540    5.637e-05    0.005976    0.011282    0.011282    0.124008
     7        -0.211678641506650    1.513e-05    0.005979    0.011297    0.011297    0.124006
     8        -0.211678510870630    2.627e-06    0.005980    0.011299    0.011299    0.124006
     9        -0.211678464134352    6.373e-07    0.005980    0.011299    0.011299    0.124006
    10        -0.211678478681649    1.290e-07    0.005980    0.011299    0.011299    0.124006
    11        -0.211678477288791    2.755e-08    0.005980    0.011299    0.011299    0.124006
    12        -0.211678477714810    4.630e-09    0.005980    0.011299    0.011299    0.124006
    13        -0.211678477595742    1.017e-09    0.005980    0.011299    0.011299    0.124006
    14        -0.211678477588154    2.105e-10    0.005980    0.011299    0.011299    0.124006
    15        -0.211678477585312    6.094e-11    0.005980    0.011299    0.011299    0.124006

    Iterations converged.


    Largest TIA Amplitudes:
              2   0         0.0076569507
              1   9        -0.0072676606
              1   1         0.0060116748
              2  10        -0.0049605938
              1   5         0.0047265480
              0   4         0.0042502020
              0   0         0.0036555473
              3  16         0.0033334365
              3  14         0.0031193534
              2   3         0.0030897520

    Largest TIjAb Amplitudes:
      3   3  14  14        -0.0514182487
      1   1   2   2        -0.0362447301
      2   2   4   4        -0.0349240015
      1   1   1   1        -0.0300182450
      2   3   4  14         0.0283708290
      3   2  14   4         0.0283708290
      1   1   3   3        -0.0279968603
      2   2   2   2        -0.0258125956
      1   3   5  14         0.0228745832
      3   1  14   5         0.0228745832

    SCF energy       (wfn)                    =  -76.026464125287234
    Reference energy (file100)                =  -76.026464125287063

    Opposite-spin MP2 correlation energy      =   -0.151315931458436
    Same-spin MP2 correlation energy          =   -0.050807714945423
    Singles MP2 correlation energy            =   -0.000000000000000
    MP2 correlation energy                    =   -0.202123646403859
      * MP2 total energy                      =  -76.228587771690925

    Opposite-spin CCSD correlation energy     =   -0.166346950923218
    Same-spin CCSD correlation energy         =   -0.045331526662094
    Singles CCSD correlation energy           =    0.000000000000000
    CCSD correlation energy                   =   -0.211678477585312
      * CCSD total energy                     =  -76.238142602872372

            **************************
            *                        *
            *        CCTRIPLES       *
            *                        *
            **************************


    Wave function   =    CCSD_T
    Reference wfn   =      RHF

    Nuclear Rep. energy (wfn)                =    9.148540852898650
    SCF energy          (wfn)                =  -76.026464125287234
    Reference energy    (file100)            =  -76.026464125287063
    CCSD energy         (file100)            =   -0.211678477585312
    Total CCSD energy   (file100)            =  -76.238142602872372

    Number of ijk index combinations:               20
    Memory available in words        :      1750000000
    ~Words needed per explicit thread:           10976
    Number of threads for explicit ijk threading:    1

    MKL num_threads set to 1 for explicit threading.

    (T) energy                                =   -0.003071000456859
      * CCSD(T) total energy                  =  -76.241213603329228

Giraffe The Energy is -76.241213603329 

    Psi4 stopped on: Monday, 06 September 2021 06:16PM
    Psi4 wall time for execution: 0:00:05.73

*** Psi4 exiting successfully. Buy a developer a beer!
