
 Working directory              : /scratch/mel64643/tmp/40073103/
 Global scratch directory       : /scratch/mel64643/tmp/40073103/
 Wavefunction directory         : /home/mel64643/wfu/
 Main file repository           : /scratch/mel64643/tmp/40073103/

 id        : ccgc

 Nodes     nprocs
 a1-8         3
 Distribution of processes:   nprocs(total)=    4   nprocs(compute)=    3   nprocs(helper)=    1
 GA implementation: MPI file
 GA implementation (serial work in mppx): MPI file

 Using customized tuning parameters: mindgm=1; mindgv=20; mindgc=4; mindgr=1; noblas=0; minvec=7
 default implementation of scratch files=sf  


 Variables initialized (1015), CPU time= 0.00 sec
 ***,Optimization of min3
 memory,1000,m
 gthresh,energy=1.0d-12,orbital=1.0d-10,oneint=1.0d-16,twoint=1.0d-16,optgrad=1.0d-6,compress=1.0d-13
 geomtyp=xyz
 
  bohr
  geometry = {
  6
  arbitrary comment
  C   -1.3715972294   -0.0305834762    0.0000004942
  O    1.3093816475    0.1127760620    0.0000003475
  H   -2.0811274241    1.9108041956   -0.0000799429
  H   -2.1096849509   -0.9765288327    1.6820712577
  H   -2.1096781281   -0.9766600582   -1.6819993297
  H    1.9389819250   -1.5699400106   -0.0000012367
 }
 
 basis=cc-pvdz
 {rhf;maxit,200}
 {ccsd(t);maxit,200}
 Commands initialized (818), CPU time= 0.00 sec, 672 directives.
 Default parameters read. Elapsed time= 0.11 sec

 Checking input...
 Passed
1


                                         ***  PROGRAM SYSTEM MOLPRO  ***
                                       Copyright, TTI GmbH Stuttgart, 2015
                                    Version 2022.1 linked Mar  4 2022 00:40:14


 **********************************************************************************************************************************
 LABEL *   Optimization of min3                                                          
  64 bit mpp version                                                                     DATE: 07-Aug-25          TIME: 21:23:34  
 **********************************************************************************************************************************

 SHA1:             31073afc4d8441e10870424e0d77336a33bc4286
 **********************************************************************************************************************************

 Memory per process:      1000 MW
 Total memory per node:   3000 MW

 GA preallocation disabled
 GA check disabled

 Variable memory set to 1000.0 MW


 THRESHOLDS:

 ZERO    =  1.00D-12  ONEINT  =  1.00D-16  TWOINT  =  1.00D-16  PREFAC  =  1.00D-14  XXXXXX  =  1.00D-09  EORDER  =  1.00D-04
 ENERGY  =  1.00D-12  ETEST   =  0.00D+00  EDENS   =  0.00D+00  THRDEDEF=  1.00D-06  GRADIENT=  1.00D-05  STEP    =  1.00D-03
 ORBITAL =  1.00D-10  CIVEC   =  1.00D-05  COEFF   =  1.00D-04  PRINTCI =  5.00D-02  PUNCHCI =  9.90D+01  OPTGRAD =  1.00D-06
 OPTENERG=  1.00D-06  OPTSTEP =  3.00D-04  THRGRAD =  1.00D-10  COMPRESS=  1.00D-13  VARMIN  =  1.00D-07  VARMAX  =  1.00D-03
 THRDOUB =  0.00D+00  THRDIV  =  1.00D-05  THRRED  =  1.00D-07  THRPSP  =  1.00D+00  THRDC   =  1.00D-10  THRCS   =  1.00D-10
 THRNRM  =  1.00D-08  THREQ   =  0.00D+00  THRDE   =  1.00D+00  THRREF  =  1.00D-05  SPARFAC =  1.00D+00  THRDLP  =  1.00D-07
 THRDIA  =  1.00D-10  THRDLS  =  1.00D-07  THRGPS  =  0.00D+00  THRKEX  =  0.00D+00  THRDIS  =  2.00D-01  THRVAR  =  1.00D-10
 THRLOC  =  1.00D-06  THRGAP  =  1.00D-06  THRLOCT = -1.00D+00  THRGAPT = -1.00D+00  THRORB  =  1.00D-06  THRMLTP =  0.00D+00
 THRCPQCI=  1.00D-10  KEXTA   =  0.00D+00  THRCOARS=  0.00D+00  SYMTOL  =  1.00D-06  GRADTOL =  1.00D-06  THROVL  =  1.00D-08
 THRORTH =  1.00D-08  THRDLOVL= -1.00D+00  GRID    =  1.00D-06  GRIDMAX =  1.00D-03  DTMAX   =  0.00D+00  THROCCDE=  1.00D-01
 THROCCDE=  1.00D-01  THRPRINT=  2.50D-01

 SETTING GEOMTYP        =    XYZ
 ZUNIT=BOHR

 SETTING BASIS          =    CC-PVDZ


 Recomputing integrals since basis changed


 Using spherical harmonics

 Library entry C      S cc-pVDZ              selected for orbital group  1
 Library entry C      P cc-pVDZ              selected for orbital group  1
 Library entry C      D cc-pVDZ              selected for orbital group  1
 Library entry O      S cc-pVDZ              selected for orbital group  2
 Library entry O      P cc-pVDZ              selected for orbital group  2
 Library entry O      D cc-pVDZ              selected for orbital group  2
 Library entry H      S cc-pVDZ              selected for orbital group  3
 Library entry H      P cc-pVDZ              selected for orbital group  3


 PROGRAM * SEWARD (Integral evaluation for generally contracted gaussian basis sets)     Author: Roland Lindh, 1990

 Geometry written to block  1 of record 700


 Point group  C1  



 ATOMIC COORDINATES

 NR  ATOM    CHARGE       X              Y              Z

   1  C       6.00   -1.371597229   -0.030583476    0.000000494
   2  O       8.00    1.309381647    0.112776062    0.000000348
   3  H       1.00   -2.081127424    1.910804196   -0.000079943
   4  H       1.00   -2.109684951   -0.976528833    1.682071258
   5  H       1.00   -2.109678128   -0.976660058   -1.681999330
   6  H       1.00    1.938981925   -1.569940011   -0.000001237

 Bond lengths in Bohr (Angstrom)

 1-2  2.684809061  1-3  2.066983115  1-4  2.066143305  1-5  2.066143199  2-6  1.796644063
     ( 1.420739771)     ( 1.093800360)     ( 1.093355951)     ( 1.093355895)     ( 0.950743094)

 Bond angles

  1-2-6  107.45284376   2-1-3  107.01528182   2-1-4  112.40597067   2-1-5  112.40597218

  3-1-4  107.90371708   3-1-5  107.90356300   4-1-5  108.99579877

 NUCLEAR CHARGE:                   18
 NUMBER OF PRIMITIVE AOS:          82
 NUMBER OF SYMMETRY AOS:           80
 NUMBER OF CONTRACTIONS:           48   (   48A   )
 NUMBER OF INNER CORE ORBITALS:     0   (    0A   )
 NUMBER OF OUTER CORE ORBITALS:     2   (    2A   )
 NUMBER OF VALENCE ORBITALS:       12   (   12A   )


 NUCLEAR REPULSION ENERGY   40.34290412

 Eigenvalues of metric

         1 0.967E-02 0.176E-01 0.368E-01 0.373E-01 0.379E-01 0.471E-01 0.479E-01 0.518E-01


 Contracted 2-electron integrals neglected if value below      1.0D-16
 AO integral compression algorithm  1   Integral accuracy      1.0D-16

     6.816 MB (compressed) written to integral file ( 98.5%)

     Node minimum: 2.097 MB, node maximum: 2.359 MB


 NUMBER OF SORTED TWO-ELECTRON INTEGRALS:     231084.     BUFFER LENGTH:  32768
 NUMBER OF SEGMENTS:   1  SEGMENT LENGTH:     231084      RECORD LENGTH: 524288

 Memory used in sort:       0.79 MW

 SORT1 READ      832256. AND WROTE      227682. INTEGRALS IN      1 RECORDS. CPU TIME:     0.01 SEC, REAL TIME:     0.09 SEC
 SORT2 READ      682147. AND WROTE      692076. INTEGRALS IN     24 RECORDS. CPU TIME:     0.01 SEC, REAL TIME:     0.03 SEC

 Node minimum:      230300.  Node maximum:      231084. integrals

 OPERATOR DM      FOR CENTER  0  COORDINATES:    0.000000    0.000000    0.000000


 **********************************************************************************************************************************
 DATASETS  * FILE   NREC   LENGTH (MB)   RECORD NAMES
              1      18       28.73       500      610      700      900      950      970     1000      129      960     1100   
                                          VAR    BASINP    GEOM    SYMINP    ZMAT    AOBASIS   BASIS     P2S    ABASIS      S 
                                         1400     1410     1200     1210     1080     1600     1650     1700   
                                           T        V       H0       H01     AOSYM     SMH    MOLCAS    OPER   

 PROGRAMS   *        TOTAL       INT
 CPU TIMES  *         0.50      0.36
 REAL TIME  *         2.03 SEC
 DISK USED  *        29.07 MB (local),      104.32 MB (total)
 GA USED    *         0.00 MB       (max)       0.00 MB       (current)
 **********************************************************************************************************************************


 Program * Restricted Hartree-Fock

 Orbital guess generated from atomic densities. Full valence occupancy:   14

 Initial occupancy:   9

 NELEC=   18   SYM=1   MS2= 0   THRE=1.0D-12   THRD=1.0D-10   THRG=1.0D-10  HFMA2=F  DIIS_START=2   DIIS_MAX=10   DIIS_INCORE=F

 Level shifts:    0.00 (CLOSED)    0.00 (OPEN)    0.30 (GAP_MIN)

 ITER           ETOT              DE          GRAD        DDIFF     DIIS  NEXP   TIME(IT)  TIME(TOT)  DIAG
   1     -115.01457351    -115.01457351     0.00D+00     0.16D+00     0     0       0.00      0.01    start
   2     -115.04281026      -0.02823675     0.10D-01     0.21D-01     1     0       0.00      0.01    diag
   3     -115.04878056      -0.00597030     0.48D-02     0.64D-02     2     0       0.00      0.01    diag
   4     -115.04923777      -0.00045721     0.10D-02     0.20D-02     3     0       0.01      0.02    diag
   5     -115.04925799      -0.00002023     0.18D-03     0.43D-03     4     0       0.00      0.02    diag
   6     -115.04925874      -0.00000074     0.31D-04     0.91D-04     5     0       0.01      0.03    diag
   7     -115.04925877      -0.00000003     0.64D-05     0.14D-04     6     0       0.00      0.03    diag
   8     -115.04925877      -0.00000000     0.21D-05     0.48D-05     7     0       0.01      0.04    fixocc
   9     -115.04925877      -0.00000000     0.43D-06     0.13D-05     8     0       0.00      0.04    diag
  10     -115.04925877      -0.00000000     0.65D-07     0.22D-06     9     0       0.00      0.04    diag/orth
  11     -115.04925877      -0.00000000     0.14D-07     0.40D-07     9     0       0.00      0.04    diag
  12     -115.04925877      -0.00000000     0.37D-08     0.11D-07     9     0       0.01      0.05    diag
  13     -115.04925877      -0.00000000     0.62D-09     0.17D-08     9     0       0.00      0.05    diag
  14     -115.04925877       0.00000000     0.14D-09     0.37D-09     9     0       0.00      0.05    diag
  15     -115.04925877      -0.00000000     0.56D-10     0.10D-09     9     0       0.00      0.05    diag
  16     -115.04925877       0.00000000     0.13D-10     0.30D-10     9     0       0.01      0.06    diag
  17     -115.04925877      -0.00000000     0.22D-11     0.43D-11     0     0       0.00      0.06    diag

 Final occupancy:   9

 !RHF STATE 1.1 Energy               -115.049258768673
  RHF One-electron energy            -236.938950759964
  RHF Two-electron energy              81.546787866732
  RHF Kinetic energy                  114.955734646394
  RHF Nuclear energy                   40.342904124560
  RHF Virial quotient                  -1.000813566392

 !RHF STATE 1.1 Dipole moment          -0.39430170    -0.59321823    -0.00000271
 Dipole moment /Debye                  -1.00221496    -1.50781034    -0.00000689

 Orbital energies:

           1.1          2.1          3.1          4.1          5.1          6.1          7.1          8.1          9.1         10.1
    -20.549357   -11.275010    -1.352002    -0.921999    -0.684456    -0.614462    -0.584757    -0.496825    -0.443819     0.185204

          11.1
      0.224914


 HOMO      9.1    -0.443819 =     -12.0769eV
 LUMO     10.1     0.185204 =       5.0397eV
 LUMO-HOMO         0.629023 =      17.1166eV

 Orbitals saved in record  2100.2


 **********************************************************************************************************************************
 DATASETS  * FILE   NREC   LENGTH (MB)   RECORD NAMES
              1      18       28.73       500      610      700      900      950      970     1000      129      960     1100   
                                          VAR    BASINP    GEOM    SYMINP    ZMAT    AOBASIS   BASIS     P2S    ABASIS      S 
                                         1400     1410     1200     1210     1080     1600     1650     1700   
                                           T        V       H0       H01     AOSYM     SMH    MOLCAS    OPER   

              2       4        0.47       700     1000      520     2100   
                                         GEOM     BASIS   MCVARS     RHF  

 PROGRAMS   *        TOTAL   RHF-SCF       INT
 CPU TIMES  *         0.56      0.06      0.36
 REAL TIME  *         2.31 SEC
 DISK USED  *        29.40 MB (local),      105.31 MB (total)
 GA USED    *         0.00 MB       (max)       0.00 MB       (current)
 **********************************************************************************************************************************


 PROGRAM * CCSD (Closed-shell coupled cluster)     Authors: C. Hampel, H.-J. Werner, 1991, M. Deegan, P.J. Knowles, 1992


 Convergence thresholds:  THRVAR = 1.00D-08  THRDEN = 1.00D-12

 CCSD(T)     terms to be evaluated (factor= 1.000)


 Number of core orbitals:           2 (   2 )
 Number of closed-shell orbitals:   7 (   7 )
 Number of external orbitals:      39 (  39 )

 Molecular orbitals read from record     2100.2  Type=RHF/CANONICAL  

 Number of N-1 electron functions:               7
 Number of N-2 electron functions:              28
 Number of singly external CSFs:               273
 Number of doubly external CSFs:             37401
 Total number of CSFs:                       37675

 Length of J-op  integral file:               0.00 MB
 Length of K-op  integral file:               0.16 MB
 Length of 3-ext integral record:             0.00 MB

 Memory could be reduced to 0.73 Mwords without degradation in triples

 Integral transformation finished. Total CPU:   0.02 sec, npass=  1  Memory used:   0.66 MW

 Reference energy:                   -115.04925877

 MP2 singlet pair energy:              -0.21843063
 MP2 triplet pair energy:              -0.11974571
 MP2 correlation energy:               -0.33817634
 MP2 total energy:                   -115.38743510

 SCS-MP2 correlation energy:           -0.33662519   (PS=  1.200000  PT=  0.333333)
 SCS-MP2 total energy:               -115.38588396

 ITER.      SQ.NORM     CORR.ENERGY   TOTAL ENERGY   ENERGY CHANGE        DEN1      VAR(S)    VAR(P)  DIIS     TIME  TIME/IT
   1      1.10713062    -0.36100608  -115.41026485    -0.02282975    -0.01418163  0.91D-03  0.17D-02  1  1     0.05     0.04
   2      1.11561875    -0.36294138  -115.41220015    -0.00193530    -0.00922178  0.20D-04  0.16D-03  2  2     0.07     0.04
   3      1.11748038    -0.36306793  -115.41232670    -0.00012655    -0.00119278  0.94D-05  0.85D-05  3  3     0.09     0.04
   4      1.11798948    -0.36306636  -115.41232513     0.00000158    -0.00025261  0.32D-06  0.67D-06  4  4     0.11     0.04
   5      1.11808609    -0.36306674  -115.41232551    -0.00000038    -0.00003566  0.95D-07  0.48D-07  5  5     0.13     0.04
   6      1.11810460    -0.36306542  -115.41232419     0.00000132    -0.00000429  0.15D-07  0.40D-08  6  6     0.15     0.04
   7      1.11810914    -0.36306501  -115.41232377     0.00000041    -0.00000034  0.19D-08  0.68D-09  6  1     0.17     0.04
   8      1.11811034    -0.36306511  -115.41232388    -0.00000010     0.00000072  0.25D-09  0.68D-10  6  3     0.19     0.04
   9      1.11811138    -0.36306499  -115.41232375     0.00000012    -0.00000037  0.12D-10  0.10D-10  6  2     0.21     0.04
  10      1.11811131    -0.36306499  -115.41232376    -0.00000000     0.00000007  0.10D-11  0.83D-12  6  5     0.23     0.04
  11      1.11811134    -0.36306499  -115.41232375     0.00000000    -0.00000000  0.18D-12  0.48D-13  6  4     0.25     0.04
  12      1.11811132    -0.36306499  -115.41232376    -0.00000000     0.00000001  0.18D-13  0.93D-14  6  1     0.27     0.04
  13      1.11811133    -0.36306499  -115.41232376    -0.00000000    -0.00000000  0.23D-14  0.88D-15  6  6     0.29     0.04
  14      1.11811133    -0.36306499  -115.41232376     0.00000000    -0.00000000  0.22D-15  0.12D-15  6  3     0.31     0.04
  15      1.11811133    -0.36306499  -115.41232376    -0.00000000    -0.00000000  0.23D-16  0.16D-16  6  2     0.33     0.04
  16      1.11811133    -0.36306499  -115.41232376    -0.00000000    -0.00000000  0.52D-17  0.15D-17  6  5     0.35     0.04
  17      1.11811133    -0.36306499  -115.41232376    -0.00000000    -0.00000000  0.50D-18  0.23D-18  6  4     0.36     0.04
  18      1.11811133    -0.36306499  -115.41232376     0.00000000    -0.00000000  0.44D-19  0.23D-19  6  6     0.38     0.04
  19      1.11811133    -0.36306499  -115.41232376    -0.00000000    -0.00000000  0.15D-20  0.14D-20  6  1     0.40     0.04
  20      1.11811133    -0.36306499  -115.41232376    -0.00000000     0.00000000  0.26D-21  0.18D-21  6  3     0.42     0.03

 Norm of t1 vector:      0.04144475      S-energy:     0.00000000      T1 diagnostic:  0.00783232
                                                                       D1 diagnostic:  0.01741648
                                                                       D2 diagnostic:  0.13434070 (internal)


 Total CPU time for triples:      0.08 sec


 RESULTS
 =======

  Reference energy                   -115.049258768672
  CCSD singlet pair energy             -0.254329508165
  CCSD triplet pair energy             -0.108735479418
  CCSD correlation energy              -0.363064987583

  Triples (T) contribution             -0.007714980471
  Total correlation energy             -0.370779968054

  CCSD total energy                  -115.412323756255
  CCSD[T] energy                     -115.420327341585
  CCSD-T energy                      -115.419889416562
 !CCSD(T) total energy               -115.420038736727

 Timing summary (sec):

 STEP                 CPU(USER)    SYS     CPU(TOT)    WALL
 Transformation          0.02      0.01      0.03      0.05
 CCSD iterations         0.41      0.09      0.50      0.73
 Triples                 0.08      0.00      0.08      0.09

 Program statistics:

 Available memory in ccsd:               999999795
 Min. memory needed in ccsd:                136177
 Max. memory used in ccsd:                  162910
 Max. memory used in cckext:                178997 (20 integral passes)



 **********************************************************************************************************************************
 DATASETS  * FILE   NREC   LENGTH (MB)   RECORD NAMES
              1      19       31.13       500      610      700      900      950      970     1000      129      960     1100   
                                          VAR    BASINP    GEOM    SYMINP    ZMAT    AOBASIS   BASIS     P2S    ABASIS      S 
                                         1400     1410     1200     1210     1080     1600     1650     1700     1380   
                                           T        V       H0       H01     AOSYM     SMH    MOLCAS    OPER     JKOP   

              2       4        0.47       700     1000      520     2100   
                                         GEOM     BASIS   MCVARS     RHF  

 PROGRAMS   *        TOTAL   CCSD(T)   RHF-SCF       INT
 CPU TIMES  *         1.10      0.54      0.06      0.36
 REAL TIME  *         3.23 SEC
 DISK USED  *        35.56 MB (local),      115.96 MB (total)
 SF USED    *         5.97 MB
 GA USED    *         0.00 MB       (max)       0.00 MB       (current)
 **********************************************************************************************************************************

 CCSD(T)/cc-pVDZ energy=   -115.420038736727

         CCSD(T)         RHF-SCF
   -115.42003874   -115.04925877
 **********************************************************************************************************************************
 Molpro calculation terminated
