
 Primary working directories    : /tmp/601555.88.gen4.q
 Secondary working directories  : /tmp/601555.88.gen4.q
 Wavefunction directory         : /home/vulcan/mel64643/wfu/
 Main file repository           : /tmp/601555.88.gen4.q/

 ARCHNAME  : Linux/x86_64
 FC        : /opt/intel/compilers_and_libraries_2016.1.150/linux/bin/intel64/ifort
 FCVERSION : 16.0.1
 BLASLIB   : -mkl
 id        : ccgc

 Nodes     nprocs
 n059         1
 ga_uses_ma=false, calling ma_init with nominal heap.
 GA-space will be limited to   8.0 MW (determined by -G option)

 Using customized tuning parameters: mindgm=10; mindgv=16; mindgc=4; mindgr=1; noblas=0; mincuda=1000; minvec=7
 default implementation of scratch files=df  

 ***,Optimization of min3
 memory,1000,m
 gthresh,energy=1.0d-12,orbital=1.0d-10,oneint=1.0d-16,twoint=1.0d-16,optgrad=1.0d-6,compress=1.0d-13
 geomtyp=xyz
 
  bohr
  geometry = {
  6
  arbitrary comment
  C   -1.3756126447   -0.0231262904    0.0000003391
  O    1.3108438489    0.1275136059    0.0000002938
  H   -2.0770081783    1.9085541291   -0.0000799622
  H   -2.1110427296   -0.9807304607    1.6803563296
  H   -2.1110358422   -0.9808614783   -1.6802841113
  H    1.9401313859   -1.5814816256   -0.0000012990
 }
 
 basis=cc-pvdz
 {rhf;maxit,200}
 {ccsd(t);maxit,200}

 Variables initialized (661), CPU time= 0.01 sec
 Commands  initialized (458), CPU time= 0.00 sec, 486 directives.
 Default parameters read. Elapsed time= 0.05 sec

 Checking input...
 Passed
1


                                         ***  PROGRAM SYSTEM MOLPRO  ***
                         Copyright, University College Cardiff Consultants Limited, 2008

                                    Version 2010.1 linked May 16 2016 07:17:05


 **********************************************************************************************************************************
 LABEL *   Optimization of min3                                                          
 Linux-4.4.3/n059(x86_64) 64 bit mpp version                                             DATE: 06-Nov-21          TIME: 15:39:46  
 **********************************************************************************************************************************

 SHA1:             9e8077add272b0f3cad6f7df79ec5211205f459d
 **********************************************************************************************************************************

 THRESHOLDS:

 ZERO    =  1.00D-12  ONEINT  =  1.00D-16  TWOINT  =  1.00D-16  PREFAC  =  1.00D-14  LOCALI  =  1.00D-09  EORDER  =  1.00D-04
 ENERGY  =  1.00D-12  ETEST   =  0.00D+00  EDENS   =  0.00D+00  THRDEDEF=  1.00D-06  GRADIENT=  1.00D-02  STEP    =  1.00D-03
 ORBITAL =  1.00D-10  CIVEC   =  1.00D-05  COEFF   =  1.00D-04  PRINTCI =  5.00D-02  PUNCHCI =  9.90D+01  OPTGRAD =  1.00D-06
 OPTENERG=  1.00D-06  OPTSTEP =  3.00D-04  THRGRAD =  1.00D-10  COMPRESS=  1.00D-13  VARMIN  =  1.00D-07  VARMAX  =  1.00D-03
 THRDOUB =  0.00D+00  THRDIV  =  1.00D-05  THRRED  =  1.00D-07  THRPSP  =  1.00D+00  THRDC   =  1.00D-10  THRCS   =  1.00D-10
 THRNRM  =  1.00D-08  THREQ   =  0.00D+00  THRDE   =  1.00D+00  THRREF  =  1.00D-05  SPARFAC =  1.00D+00  THRDLP  =  1.00D-07
 THRDIA  =  1.00D-10  THRDLS  =  1.00D-07  THRGPS  =  0.00D+00  THRKEX  =  0.00D+00  THRDIS  =  2.00D-01  THRVAR  =  1.00D-10
 THRLOC  =  1.00D-06  THRGAP  =  1.00D-06  THRLOCT = -1.00D+00  THRGAPT = -1.00D+00  THRORB  =  1.00D-06  THRMLTP =  0.00D+00
 THRCPQCI=  1.00D-10  KEXTA   =  0.00D+00  THRCOARS=  0.00D+00  SYMTOL  =  1.00D-06  GRADTOL =  1.00D-06  THROVL  =  1.00D-08
 THRORTH =  1.00D-08  GRID    =  1.00D-06  GRIDMAX =  1.00D-03  DTMAX   =  0.00D+00

 SETTING GEOMTYP        =    XYZ
 ZUNIT=BOHR
 

 Variable memory set to 1000000000 words,  buffer space   230000 words

 SETTING BASIS          =    CC-PVDZ


 Recomputing integrals since basis changed


 Using spherical harmonics

 Library entry C      S cc-pVDZ              selected for orbital group  1
 Library entry C      P cc-pVDZ              selected for orbital group  1
 Library entry C      D cc-pVDZ              selected for orbital group  1
 Library entry O      S cc-pVDZ              selected for orbital group  2
 Library entry O      P cc-pVDZ              selected for orbital group  2
 Library entry O      D cc-pVDZ              selected for orbital group  2
 Library entry H      S cc-pVDZ              selected for orbital group  3
 Library entry H      P cc-pVDZ              selected for orbital group  3

1PROGRAM * SEWARD (Integral evaluation for generally contracted gaussian basis sets)     Author: Roland Lindh, 1990

 Geometry written to block  1 of record 700


 Point group  C1  



 ATOMIC COORDINATES

 NR  ATOM    CHARGE       X              Y              Z

   1  C       6.00   -1.375612645   -0.023126290    0.000000339
   2  O       8.00    1.310843849    0.127513606    0.000000294
   3  H       1.00   -2.077008178    1.908554129   -0.000079962
   4  H       1.00   -2.111042730   -0.980730461    1.680356330
   5  H       1.00   -2.111035842   -0.980861478   -1.680284111
   6  H       1.00    1.940131386   -1.581481626   -0.000001299

 Bond lengths in Bohr (Angstrom)

 1-2  2.690676657  1-3  2.055077844  1-4  2.069168773  1-5  2.069168868  2-6  1.821172014
     ( 1.423844763)     ( 1.087500358)     ( 1.094956956)     ( 1.094957006)     ( 0.963722724)

 Bond angles

  1-2-6  107.00532212   2-1-3  106.74658906   2-1-4  112.38173234   2-1-5  112.38174330

  3-1-4  108.28441458   3-1-5  108.28424415   4-1-5  108.59832100

 NUCLEAR CHARGE:                   18
 NUMBER OF PRIMITIVE AOS:          82
 NUMBER OF SYMMETRY AOS:           80
 NUMBER OF CONTRACTIONS:           48   (  48A   )
 NUMBER OF CORE ORBITALS:           2   (   2A   )
 NUMBER OF VALENCE ORBITALS:       12   (  12A   )


 NUCLEAR REPULSION ENERGY   40.24483413


 Eigenvalues of metric

         1 0.968E-02 0.177E-01 0.368E-01 0.374E-01 0.385E-01 0.476E-01 0.477E-01 0.518E-01


 Contracted 2-electron integrals neglected if value below      1.0D-16
 AO integral compression algorithm  1   Integral accuracy      1.0D-16

     6.291 MB (compressed) written to integral file ( 98.3%)

     Node minimum: 6.291 MB, node maximum: 6.291 MB


 NUMBER OF SORTED TWO-ELECTRON INTEGRALS:     692076.     BUFFER LENGTH:  32768
 NUMBER OF SEGMENTS:   1  SEGMENT LENGTH:     692076      RECORD LENGTH: 524288

 Memory used in sort:       1.25 MW

 SORT1 READ      832256. AND WROTE      682147. INTEGRALS IN      2 RECORDS. CPU TIME:     0.01 SEC, REAL TIME:     0.01 SEC
 SORT2 READ      682147. AND WROTE      692076. INTEGRALS IN     24 RECORDS. CPU TIME:     0.02 SEC, REAL TIME:     0.02 SEC

 FILE SIZES:   FILE 1:     8.0 MBYTE,  FILE 4:     8.4 MBYTE,   TOTAL:     16.4 MBYTE

 OPERATOR DM      FOR CENTER  0  COORDINATES:    0.000000    0.000000    0.000000


 **********************************************************************************************************************************
 DATASETS  * FILE   NREC   LENGTH (MB)   RECORD NAMES
              1      19        8.03       500      610      700      900      950      970     1000      129      960     1100   
                                          VAR    BASINP    GEOM    SYMINP    ZMAT    AOBASIS   BASIS     P2S    ABASIS      S 
                                         1400     1410     1200     1210     1080     1600     1650     1300     1700   
                                           T        V       H0       H01     AOSYM     SMH    MOLCAS    ERIS     OPER   

 PROGRAMS   *        TOTAL       INT
 CPU TIMES  *         0.22      0.17
 REAL TIME  *         0.41 SEC
 DISK USED  *        23.34 MB      
 GA USED    *         0.00 MB       (max)       0.00 MB       (current)
 **********************************************************************************************************************************

1PROGRAM * RHF-SCF (CLOSED SHELL)       Authors: W. Meyer, H.-J. Werner


 NUMBER OF ELECTRONS:       9+    9-    SPACE SYMMETRY=1    SPIN SYMMETRY: Singlet 
 CONVERGENCE THRESHOLDS:    1.00E-10 (Density)    1.00E-13 (Energy)
 MAX. NUMBER OF ITERATIONS:      200
 INTERPOLATION TYPE:            DIIS
 INTERPOLATION STEPS:              2 (START)      1 (STEP)
 LEVEL SHIFTS:                  0.00 (CLOSED)  0.00 (OPEN) 



 Orbital guess generated from atomic densities. Full valence occupancy:   14

 Molecular orbital dump at record        2100.2

 ITERATION    DDIFF          GRAD             ENERGY        2-EL.EN.            DIPOLE MOMENTS         DIIS
    1      0.000D+00      0.000D+00      -115.01383605    164.272782   -0.50056   -0.90936   -0.00000    0
    2      0.000D+00      0.110D-01      -115.04225136    162.052887   -0.32073   -0.53784   -0.00000    1
    3      0.205D-01      0.532D-02      -115.04834134    163.080200   -0.40539   -0.61423   -0.00000    2
    4      0.641D-02      0.113D-02      -115.04880929    162.923586   -0.39530   -0.60265   -0.00000    3
    5      0.204D-02      0.204D-03      -115.04883087    162.930054   -0.39825   -0.59824   -0.00000    4
    6      0.438D-03      0.361D-04      -115.04883170    162.930204   -0.39860   -0.59801   -0.00000    5
    7      0.943D-04      0.754D-05      -115.04883174    162.928998   -0.39874   -0.59784   -0.00000    6
    8      0.154D-04      0.243D-05      -115.04883174    162.929391   -0.39878   -0.59782   -0.00000    7
    9      0.515D-05      0.502D-06      -115.04883174    162.929349   -0.39880   -0.59782   -0.00000    6
   10      0.144D-05      0.905D-07      -115.04883174    162.929348   -0.39880   -0.59782   -0.00000    6
   11      0.241D-06      0.337D-07      -115.04883174    162.929354   -0.39880   -0.59782   -0.00000    6
   12      0.607D-07      0.143D-07      -115.04883174    162.929352   -0.39880   -0.59782   -0.00000    7
   13      0.269D-07      0.313D-08      -115.04883174    162.929352   -0.39880   -0.59782   -0.00000    7
   14      0.787D-08      0.670D-09      -115.04883174    162.929352   -0.39880   -0.59782   -0.00000    7
   15      0.171D-08      0.156D-09      -115.04883174    162.929352   -0.39880   -0.59782   -0.00000    7
   16      0.348D-09      0.471D-10      -115.04883174    162.929352   -0.39880   -0.59782   -0.00000    7
   17      0.916D-10      0.169D-10      -115.04883174    162.929352   -0.39880   -0.59782   -0.00000    7
   18      0.434D-10      0.306D-11      -115.04883174    162.929352   -0.39880   -0.59782   -0.00000    7
   19      0.717D-11      0.628D-12      -115.04883174    162.929352   -0.39880   -0.59782   -0.00000    0

 Final occupancy:   9

 !RHF STATE 1.1 Energy               -115.048831740416
 Nuclear energy                        40.24483413
 One-electron energy                 -236.75834179
 Two-electron energy                   81.46467593
 Virial quotient                       -1.00102973
 !RHF STATE 1.1 Dipole moment          -0.39880272    -0.59781694    -0.00000276
 Dipole moment /Debye                  -1.01358902    -1.51939958    -0.00000702

 Orbital energies:

         1.1          2.1          3.1          4.1          5.1          6.1          7.1          8.1          9.1         10.1
    -20.550673   -11.274831    -1.348213    -0.921054    -0.681625    -0.612962    -0.583916    -0.497895    -0.443327     0.184192

        11.1
      0.224083


 **********************************************************************************************************************************
 DATASETS  * FILE   NREC   LENGTH (MB)   RECORD NAMES
              1      19        8.03       500      610      700      900      950      970     1000      129      960     1100   
                                          VAR    BASINP    GEOM    SYMINP    ZMAT    AOBASIS   BASIS     P2S    ABASIS      S 
                                         1400     1410     1200     1210     1080     1600     1650     1300     1700   
                                           T        V       H0       H01     AOSYM     SMH    MOLCAS    ERIS     OPER   

              2       3        0.39       700     1000     2100   
                                         GEOM     BASIS     RHF  

 PROGRAMS   *        TOTAL       RHF       INT
 CPU TIMES  *         0.32      0.10      0.17
 REAL TIME  *         0.54 SEC
 DISK USED  *        23.34 MB      
 GA USED    *         0.00 MB       (max)       0.00 MB       (current)
 **********************************************************************************************************************************


1PROGRAM * CCSD (Closed-shell coupled cluster)     Authors: C. Hampel, H.-J. Werner, 1991, M. Deegan, P.J. Knowles, 1992


 Convergence thresholds:  THRVAR = 1.00D-08  THRDEN = 1.00D-12

 CCSD(T)     terms to be evaluated (factor= 1.000)


 Number of core orbitals:           2 (   2 )
 Number of closed-shell orbitals:   7 (   7 )
 Number of external orbitals:      39 (  39 )

 Molecular orbitals read from record     2100.2  Type=RHF/CANONICAL (state 1.1)

 Number of N-1 electron functions:               7
 Number of N-2 electron functions:              28
 Number of singly external CSFs:               273
 Number of doubly external CSFs:             37401
 Total number of CSFs:                       37675

 Length of J-op  integral file:               0.00 MB
 Length of K-op  integral file:               0.19 MB
 Length of 3-ext integral record:             0.00 MB

 Memory could be reduced to 0.96 Mwords without degradation in triples

 Integral transformation finished. Total CPU:   0.02 sec, npass=  1  Memory used:   0.66 MW

 Reference energy:                   -115.04883174

 MP2 singlet pair energy:              -0.21886676
 MP2 triplet pair energy:              -0.11993120
 MP2 correlation energy:               -0.33879796
 MP2 total energy:                   -115.38762970

 SCS-MP2 correlation energy:           -0.33726397   (PS=  1.200000  PT=  0.333333)
 SCS-MP2 total energy:               -115.38609571

 ITER.      SQ.NORM     CORR.ENERGY   TOTAL ENERGY   ENERGY CHANGE        DEN1      VAR(S)    VAR(P)  DIIS     TIME
   1      1.10756544    -0.36157001  -115.41040175    -0.02277205    -0.01405468  0.92D-03  0.18D-02  1  1     0.06
   2      1.11613315    -0.36352256  -115.41235430    -0.00195254    -0.00927944  0.20D-04  0.16D-03  2  2     0.10
   3      1.11803915    -0.36365127  -115.41248301    -0.00012872    -0.00121745  0.97D-05  0.87D-05  3  3     0.14
   4      1.11856202    -0.36364994  -115.41248168     0.00000134    -0.00025799  0.35D-06  0.69D-06  4  4     0.18
   5      1.11866209    -0.36365035  -115.41248209    -0.00000041    -0.00003664  0.10D-06  0.50D-07  5  5     0.21
   6      1.11868165    -0.36364896  -115.41248070     0.00000139    -0.00000444  0.16D-07  0.42D-08  6  6     0.25
   7      1.11868655    -0.36364853  -115.41248027     0.00000043    -0.00000036  0.21D-08  0.74D-09  6  1     0.29
   8      1.11868786    -0.36364863  -115.41248037    -0.00000010     0.00000076  0.26D-09  0.75D-10  6  3     0.33
   9      1.11868895    -0.36364851  -115.41248025     0.00000013    -0.00000039  0.13D-10  0.11D-10  6  2     0.37
  10      1.11868887    -0.36364851  -115.41248025    -0.00000000     0.00000007  0.11D-11  0.90D-12  6  5     0.41
  11      1.11868890    -0.36364851  -115.41248025     0.00000000    -0.00000000  0.20D-12  0.52D-13  6  4     0.45
  12      1.11868889    -0.36364851  -115.41248025    -0.00000000     0.00000001  0.19D-13  0.11D-13  6  1     0.49
  13      1.11868889    -0.36364851  -115.41248025    -0.00000000    -0.00000000  0.24D-14  0.97D-15  6  6     0.53
  14      1.11868889    -0.36364851  -115.41248025     0.00000000    -0.00000000  0.23D-15  0.13D-15  6  3     0.57
  15      1.11868889    -0.36364851  -115.41248025    -0.00000000    -0.00000000  0.26D-16  0.17D-16  6  2     0.61
  16      1.11868889    -0.36364851  -115.41248025    -0.00000000    -0.00000000  0.58D-17  0.17D-17  6  5     0.65
  17      1.11868889    -0.36364851  -115.41248025    -0.00000000    -0.00000000  0.55D-18  0.26D-18  6  4     0.69
  18      1.11868889    -0.36364851  -115.41248025     0.00000000    -0.00000000  0.84D-19  0.44D-19  6  1     0.73
  19      1.11868889    -0.36364851  -115.41248025    -0.00000000    -0.00000000  0.97D-20  0.44D-20  6  6     0.77
  20      1.11868889    -0.36364851  -115.41248025     0.00000000     0.00000000  0.14D-20  0.57D-21  6  3     0.80

 Norm of t1 vector:      0.04193380      S-energy:    -0.00000000      T1 diagnostic:  0.00792474
                                                                       D1 diagnostic:  0.01768657


 Total CPU time for triples:      0.21 sec


 RESULTS
 =======

  Reference energy                   -115.048831740416
  CCSD singlet pair energy             -0.254877294593
  CCSD triplet pair energy             -0.108771214710
  CCSD correlation energy              -0.363648509303

  Triples (T) contribution             -0.007770818526
  Total correlation energy             -0.371419327829

  CCSD total energy                  -115.412480249719
  CCSD[T] energy                     -115.420543907050
  CCSD-T energy                      -115.420099734951
 !CCSD(T) total energy               -115.420251068245

 Timing summary (sec):

 STEP                 CPU(USER)    SYS     CPU(TOT)    WALL
 Transformation          0.02      0.01      0.03      0.03
 CCSD iterations         0.78      0.03      0.81      0.84
 Triples                 0.21      0.00      0.21      0.22

 Program statistics:

 Available memory in ccsd:               999999704
 Min. memory needed in ccsd:                136801
 Max. memory used in ccsd:                  163198
 Max. memory used in cckext:                182024 (20 integral passes)



 **********************************************************************************************************************************
 DATASETS  * FILE   NREC   LENGTH (MB)   RECORD NAMES
              1      20       10.56       500      610      700      900      950      970     1000      129      960     1100   
                                          VAR    BASINP    GEOM    SYMINP    ZMAT    AOBASIS   BASIS     P2S    ABASIS      S 
                                         1400     1410     1200     1210     1080     1600     1650     1300     1700     1380   
                                           T        V       H0       H01     AOSYM     SMH    MOLCAS    ERIS     OPER     JKOP   

              2       3        0.39       700     1000     2100   
                                         GEOM     BASIS     RHF  

 PROGRAMS   *        TOTAL   CCSD(T)       RHF       INT
 CPU TIMES  *         1.34      1.02      0.10      0.17
 REAL TIME  *         1.65 SEC
 DISK USED  *        24.77 MB      
 GA USED    *         0.00 MB       (max)       0.00 MB       (current)
 **********************************************************************************************************************************

        CCSD(T)         RHF-SCF 
   -115.42025107   -115.04883174
 **********************************************************************************************************************************
 Variable memory released
