
 Primary working directories    : /tmp/333988.16.gen6.q
 Secondary working directories  : /tmp/333988.16.gen6.q
 Wavefunction directory         : /home/vulcan/mel64643/wfu/
 Main file repository           : /tmp/333988.16.gen6.q/

 ARCHNAME  : Linux/x86_64
 FC        : /opt/intel/compilers_and_libraries_2016.1.150/linux/bin/intel64/ifort
 FCVERSION : 16.0.1
 BLASLIB   : -mkl
 id        : ccgc

 Nodes     nprocs
 n092         3
 Number of processes for MPI-2 version of Molpro:   nprocs(total)=    4   nprocs(compute)=    3   nprocs(helper)=    1
 ga_uses_ma=false, calling ma_init with nominal heap.
 GA-space will be limited to   8.0 MW (determined by -G option)

 Using customized tuning parameters: mindgm=10; mindgv=16; mindgc=4; mindgr=1; noblas=0; mincuda=1000; minvec=7
 default implementation of scratch files=sf  

 ***,Optimization of min3
 memory,1000,m
 gthresh,energy=1.0d-10,orbital=1.0d-10,oneint=1.0d-16,twoint=1.0d-16,optgrad=1.0d-6,compress=1.0d-13
 geomtyp=xyz
 
  bohr
  geometry = {
  12
  arbitrary comment
  C         -3.1048013896          1.5874370503          0.0187285452
  C         -0.8659394087         -0.0720261832         -0.6610429752
  C         -1.1189565677         -2.7849456457          0.2461457942
  O          1.3156129637          1.1099084007          0.5933208890
  O          3.4494604528          0.1189469915         -0.2529398920
  H         -4.8170231060          0.8576342499         -0.8686506615
  H         -2.8067975734          3.5263051733         -0.6124359436
  H         -3.3828337801          1.5927315998          2.0634092961
  H         -0.4509159522         -0.0028555907         -2.6796890412
  H         -2.6991910738         -3.7037512105         -0.7109789497
  H         -1.4709658672         -2.8198229350          2.2796950140
  H          0.6047088956         -3.8369349974         -0.1563310770
 }
 
 basis=cc-pvtz
 {rhf;maxit,200}
 {uccsd(t);maxit,200}

 Variables initialized (661), CPU time= 0.00 sec
 Commands  initialized (458), CPU time= 0.01 sec, 486 directives.
 Default parameters read. Elapsed time= 0.04 sec

 Checking input...
 Passed
1


                                         ***  PROGRAM SYSTEM MOLPRO  ***
                         Copyright, University College Cardiff Consultants Limited, 2008

                                    Version 2010.1 linked May 16 2016 07:17:05


 **********************************************************************************************************************************
 LABEL *   Optimization of min3                                                          
 Linux-4.4.3/n092(x86_64) 64 bit mpp version                                             DATE: 15-Jul-20          TIME: 06:42:07  
 **********************************************************************************************************************************

 SHA1:             9e8077add272b0f3cad6f7df79ec5211205f459d
 **********************************************************************************************************************************

 THRESHOLDS:

 ZERO    =  1.00D-12  ONEINT  =  1.00D-16  TWOINT  =  1.00D-16  PREFAC  =  1.00D-14  LOCALI  =  1.00D-09  EORDER  =  1.00D-04
 ENERGY  =  1.00D-10  ETEST   =  0.00D+00  EDENS   =  0.00D+00  THRDEDEF=  1.00D-06  GRADIENT=  1.00D-02  STEP    =  1.00D-03
 ORBITAL =  1.00D-10  CIVEC   =  1.00D-05  COEFF   =  1.00D-04  PRINTCI =  5.00D-02  PUNCHCI =  9.90D+01  OPTGRAD =  1.00D-06
 OPTENERG=  1.00D-06  OPTSTEP =  3.00D-04  THRGRAD =  1.00D-10  COMPRESS=  1.00D-13  VARMIN  =  1.00D-07  VARMAX  =  1.00D-03
 THRDOUB =  0.00D+00  THRDIV  =  1.00D-05  THRRED  =  1.00D-07  THRPSP  =  1.00D+00  THRDC   =  1.00D-10  THRCS   =  1.00D-10
 THRNRM  =  1.00D-08  THREQ   =  0.00D+00  THRDE   =  1.00D+00  THRREF  =  1.00D-05  SPARFAC =  1.00D+00  THRDLP  =  1.00D-07
 THRDIA  =  1.00D-10  THRDLS  =  1.00D-07  THRGPS  =  0.00D+00  THRKEX  =  0.00D+00  THRDIS  =  2.00D-01  THRVAR  =  1.00D-10
 THRLOC  =  1.00D-06  THRGAP  =  1.00D-06  THRLOCT = -1.00D+00  THRGAPT = -1.00D+00  THRORB  =  1.00D-06  THRMLTP =  0.00D+00
 THRCPQCI=  1.00D-10  KEXTA   =  0.00D+00  THRCOARS=  0.00D+00  SYMTOL  =  1.00D-06  GRADTOL =  1.00D-06  THROVL  =  1.00D-08
 THRORTH =  1.00D-08  GRID    =  1.00D-06  GRIDMAX =  1.00D-03  DTMAX   =  0.00D+00

 SETTING GEOMTYP        =    XYZ
 ZUNIT=BOHR
 

 Variable memory set to 1000000000 words,  buffer space   230000 words

 SETTING BASIS          =    CC-PVTZ


 Recomputing integrals since basis changed


 Using spherical harmonics

 Library entry C      S cc-pVTZ              selected for orbital group  1
 Library entry C      P cc-pVTZ              selected for orbital group  1
 Library entry C      D cc-pVTZ              selected for orbital group  1
 Library entry C      F cc-pVTZ              selected for orbital group  1
 Library entry O      S cc-pVTZ              selected for orbital group  2
 Library entry O      P cc-pVTZ              selected for orbital group  2
 Library entry O      D cc-pVTZ              selected for orbital group  2
 Library entry O      F cc-pVTZ              selected for orbital group  2
 Library entry H      S cc-pVTZ              selected for orbital group  3
 Library entry H      P cc-pVTZ              selected for orbital group  3
 Library entry H      D cc-pVTZ              selected for orbital group  3

1PROGRAM * SEWARD (Integral evaluation for generally contracted gaussian basis sets)     Author: Roland Lindh, 1990

 Geometry written to block  1 of record 700


 Point group  C1  



 ATOMIC COORDINATES

 NR  ATOM    CHARGE       X              Y              Z

   1  C       6.00   -3.104801390    1.587437050    0.018728545
   2  C       6.00   -0.865939409   -0.072026183   -0.661042975
   3  C       6.00   -1.118956568   -2.784945646    0.246145794
   4  O       8.00    1.315612964    1.109908401    0.593320889
   5  O       8.00    3.449460453    0.118946992   -0.252939892
   6  H       1.00   -4.817023106    0.857634250   -0.868650662
   7  H       1.00   -2.806797573    3.526305173   -0.612435944
   8  H       1.00   -3.382833780    1.592731600    2.063409296
   9  H       1.00   -0.450915952   -0.002855591   -2.679689041
  10  H       1.00   -2.699191074   -3.703751211   -0.710978950
  11  H       1.00   -1.470965867   -2.819822935    2.279695014
  12  H       1.00    0.604708896   -3.836934997   -0.156331077

 Bond lengths in Bohr (Angstrom)

 1-2  2.868520614  1-6  2.061978950  1-7  2.060675735  1-8  2.063504159  2-3  2.871748798
     ( 1.517955732)     ( 1.091152266)     ( 1.090462634)     ( 1.091959372)     ( 1.519664014)

  2- 4  2.780210211   2- 9  2.062028365   3-10  2.063354680   3-11  2.064085609   3-12  2.059051203
       ( 1.471223880)       ( 1.091178415)       ( 1.091880271)       ( 1.092267062)       ( 1.089602969)

 4-5  2.500293369
     ( 1.323098267)

 Bond angles

  1-2-3  113.75869295   1-2-4  105.04486636   1-2-9  111.69552746   2-1-6  109.96022843

  2- 1- 7  111.03008962   2- 1- 8  109.96591738   2- 3-10  109.97489995   2- 3-11  110.01193460

  2- 3-12  110.31307433   2- 4- 5  110.39372415   3- 2- 4  109.16068711   3- 2- 9  111.01900729

  4-2-9  105.63407056   6-1-7  108.74058708   6-1-8  108.38811232   7-1-8  108.69721827

 10- 3-11  108.59473114  10- 3-12  108.84044257  11- 3-12  109.06886226

 NUCLEAR CHARGE:                   41
 NUMBER OF PRIMITIVE AOS:         354
 NUMBER OF SYMMETRY AOS:          322
 NUMBER OF CONTRACTIONS:          248   ( 248A   )
 NUMBER OF CORE ORBITALS:           5   (   5A   )
 NUMBER OF VALENCE ORBITALS:       27   (  27A   )


 NUCLEAR REPULSION ENERGY  186.40186695


 Eigenvalues of metric

         1 0.813E-03 0.958E-03 0.110E-02 0.124E-02 0.137E-02 0.150E-02 0.160E-02 0.165E-02


 Contracted 2-electron integrals neglected if value below      1.0D-16
 AO integral compression algorithm  1   Integral accuracy      1.0D-16

     3369.337 MB (compressed) written to integral file ( 82.0%)

     Node minimum: 904.659 MB, node maximum: 1482.686 MB


 NUMBER OF SORTED TWO-ELECTRON INTEGRALS:  158903334.     BUFFER LENGTH:  32768
 NUMBER OF SEGMENTS:  10  SEGMENT LENGTH:   15997437      RECORD LENGTH: 524288

 Memory used in sort:      16.55 MW

 SORT1 READ   513502727. AND WROTE   152588101. INTEGRALS IN    442 RECORDS. CPU TIME:     9.13 SEC, REAL TIME:    10.36 SEC
 SORT2 READ   459268073. AND WROTE   476679126. INTEGRALS IN  10353 RECORDS. CPU TIME:     1.60 SEC, REAL TIME:     2.59 SEC

 Node minimum:   158882750.  Node maximum:   158903334. integrals

 OPERATOR DM      FOR CENTER  0  COORDINATES:    0.000000    0.000000    0.000000


 **********************************************************************************************************************************
 DATASETS  * FILE   NREC   LENGTH (MB)   RECORD NAMES
              1      18        5.04       500      610      700      900      950      970     1000      129      960     1100   
                                          VAR    BASINP    GEOM    SYMINP    ZMAT    AOBASIS   BASIS     P2S    ABASIS      S 
                                         1400     1410     1200     1210     1080     1600     1650     1700   
                                           T        V       H0       H01     AOSYM     SMH    MOLCAS    OPER   

 PROGRAMS   *        TOTAL       INT
 CPU TIMES  *        19.03     18.97
 REAL TIME  *        21.92 SEC
 DISK USED  *         9.12 GB      
 GA USED    *         0.01 MB       (max)       0.00 MB       (current)
 **********************************************************************************************************************************

1PROGRAM * RHF-SCF (OPEN SHELL)       Authors: W. Meyer, H.-J. Werner


 NUMBER OF ELECTRONS:      21+   20-    SPACE SYMMETRY=1    SPIN SYMMETRY: Doublet 
 CONVERGENCE THRESHOLDS:    1.00E-10 (Density)    1.00E-11 (Energy)
 MAX. NUMBER OF ITERATIONS:      200
 INTERPOLATION TYPE:            DIIS
 INTERPOLATION STEPS:              2 (START)      1 (STEP)
 LEVEL SHIFTS:                 -0.30 (CLOSED)  0.00 (OPEN) 



 Orbital guess generated from atomic densities. Full valence occupancy:   32

 Molecular orbital dump at record        2100.2

 ITERATION    DDIFF          GRAD             ENERGY        2-EL.EN.            DIPOLE MOMENTS         DIIS
    1      0.000D+00      0.000D+00      -267.26075570    559.352111   -1.77353   -0.06639   -0.09252    0
    2      0.000D+00      0.326D-02      -267.33415799    562.221630   -1.01924   -0.43506   -0.36161    1
    3      0.471D-02      0.230D-02      -267.36083604    561.174905   -1.19323   -0.24481   -0.21754    2
    4      0.212D-02      0.547D-03      -267.36907958    561.358411   -0.98295   -0.31863   -0.29934    3
    5      0.926D-03      0.485D-03      -267.37331075    561.401904   -0.92760   -0.32091   -0.30381    4
    6      0.583D-03      0.272D-03      -267.37523550    561.369404   -0.88669   -0.31442   -0.30178    5
    7      0.484D-03      0.133D-03      -267.37557122    561.355339   -0.89662   -0.30270   -0.29353    6
    8      0.257D-03      0.355D-04      -267.37559285    561.352668   -0.89613   -0.29953   -0.29209    7
    9      0.840D-04      0.188D-04      -267.37560360    561.352872   -0.89867   -0.30003   -0.29213    8
   10      0.445D-04      0.818D-05      -267.37560540    561.352765   -0.89983   -0.29939   -0.29183    9
   11      0.198D-04      0.318D-05      -267.37560565    561.352714   -0.90045   -0.29924   -0.29166    9
   12      0.781D-05      0.148D-05      -267.37560571    561.352937   -0.90059   -0.29933   -0.29171    9
   13      0.367D-05      0.523D-06      -267.37560571    561.352988   -0.90060   -0.29939   -0.29174    9
   14      0.147D-05      0.295D-06      -267.37560572    561.352988   -0.90059   -0.29941   -0.29174    9
   15      0.803D-06      0.143D-06      -267.37560572    561.352995   -0.90059   -0.29942   -0.29174    9
   16      0.404D-06      0.705D-07      -267.37560572    561.352997   -0.90058   -0.29942   -0.29174    9
   17      0.164D-06      0.316D-07      -267.37560572    561.352992   -0.90058   -0.29942   -0.29175    9
   18      0.964D-07      0.168D-07      -267.37560572    561.352990   -0.90058   -0.29942   -0.29174    9
   19      0.482D-07      0.707D-08      -267.37560572    561.352992   -0.90058   -0.29942   -0.29174    9
   20      0.184D-07      0.263D-08      -267.37560572    561.352991   -0.90058   -0.29942   -0.29174    9
   21      0.809D-08      0.175D-08      -267.37560572    561.352991   -0.90058   -0.29942   -0.29174    9
   22      0.594D-08      0.131D-08      -267.37560572    561.352991   -0.90058   -0.29942   -0.29174    9
   23      0.567D-08      0.997D-09      -267.37560572    561.352991   -0.90058   -0.29942   -0.29174    9
   24      0.583D-08      0.852D-09      -267.37560572    561.352991   -0.90058   -0.29942   -0.29174    9
   25      0.909D-08      0.655D-09      -267.37560572    561.352991   -0.90058   -0.29942   -0.29174    9
   26      0.124D-07      0.374D-09      -267.37560572    561.352991   -0.90058   -0.29942   -0.29174    9
   27      0.863D-08      0.196D-09      -267.37560572    561.352991   -0.90058   -0.29942   -0.29174    9
   28      0.327D-08      0.892D-10      -267.37560572    561.352991   -0.90058   -0.29942   -0.29174    9
   29      0.102D-08      0.410D-10      -267.37560572    561.352991   -0.90058   -0.29942   -0.29174    9
   30      0.208D-09      0.187D-10      -267.37560572    561.352991   -0.90058   -0.29942   -0.29174    9
   31      0.703D-10      0.127D-10      -267.37560572    561.352991   -0.90058   -0.29942   -0.29174    0

 Final alpha occupancy:  21
 Final beta  occupancy:  20

 !RHF STATE 1.1 Energy               -267.375605717030
 Nuclear energy                       186.40186695
 One-electron energy                 -734.45396827
 Two-electron energy                  280.67649560
 Virial quotient                       -1.00123778
 !RHF STATE 1.1 Dipole moment          -0.90057982    -0.29941734    -0.29174390
 Dipole moment /Debye                  -2.28889566    -0.76099313    -0.74149045

 Orbital energies:

         1.1          2.1          3.1          4.1          5.1          6.1          7.1          8.1          9.1         10.1
    -20.648304   -20.640295   -11.298375   -11.229414   -11.225969    -1.522291    -1.169002    -1.034192    -0.952656    -0.819478

        11.1         12.1         13.1         14.1         15.1         16.1         17.1         18.1         19.1         20.1
     -0.693967    -0.667178    -0.651638    -0.595181    -0.563033    -0.557338    -0.544809    -0.501509    -0.489972    -0.464554

        21.1         22.1         23.1
     -0.562666     0.137667     0.174796


 **********************************************************************************************************************************
 DATASETS  * FILE   NREC   LENGTH (MB)   RECORD NAMES
              1      18        5.04       500      610      700      900      950      970     1000      129      960     1100   
                                          VAR    BASINP    GEOM    SYMINP    ZMAT    AOBASIS   BASIS     P2S    ABASIS      S 
                                         1400     1410     1200     1210     1080     1600     1650     1700   
                                           T        V       H0       H01     AOSYM     SMH    MOLCAS    OPER   

              2       3        2.21       700     1000     2100   
                                         GEOM     BASIS     RHF  

 PROGRAMS   *        TOTAL       RHF       INT
 CPU TIMES  *        62.84     43.81     18.97
 REAL TIME  *        68.88 SEC
 DISK USED  *         9.16 GB      
 SF USED    *         0.25 MB      
 GA USED    *         0.01 MB       (max)       0.00 MB       (current)
 **********************************************************************************************************************************


1PROGRAM * CCSD (Unrestricted open-shell coupled cluster)     Authors: C. Hampel, H.-J. Werner, 1991, M. Deegan, P.J. Knowles, 1992


 Convergence thresholds:  THRVAR = 1.00D-08  THRDEN = 1.00D-10

 CCSD(T)     terms to be evaluated (factor= 1.000)


 Number of core orbitals:           5 (   5 )
 Number of closed-shell orbitals:  15 (  15 )
 Number of active  orbitals:        1 (   1 )
 Number of external orbitals:     227 ( 227 )

 Memory could be reduced to 332.02 Mwords without degradation in triples

 Number of N-1 electron functions:              31
 Number of N-2 electron functions:             465
 Number of singly external CSFs:              7068
 Number of doubly external CSFs:          18353430
 Total number of CSFs:                    18360498

 Molecular orbitals read from record     2100.2  Type=RHF/CANONICAL (state 1.1)

 Integral transformation finished. Total CPU:  20.64 sec, npass=  1  Memory used: 145.25 MW

 Starting RMP2 calculation

 ITER.      SQ.NORM     CORR.ENERGY   TOTAL ENERGY   ENERGY CHANGE        DEN1      VAR(S)    VAR(P)  DIIS     TIME
   1      1.26571813    -0.96781575  -268.34342147    -0.96781575    -0.00324378  0.26D-04  0.11D-02  1  1    24.04
   2      1.26851238    -0.97131353  -268.34691924    -0.00349778    -0.00000667  0.10D-05  0.23D-05  2  2    26.67
   3      1.26859252    -0.97136656  -268.34697227    -0.00005303    -0.00000008  0.53D-07  0.11D-07  3  3    29.45
   4      1.26859422    -0.97136636  -268.34697208     0.00000020    -0.00000000  0.16D-08  0.12D-09  4  4    32.41
   5      1.26859447    -0.97136644  -268.34697216    -0.00000009    -0.00000000  0.19D-10  0.45D-11  5  5    35.49
   6      1.26859453    -0.97136648  -268.34697219    -0.00000003    -0.00000000  0.50D-13  0.56D-13  6  6    39.13
   7      1.26859453    -0.97136648  -268.34697219     0.00000000    -0.00000000  0.15D-14  0.85D-15  6  1    42.87
   8      1.26859453    -0.97136648  -268.34697219     0.00000000    -0.00000000  0.16D-16  0.79D-17  6  2    46.56
   9      1.26859453    -0.97136648  -268.34697219    -0.00000000    -0.00000000  0.31D-18  0.10D-18  6  3    49.84

 Norm of t1 vector:      0.04588635      S-energy:    -0.00446693      T1 diagnostic:  0.00074333
 Norm of t2 vector:      0.51622570      P-energy:    -0.96689954
                                         Alpha-Beta:  -0.73730329
                                         Alpha-Alpha: -0.11898867
                                         Beta-Beta:   -0.11060759

 Spin contamination <S**2-Sz**2-Sz>     0.00145188
  Reference energy                   -267.375605717032
  RHF-RMP2 correlation energy          -0.971366476574
 !RHF-RMP2 energy                    -268.346972193606

 Starting UCCSD calculation

 ITER.      SQ.NORM     CORR.ENERGY   TOTAL ENERGY   ENERGY CHANGE        DEN1      VAR(S)    VAR(P)  DIIS     TIME
   1      1.28017169    -0.97940144  -268.35500716    -0.97940144    -0.02939473  0.65D-02  0.54D-02  1  1   126.69
   2      1.30664644    -1.00607266  -268.38167838    -0.02667122    -0.00364710  0.62D-03  0.97D-03  2  2   203.07
   3      1.32335826    -1.01291711  -268.38852283    -0.00684445    -0.00091470  0.75D-03  0.76D-04  3  3   279.87
   4      1.33463968    -1.01558602  -268.39119174    -0.00266891    -0.00038598  0.31D-03  0.33D-04  4  4   356.60
   5      1.34974347    -1.01758693  -268.39319265    -0.00200091    -0.00011820  0.10D-03  0.90D-05  5  5   433.59
   6      1.36130583    -1.01861256  -268.39421828    -0.00102563    -0.00001816  0.93D-05  0.32D-05  6  6   510.73
   7      1.36499716    -1.01885328  -268.39445900    -0.00024072    -0.00000318  0.16D-05  0.61D-06  6  1   588.00
   8      1.36560437    -1.01889554  -268.39450125    -0.00004225    -0.00000068  0.27D-06  0.15D-06  6  2   665.27
   9      1.36592691    -1.01891412  -268.39451984    -0.00001859    -0.00000015  0.67D-07  0.32D-07  6  4   742.47
  10      1.36591326    -1.01891285  -268.39451857     0.00000127    -0.00000002  0.11D-07  0.43D-08  6  3   819.65
  11      1.36597635    -1.01891801  -268.39452372    -0.00000515    -0.00000000  0.23D-08  0.95D-09  6  5   896.90
  12      1.36596869    -1.01891549  -268.39452121     0.00000251    -0.00000000  0.95D-09  0.21D-09  6  6   974.27
  13      1.36596424    -1.01891433  -268.39452005     0.00000116    -0.00000000  0.54D-09  0.52D-10  6  1  1051.49
  14      1.36595143    -1.01891284  -268.39451856     0.00000149    -0.00000000  0.34D-09  0.18D-10  6  2  1128.94
  15      1.36594577    -1.01891217  -268.39451788     0.00000068    -0.00000000  0.28D-09  0.14D-10  6  3  1206.07
  16      1.36594297    -1.01891201  -268.39451773     0.00000016    -0.00000000  0.21D-09  0.11D-10  6  4  1283.43
  17      1.36594215    -1.01891199  -268.39451771     0.00000002    -0.00000000  0.12D-09  0.11D-10  6  5  1360.70
  18      1.36594435    -1.01891214  -268.39451786    -0.00000015    -0.00000000  0.27D-10  0.49D-11  6  6  1438.20
  19      1.36594733    -1.01891244  -268.39451816    -0.00000030    -0.00000000  0.27D-11  0.16D-11  6  2  1515.71
  20      1.36594675    -1.01891231  -268.39451802     0.00000013    -0.00000000  0.63D-12  0.17D-12  6  1  1598.99
  21      1.36594706    -1.01891235  -268.39451807    -0.00000005    -0.00000000  0.21D-12  0.58D-13  6  4  1695.83
  22      1.36594694    -1.01891233  -268.39451805     0.00000002    -0.00000000  0.72D-13  0.19D-13  6  2  1772.86
  23      1.36594700    -1.01891234  -268.39451806    -0.00000001    -0.00000000  0.20D-13  0.39D-14  6  3  1849.69
  24      1.36594693    -1.01891233  -268.39451805     0.00000001    -0.00000000  0.22D-14  0.72D-15  6  5  1927.12
  25      1.36594691    -1.01891233  -268.39451805     0.00000000    -0.00000000  0.67D-15  0.20D-15  6  6  2004.59
  26      1.36594691    -1.01891233  -268.39451805     0.00000000    -0.00000000  0.35D-15  0.71D-16  6  1  2081.67
  27      1.36594691    -1.01891233  -268.39451805    -0.00000000    -0.00000000  0.21D-15  0.17D-16  6  4  2159.05
  28      1.36594692    -1.01891233  -268.39451805    -0.00000000    -0.00000000  0.16D-15  0.88D-17  6  2  2236.54
  29      1.36594692    -1.01891233  -268.39451805    -0.00000000    -0.00000000  0.12D-15  0.65D-17  6  3  2314.09
  30      1.36594692    -1.01891233  -268.39451805     0.00000000    -0.00000000  0.65D-16  0.60D-17  6  5  2390.97

 Norm of t1 vector:      0.23147997      S-energy:    -0.00501482      T1 diagnostic:  0.02852583
                                                                       D1 diagnostic:  0.14610694
 Norm of t2 vector:      0.55889528      P-energy:    -1.01389751
                                         Alpha-Beta:  -0.80164617
                                         Alpha-Alpha: -0.10865396
                                         Beta-Beta:   -0.10359738

 Singles amplitudes (print threshold =  0.500E-01):

         I         SYM. A    A   T(IA) [Beta-Beta]

         8         1         1     -0.09592084
         9         1         1      0.10016331
        11         1         1     -0.05375183
        12         1         1     -0.07565697
        14         1         1     -0.11101965

 Spin contamination <S**2-Sz**2-Sz>     0.00176066

 Memory could be reduced to 360.52 Mwords without degradation in triples
 

 RESULTS
 =======

  Reference energy                   -267.375605717032
  UCCSD singles energy                 -0.005014820232
  UCCSD pair energy                    -1.013897512253
  UCCSD correlation energy             -1.018912332485
  Triples (T) contribution             -0.040905497913
  Total correlation energy             -1.059817830399
 
  RHF-UCCSD energy                   -268.394518049517
  RHF-UCCSD[T] energy                -268.438761263412
  RHF-UCCSD-T energy                 -268.434921856750
 !RHF-UCCSD(T) energy                -268.435423547431

 Program statistics:

 Available memory in ccsd:               999997692
 Min. memory needed in ccsd:              51505734
 Max. memory used in ccsd:                74803578
 Max. memory used in cckext:              59475747 (30 integral passes)
 Max. memory used in cckint:             145249478 ( 1 integral passes)



 **********************************************************************************************************************************
 DATASETS  * FILE   NREC   LENGTH (MB)   RECORD NAMES
              1      18        5.04       500      610      700      900      950      970     1000      129      960     1100   
                                          VAR    BASINP    GEOM    SYMINP    ZMAT    AOBASIS   BASIS     P2S    ABASIS      S 
                                         1400     1410     1200     1210     1080     1600     1650     1700   
                                           T        V       H0       H01     AOSYM     SMH    MOLCAS    OPER   

              2       3        2.21       700     1000     2100   
                                         GEOM     BASIS     RHF  

 PROGRAMS   *        TOTAL  UCCSD(T)       RHF       INT
 CPU TIMES  *      3856.03   3793.19     43.81     18.97
 REAL TIME  *      3944.14 SEC
 DISK USED  *        16.14 GB      
 SF USED    *         6.57 GB      
 GA USED    *         0.01 MB       (max)       0.00 MB       (current)
 **********************************************************************************************************************************

        UCCSD(T)        RHF-SCF 
   -268.43542355   -267.37560572
 **********************************************************************************************************************************
 Variable memory released
