
 Primary working directories    : /tmp/601555.66.debug.q
 Secondary working directories  : /tmp/601555.66.debug.q
 Wavefunction directory         : /home/vulcan/mel64643/wfu/
 Main file repository           : /tmp/601555.66.debug.q/

 ARCHNAME  : Linux/x86_64
 FC        : /opt/intel/compilers_and_libraries_2016.1.150/linux/bin/intel64/ifort
 FCVERSION : 16.0.1
 BLASLIB   : -mkl
 id        : ccgc

 Nodes     nprocs
 n044         1
 ga_uses_ma=false, calling ma_init with nominal heap.
 GA-space will be limited to   8.0 MW (determined by -G option)

 Using customized tuning parameters: mindgm=10; mindgv=16; mindgc=4; mindgr=1; noblas=0; mincuda=1000; minvec=7
 default implementation of scratch files=df  

 ***,Optimization of min3
 memory,1000,m
 gthresh,energy=1.0d-12,orbital=1.0d-10,oneint=1.0d-16,twoint=1.0d-16,optgrad=1.0d-6,compress=1.0d-13
 geomtyp=xyz
 
  bohr
  geometry = {
  6
  arbitrary comment
  C   -1.3785426120   -0.0244565290   -0.0027262326
  O    1.3078920990    0.1179100309    0.0008960842
  H   -2.0777602296    1.9112664762    0.0008502749
  H   -2.1151539194   -0.9783014971    1.6825498097
  H   -2.1153506176   -0.9791335311   -1.6813931434
  H    1.9551911196   -1.5774170699   -0.0001852028
 }
 
 basis=cc-pvdz
 {rhf;maxit,200}
 {ccsd(t);maxit,200}

 Variables initialized (661), CPU time= 0.00 sec
 Commands  initialized (458), CPU time= 0.00 sec, 486 directives.
 Default parameters read. Elapsed time= 0.06 sec

 Checking input...
 Passed
1


                                         ***  PROGRAM SYSTEM MOLPRO  ***
                         Copyright, University College Cardiff Consultants Limited, 2008

                                    Version 2010.1 linked May 16 2016 07:17:05


 **********************************************************************************************************************************
 LABEL *   Optimization of min3                                                          
 Linux-4.4.3/n044(x86_64) 64 bit mpp version                                             DATE: 06-Nov-21          TIME: 15:39:16  
 **********************************************************************************************************************************

 SHA1:             9e8077add272b0f3cad6f7df79ec5211205f459d
 **********************************************************************************************************************************

 THRESHOLDS:

 ZERO    =  1.00D-12  ONEINT  =  1.00D-16  TWOINT  =  1.00D-16  PREFAC  =  1.00D-14  LOCALI  =  1.00D-09  EORDER  =  1.00D-04
 ENERGY  =  1.00D-12  ETEST   =  0.00D+00  EDENS   =  0.00D+00  THRDEDEF=  1.00D-06  GRADIENT=  1.00D-02  STEP    =  1.00D-03
 ORBITAL =  1.00D-10  CIVEC   =  1.00D-05  COEFF   =  1.00D-04  PRINTCI =  5.00D-02  PUNCHCI =  9.90D+01  OPTGRAD =  1.00D-06
 OPTENERG=  1.00D-06  OPTSTEP =  3.00D-04  THRGRAD =  1.00D-10  COMPRESS=  1.00D-13  VARMIN  =  1.00D-07  VARMAX  =  1.00D-03
 THRDOUB =  0.00D+00  THRDIV  =  1.00D-05  THRRED  =  1.00D-07  THRPSP  =  1.00D+00  THRDC   =  1.00D-10  THRCS   =  1.00D-10
 THRNRM  =  1.00D-08  THREQ   =  0.00D+00  THRDE   =  1.00D+00  THRREF  =  1.00D-05  SPARFAC =  1.00D+00  THRDLP  =  1.00D-07
 THRDIA  =  1.00D-10  THRDLS  =  1.00D-07  THRGPS  =  0.00D+00  THRKEX  =  0.00D+00  THRDIS  =  2.00D-01  THRVAR  =  1.00D-10
 THRLOC  =  1.00D-06  THRGAP  =  1.00D-06  THRLOCT = -1.00D+00  THRGAPT = -1.00D+00  THRORB  =  1.00D-06  THRMLTP =  0.00D+00
 THRCPQCI=  1.00D-10  KEXTA   =  0.00D+00  THRCOARS=  0.00D+00  SYMTOL  =  1.00D-06  GRADTOL =  1.00D-06  THROVL  =  1.00D-08
 THRORTH =  1.00D-08  GRID    =  1.00D-06  GRIDMAX =  1.00D-03  DTMAX   =  0.00D+00

 SETTING GEOMTYP        =    XYZ
 ZUNIT=BOHR
 

 Variable memory set to 1000000000 words,  buffer space   230000 words

 SETTING BASIS          =    CC-PVDZ


 Recomputing integrals since basis changed


 Using spherical harmonics

 Library entry C      S cc-pVDZ              selected for orbital group  1
 Library entry C      P cc-pVDZ              selected for orbital group  1
 Library entry C      D cc-pVDZ              selected for orbital group  1
 Library entry O      S cc-pVDZ              selected for orbital group  2
 Library entry O      P cc-pVDZ              selected for orbital group  2
 Library entry O      D cc-pVDZ              selected for orbital group  2
 Library entry H      S cc-pVDZ              selected for orbital group  3
 Library entry H      P cc-pVDZ              selected for orbital group  3

1PROGRAM * SEWARD (Integral evaluation for generally contracted gaussian basis sets)     Author: Roland Lindh, 1990

 Geometry written to block  1 of record 700


 Point group  C1  



 ATOMIC COORDINATES

 NR  ATOM    CHARGE       X              Y              Z

   1  C       6.00   -1.378542612   -0.024456529   -0.002726233
   2  O       8.00    1.307892099    0.117910031    0.000896084
   3  H       1.00   -2.077760230    1.911266476    0.000850275
   4  H       1.00   -2.115153919   -0.978301497    1.682549810
   5  H       1.00   -2.115350618   -0.979133531   -1.681393143
   6  H       1.00    1.955191120   -1.577417070   -0.000185203

 Bond lengths in Bohr (Angstrom)

 1-2  2.690206835  1-3  2.058140331  1-4  2.071852258  1-5  2.066934158  2-6  1.814698644
     ( 1.423596145)     ( 1.089120956)     ( 1.096376995)     ( 1.093774449)     ( 0.960297164)

 Bond angles

  1-2-6  107.86394054   2-1-3  106.82691043   2-1-4  112.22857919   2-1-5  112.42727446

  3-1-4  108.10743294   3-1-5  108.34353128   4-1-5  108.73778597

 NUCLEAR CHARGE:                   18
 NUMBER OF PRIMITIVE AOS:          82
 NUMBER OF SYMMETRY AOS:           80
 NUMBER OF CONTRACTIONS:           48   (  48A   )
 NUMBER OF CORE ORBITALS:           2   (   2A   )
 NUMBER OF VALENCE ORBITALS:       12   (  12A   )


 NUCLEAR REPULSION ENERGY   40.24905748


 Eigenvalues of metric

         1 0.968E-02 0.177E-01 0.369E-01 0.375E-01 0.382E-01 0.474E-01 0.479E-01 0.519E-01


 Contracted 2-electron integrals neglected if value below      1.0D-16
 AO integral compression algorithm  1   Integral accuracy      1.0D-16

     6.816 MB (compressed) written to integral file (100.0%)

     Node minimum: 6.816 MB, node maximum: 6.816 MB


 NUMBER OF SORTED TWO-ELECTRON INTEGRALS:     692076.     BUFFER LENGTH:  32768
 NUMBER OF SEGMENTS:   1  SEGMENT LENGTH:     692076      RECORD LENGTH: 524288

 Memory used in sort:       1.25 MW

 SORT1 READ      832256. AND WROTE      682150. INTEGRALS IN      2 RECORDS. CPU TIME:     0.01 SEC, REAL TIME:     0.02 SEC
 SORT2 READ      682150. AND WROTE      692076. INTEGRALS IN     26 RECORDS. CPU TIME:     0.02 SEC, REAL TIME:     0.02 SEC

 FILE SIZES:   FILE 1:     8.4 MBYTE,  FILE 4:     8.4 MBYTE,   TOTAL:     16.8 MBYTE

 OPERATOR DM      FOR CENTER  0  COORDINATES:    0.000000    0.000000    0.000000


 **********************************************************************************************************************************
 DATASETS  * FILE   NREC   LENGTH (MB)   RECORD NAMES
              1      19        8.39       500      610      700      900      950      970     1000      129      960     1100   
                                          VAR    BASINP    GEOM    SYMINP    ZMAT    AOBASIS   BASIS     P2S    ABASIS      S 
                                         1400     1410     1200     1210     1080     1600     1650     1300     1700   
                                           T        V       H0       H01     AOSYM     SMH    MOLCAS    ERIS     OPER   

 PROGRAMS   *        TOTAL       INT
 CPU TIMES  *         0.34      0.29
 REAL TIME  *         0.53 SEC
 DISK USED  *        24.23 MB      
 GA USED    *         0.00 MB       (max)       0.00 MB       (current)
 **********************************************************************************************************************************

1PROGRAM * RHF-SCF (CLOSED SHELL)       Authors: W. Meyer, H.-J. Werner


 NUMBER OF ELECTRONS:       9+    9-    SPACE SYMMETRY=1    SPIN SYMMETRY: Singlet 
 CONVERGENCE THRESHOLDS:    1.00E-10 (Density)    1.00E-13 (Energy)
 MAX. NUMBER OF ITERATIONS:      200
 INTERPOLATION TYPE:            DIIS
 INTERPOLATION STEPS:              2 (START)      1 (STEP)
 LEVEL SHIFTS:                  0.00 (CLOSED)  0.00 (OPEN) 



 Orbital guess generated from atomic densities. Full valence occupancy:   14

 Molecular orbital dump at record        2100.2

 ITERATION    DDIFF          GRAD             ENERGY        2-EL.EN.            DIPOLE MOMENTS         DIIS
    1      0.000D+00      0.000D+00      -115.01416016    164.283152   -0.49484   -0.89971   -0.00088    0
    2      0.000D+00      0.110D-01      -115.04247883    162.064119   -0.31660   -0.53555   -0.00130    1
    3      0.205D-01      0.531D-02      -115.04852966    163.090083   -0.40048   -0.61033   -0.00172    2
    4      0.640D-02      0.112D-02      -115.04899334    162.934090   -0.39037   -0.59922   -0.00186    3
    5      0.204D-02      0.202D-03      -115.04901432    162.940417   -0.39318   -0.59492   -0.00193    4
    6      0.433D-03      0.354D-04      -115.04901511    162.940585   -0.39348   -0.59471   -0.00195    5
    7      0.929D-04      0.735D-05      -115.04901514    162.939392   -0.39361   -0.59454   -0.00195    6
    8      0.150D-04      0.237D-05      -115.04901514    162.939772   -0.39365   -0.59451   -0.00195    7
    9      0.506D-05      0.488D-06      -115.04901514    162.939732   -0.39366   -0.59451   -0.00195    6
   10      0.141D-05      0.867D-07      -115.04901514    162.939731   -0.39366   -0.59451   -0.00195    6
   11      0.234D-06      0.325D-07      -115.04901514    162.939737   -0.39366   -0.59451   -0.00195    6
   12      0.592D-07      0.135D-07      -115.04901514    162.939735   -0.39366   -0.59451   -0.00195    7
   13      0.249D-07      0.306D-08      -115.04901514    162.939735   -0.39366   -0.59451   -0.00195    7
   14      0.758D-08      0.647D-09      -115.04901514    162.939735   -0.39366   -0.59451   -0.00195    7
   15      0.165D-08      0.151D-09      -115.04901514    162.939735   -0.39366   -0.59451   -0.00195    7
   16      0.335D-09      0.452D-10      -115.04901514    162.939735   -0.39366   -0.59451   -0.00195    7
   17      0.869D-10      0.164D-10      -115.04901514    162.939735   -0.39366   -0.59451   -0.00195    7
   18      0.420D-10      0.309D-11      -115.04901514    162.939735   -0.39366   -0.59451   -0.00195    7
   19      0.719D-11      0.753D-12      -115.04901514    162.939735   -0.39366   -0.59451   -0.00195    7
   20      0.183D-11      0.305D-12      -115.04901514    162.939735   -0.39366   -0.59451   -0.00195    0

 Final occupancy:   9

 !RHF STATE 1.1 Energy               -115.049015141644
 Nuclear energy                        40.24905748
 One-electron energy                 -236.76794003
 Two-electron energy                   81.46986741
 Virial quotient                       -1.00101312
 !RHF STATE 1.1 Dipole moment          -0.39366350    -0.59451147    -0.00195051
 Dipole moment /Debye                  -1.00052728    -1.51099845    -0.00495738

 Orbital energies:

         1.1          2.1          3.1          4.1          5.1          6.1          7.1          8.1          9.1         10.1
    -20.549848   -11.275106    -1.348358    -0.921430    -0.681985    -0.612984    -0.584372    -0.496816    -0.443204     0.184666

        11.1
      0.223990


 **********************************************************************************************************************************
 DATASETS  * FILE   NREC   LENGTH (MB)   RECORD NAMES
              1      19        8.39       500      610      700      900      950      970     1000      129      960     1100   
                                          VAR    BASINP    GEOM    SYMINP    ZMAT    AOBASIS   BASIS     P2S    ABASIS      S 
                                         1400     1410     1200     1210     1080     1600     1650     1300     1700   
                                           T        V       H0       H01     AOSYM     SMH    MOLCAS    ERIS     OPER   

              2       3        0.39       700     1000     2100   
                                         GEOM     BASIS     RHF  

 PROGRAMS   *        TOTAL       RHF       INT
 CPU TIMES  *         0.45      0.11      0.29
 REAL TIME  *         0.68 SEC
 DISK USED  *        24.23 MB      
 GA USED    *         0.00 MB       (max)       0.00 MB       (current)
 **********************************************************************************************************************************


1PROGRAM * CCSD (Closed-shell coupled cluster)     Authors: C. Hampel, H.-J. Werner, 1991, M. Deegan, P.J. Knowles, 1992


 Convergence thresholds:  THRVAR = 1.00D-08  THRDEN = 1.00D-12

 CCSD(T)     terms to be evaluated (factor= 1.000)


 Number of core orbitals:           2 (   2 )
 Number of closed-shell orbitals:   7 (   7 )
 Number of external orbitals:      39 (  39 )

 Molecular orbitals read from record     2100.2  Type=RHF/CANONICAL (state 1.1)

 Number of N-1 electron functions:               7
 Number of N-2 electron functions:              28
 Number of singly external CSFs:               273
 Number of doubly external CSFs:             37401
 Total number of CSFs:                       37675

 Length of J-op  integral file:               0.00 MB
 Length of K-op  integral file:               0.19 MB
 Length of 3-ext integral record:             0.00 MB

 Memory could be reduced to 0.96 Mwords without degradation in triples

 Integral transformation finished. Total CPU:   0.02 sec, npass=  1  Memory used:   0.66 MW

 Reference energy:                   -115.04901514

 MP2 singlet pair energy:              -0.21872248
 MP2 triplet pair energy:              -0.11983204
 MP2 correlation energy:               -0.33855452
 MP2 total energy:                   -115.38756966

 SCS-MP2 correlation energy:           -0.33702913   (PS=  1.200000  PT=  0.333333)
 SCS-MP2 total energy:               -115.38604427

 ITER.      SQ.NORM     CORR.ENERGY   TOTAL ENERGY   ENERGY CHANGE        DEN1      VAR(S)    VAR(P)  DIIS     TIME
   1      1.10744280    -0.36135812  -115.41037326    -0.02280360    -0.01410599  0.92D-03  0.17D-02  1  1     0.07
   2      1.11599441    -0.36330878  -115.41232392    -0.00195066    -0.00926576  0.20D-04  0.16D-03  2  2     0.12
   3      1.11788919    -0.36343722  -115.41245236    -0.00012844    -0.00121079  0.96D-05  0.87D-05  3  3     0.17
   4      1.11840899    -0.36343590  -115.41245104     0.00000132    -0.00025658  0.35D-06  0.68D-06  4  4     0.22
   5      1.11850869    -0.36343630  -115.41245144    -0.00000040    -0.00003648  0.10D-06  0.50D-07  5  5     0.27
   6      1.11852824    -0.36343491  -115.41245006     0.00000138    -0.00000444  0.16D-07  0.42D-08  6  6     0.32
   7      1.11853314    -0.36343449  -115.41244963     0.00000043    -0.00000036  0.21D-08  0.74D-09  6  1     0.37
   8      1.11853444    -0.36343459  -115.41244973    -0.00000010     0.00000076  0.26D-09  0.75D-10  6  3     0.41
   9      1.11853553    -0.36343446  -115.41244960     0.00000013    -0.00000039  0.13D-10  0.11D-10  6  2     0.47
  10      1.11853545    -0.36343447  -115.41244961    -0.00000000     0.00000007  0.11D-11  0.91D-12  6  5     0.51
  11      1.11853548    -0.36343446  -115.41244960     0.00000000    -0.00000000  0.20D-12  0.52D-13  6  4     0.56
  12      1.11853547    -0.36343447  -115.41244961    -0.00000000     0.00000001  0.20D-13  0.11D-13  6  1     0.61
  13      1.11853547    -0.36343447  -115.41244961    -0.00000000    -0.00000000  0.24D-14  0.99D-15  6  6     0.66
  14      1.11853547    -0.36343447  -115.41244961     0.00000000    -0.00000000  0.23D-15  0.13D-15  6  3     0.71
  15      1.11853547    -0.36343447  -115.41244961    -0.00000000    -0.00000000  0.26D-16  0.17D-16  6  2     0.76
  16      1.11853547    -0.36343447  -115.41244961    -0.00000000    -0.00000000  0.59D-17  0.17D-17  6  5     0.81
  17      1.11853547    -0.36343447  -115.41244961    -0.00000000    -0.00000000  0.58D-18  0.26D-18  6  4     0.86
  18      1.11853547    -0.36343447  -115.41244961     0.00000000    -0.00000000  0.90D-19  0.45D-19  6  1     0.91
  19      1.11853547    -0.36343447  -115.41244961    -0.00000000    -0.00000000  0.11D-19  0.46D-20  6  6     0.96
  20      1.11853547    -0.36343447  -115.41244961     0.00000000     0.00000000  0.16D-20  0.61D-21  6  3     1.01

 Norm of t1 vector:      0.04179944      S-energy:    -0.00000000      T1 diagnostic:  0.00789935
                                                                       D1 diagnostic:  0.01766278


 Total CPU time for triples:      0.28 sec


 RESULTS
 =======

  Reference energy                   -115.049015141644
  CCSD singlet pair energy             -0.254715555970
  CCSD triplet pair energy             -0.108718909358
  CCSD correlation energy              -0.363434465329

  Triples (T) contribution             -0.007749204311
  Total correlation energy             -0.371183669640

  CCSD total energy                  -115.412449606972
  CCSD[T] energy                     -115.420490186965
  CCSD-T energy                      -115.420048145971
 !CCSD(T) total energy               -115.420198811283

 Timing summary (sec):

 STEP                 CPU(USER)    SYS     CPU(TOT)    WALL
 Transformation          0.03      0.00      0.03      0.03
 CCSD iterations         0.98      0.07      1.05      1.08
 Triples                 0.28      0.00      0.28      0.29

 Program statistics:

 Available memory in ccsd:               999999704
 Min. memory needed in ccsd:                136801
 Max. memory used in ccsd:                  163198
 Max. memory used in cckext:                182024 (20 integral passes)



 **********************************************************************************************************************************
 DATASETS  * FILE   NREC   LENGTH (MB)   RECORD NAMES
              1      20       10.93       500      610      700      900      950      970     1000      129      960     1100   
                                          VAR    BASINP    GEOM    SYMINP    ZMAT    AOBASIS   BASIS     P2S    ABASIS      S 
                                         1400     1410     1200     1210     1080     1600     1650     1300     1700     1380   
                                           T        V       H0       H01     AOSYM     SMH    MOLCAS    ERIS     OPER     JKOP   

              2       3        0.39       700     1000     2100   
                                         GEOM     BASIS     RHF  

 PROGRAMS   *        TOTAL   CCSD(T)       RHF       INT
 CPU TIMES  *         1.75      1.30      0.11      0.29
 REAL TIME  *         2.10 SEC
 DISK USED  *        25.66 MB      
 GA USED    *         0.00 MB       (max)       0.00 MB       (current)
 **********************************************************************************************************************************

        CCSD(T)         RHF-SCF 
   -115.42019881   -115.04901514
 **********************************************************************************************************************************
 Variable memory released
