
 Primary working directories    : /tmp/601555.82.gen6.q
 Secondary working directories  : /tmp/601555.82.gen6.q
 Wavefunction directory         : /home/vulcan/mel64643/wfu/
 Main file repository           : /tmp/601555.82.gen6.q/

 ARCHNAME  : Linux/x86_64
 FC        : /opt/intel/compilers_and_libraries_2016.1.150/linux/bin/intel64/ifort
 FCVERSION : 16.0.1
 BLASLIB   : -mkl
 id        : ccgc

 Nodes     nprocs
 n079         1
 ga_uses_ma=false, calling ma_init with nominal heap.
 GA-space will be limited to   8.0 MW (determined by -G option)

 Using customized tuning parameters: mindgm=10; mindgv=16; mindgc=4; mindgr=1; noblas=0; mincuda=1000; minvec=7
 default implementation of scratch files=df  

 ***,Optimization of min3
 memory,1000,m
 gthresh,energy=1.0d-12,orbital=1.0d-10,oneint=1.0d-16,twoint=1.0d-16,optgrad=1.0d-6,compress=1.0d-13
 geomtyp=xyz
 
  bohr
  geometry = {
  6
  arbitrary comment
  C   -1.3745154262   -0.0251329860    0.0011335070
  O    1.3039476016    0.1212403873    0.0042703109
  H   -2.0696370924    1.9078255594   -0.0021003726
  H   -2.1109724869   -0.9803467997    1.6809523701
  H   -2.1121929955   -0.9816104106   -1.6809822845
  H    1.9396462395   -1.5721078704   -0.0032819409
 }
 
 basis=cc-pvdz
 {rhf;maxit,200}
 {ccsd(t);maxit,200}

 Variables initialized (661), CPU time= 0.01 sec
 Commands  initialized (458), CPU time= 0.00 sec, 486 directives.
 Default parameters read. Elapsed time= 0.05 sec

 Checking input...
 Passed
1


                                         ***  PROGRAM SYSTEM MOLPRO  ***
                         Copyright, University College Cardiff Consultants Limited, 2008

                                    Version 2010.1 linked May 16 2016 07:17:05


 **********************************************************************************************************************************
 LABEL *   Optimization of min3                                                          
 Linux-4.4.3/n079(x86_64) 64 bit mpp version                                             DATE: 06-Nov-21          TIME: 15:39:31  
 **********************************************************************************************************************************

 SHA1:             9e8077add272b0f3cad6f7df79ec5211205f459d
 **********************************************************************************************************************************

 THRESHOLDS:

 ZERO    =  1.00D-12  ONEINT  =  1.00D-16  TWOINT  =  1.00D-16  PREFAC  =  1.00D-14  LOCALI  =  1.00D-09  EORDER  =  1.00D-04
 ENERGY  =  1.00D-12  ETEST   =  0.00D+00  EDENS   =  0.00D+00  THRDEDEF=  1.00D-06  GRADIENT=  1.00D-02  STEP    =  1.00D-03
 ORBITAL =  1.00D-10  CIVEC   =  1.00D-05  COEFF   =  1.00D-04  PRINTCI =  5.00D-02  PUNCHCI =  9.90D+01  OPTGRAD =  1.00D-06
 OPTENERG=  1.00D-06  OPTSTEP =  3.00D-04  THRGRAD =  1.00D-10  COMPRESS=  1.00D-13  VARMIN  =  1.00D-07  VARMAX  =  1.00D-03
 THRDOUB =  0.00D+00  THRDIV  =  1.00D-05  THRRED  =  1.00D-07  THRPSP  =  1.00D+00  THRDC   =  1.00D-10  THRCS   =  1.00D-10
 THRNRM  =  1.00D-08  THREQ   =  0.00D+00  THRDE   =  1.00D+00  THRREF  =  1.00D-05  SPARFAC =  1.00D+00  THRDLP  =  1.00D-07
 THRDIA  =  1.00D-10  THRDLS  =  1.00D-07  THRGPS  =  0.00D+00  THRKEX  =  0.00D+00  THRDIS  =  2.00D-01  THRVAR  =  1.00D-10
 THRLOC  =  1.00D-06  THRGAP  =  1.00D-06  THRLOCT = -1.00D+00  THRGAPT = -1.00D+00  THRORB  =  1.00D-06  THRMLTP =  0.00D+00
 THRCPQCI=  1.00D-10  KEXTA   =  0.00D+00  THRCOARS=  0.00D+00  SYMTOL  =  1.00D-06  GRADTOL =  1.00D-06  THROVL  =  1.00D-08
 THRORTH =  1.00D-08  GRID    =  1.00D-06  GRIDMAX =  1.00D-03  DTMAX   =  0.00D+00

 SETTING GEOMTYP        =    XYZ
 ZUNIT=BOHR
 

 Variable memory set to 1000000000 words,  buffer space   230000 words

 SETTING BASIS          =    CC-PVDZ


 Recomputing integrals since basis changed


 Using spherical harmonics

 Library entry C      S cc-pVDZ              selected for orbital group  1
 Library entry C      P cc-pVDZ              selected for orbital group  1
 Library entry C      D cc-pVDZ              selected for orbital group  1
 Library entry O      S cc-pVDZ              selected for orbital group  2
 Library entry O      P cc-pVDZ              selected for orbital group  2
 Library entry O      D cc-pVDZ              selected for orbital group  2
 Library entry H      S cc-pVDZ              selected for orbital group  3
 Library entry H      P cc-pVDZ              selected for orbital group  3

1PROGRAM * SEWARD (Integral evaluation for generally contracted gaussian basis sets)     Author: Roland Lindh, 1990

 Geometry written to block  1 of record 700


 Point group  C1  



 ATOMIC COORDINATES

 NR  ATOM    CHARGE       X              Y              Z

   1  C       6.00   -1.374515426   -0.025132986    0.001133507
   2  O       8.00    1.303947602    0.121240387    0.004270311
   3  H       1.00   -2.069637092    1.907825559   -0.002100373
   4  H       1.00   -2.110972487   -0.980346800    1.680952370
   5  H       1.00   -2.112192996   -0.981610411   -1.680982284
   6  H       1.00    1.939646240   -1.572107870   -0.003281941

 Bond lengths in Bohr (Angstrom)

 1-2  2.682461406  1-3  2.054150269  1-4  2.067992709  1-5  2.070876818  2-6  1.808755958
     ( 1.419497440)     ( 1.087009506)     ( 1.094334610)     ( 1.095860815)     ( 0.957152430)

 Bond angles

  1-2-6  107.44813457   2-1-3  106.65143960   2-1-4  112.32411999   2-1-5  112.44750439

  3-1-4  108.38616753   3-1-5  108.22802893   4-1-5  108.63924384

 NUCLEAR CHARGE:                   18
 NUMBER OF PRIMITIVE AOS:          82
 NUMBER OF SYMMETRY AOS:           80
 NUMBER OF CONTRACTIONS:           48   (  48A   )
 NUMBER OF CORE ORBITALS:           2   (   2A   )
 NUMBER OF VALENCE ORBITALS:       12   (  12A   )


 NUCLEAR REPULSION ENERGY   40.34594511


 Eigenvalues of metric

         1 0.965E-02 0.176E-01 0.367E-01 0.374E-01 0.379E-01 0.475E-01 0.478E-01 0.515E-01


 Contracted 2-electron integrals neglected if value below      1.0D-16
 AO integral compression algorithm  1   Integral accuracy      1.0D-16

     6.816 MB (compressed) written to integral file (100.0%)

     Node minimum: 6.816 MB, node maximum: 6.816 MB


 NUMBER OF SORTED TWO-ELECTRON INTEGRALS:     692076.     BUFFER LENGTH:  32768
 NUMBER OF SEGMENTS:   1  SEGMENT LENGTH:     692076      RECORD LENGTH: 524288

 Memory used in sort:       1.25 MW

 SORT1 READ      832256. AND WROTE      682150. INTEGRALS IN      2 RECORDS. CPU TIME:     0.01 SEC, REAL TIME:     0.01 SEC
 SORT2 READ      682150. AND WROTE      692076. INTEGRALS IN     26 RECORDS. CPU TIME:     0.01 SEC, REAL TIME:     0.02 SEC

 FILE SIZES:   FILE 1:     8.4 MBYTE,  FILE 4:     8.4 MBYTE,   TOTAL:     16.8 MBYTE

 OPERATOR DM      FOR CENTER  0  COORDINATES:    0.000000    0.000000    0.000000


 **********************************************************************************************************************************
 DATASETS  * FILE   NREC   LENGTH (MB)   RECORD NAMES
              1      19        8.43       500      610      700      900      950      970     1000      129      960     1100   
                                          VAR    BASINP    GEOM    SYMINP    ZMAT    AOBASIS   BASIS     P2S    ABASIS      S 
                                         1400     1410     1200     1210     1080     1600     1650     1300     1700   
                                           T        V       H0       H01     AOSYM     SMH    MOLCAS    ERIS     OPER   

 PROGRAMS   *        TOTAL       INT
 CPU TIMES  *         0.18      0.14
 REAL TIME  *         0.38 SEC
 DISK USED  *        24.27 MB      
 GA USED    *         0.00 MB       (max)       0.00 MB       (current)
 **********************************************************************************************************************************

1PROGRAM * RHF-SCF (CLOSED SHELL)       Authors: W. Meyer, H.-J. Werner


 NUMBER OF ELECTRONS:       9+    9-    SPACE SYMMETRY=1    SPIN SYMMETRY: Singlet 
 CONVERGENCE THRESHOLDS:    1.00E-10 (Density)    1.00E-13 (Energy)
 MAX. NUMBER OF ITERATIONS:      200
 INTERPOLATION TYPE:            DIIS
 INTERPOLATION STEPS:              2 (START)      1 (STEP)
 LEVEL SHIFTS:                  0.00 (CLOSED)  0.00 (OPEN) 



 Orbital guess generated from atomic densities. Full valence occupancy:   14

 Molecular orbital dump at record        2100.2

 ITERATION    DDIFF          GRAD             ENERGY        2-EL.EN.            DIPOLE MOMENTS         DIIS
    1      0.000D+00      0.000D+00      -115.01436986    164.453994   -0.49270   -0.89932   -0.00565    0
    2      0.000D+00      0.110D-01      -115.04270985    162.237965   -0.31436   -0.53470   -0.00295    1
    3      0.205D-01      0.529D-02      -115.04871359    163.260891   -0.39776   -0.60963   -0.00333    2
    4      0.638D-02      0.112D-02      -115.04917545    163.104958   -0.38754   -0.59855   -0.00317    3
    5      0.204D-02      0.201D-03      -115.04919625    163.111349   -0.39032   -0.59428   -0.00312    4
    6      0.431D-03      0.352D-04      -115.04919703    163.111514   -0.39061   -0.59407   -0.00312    5
    7      0.925D-04      0.729D-05      -115.04919706    163.110326   -0.39074   -0.59391   -0.00311    6
    8      0.148D-04      0.235D-05      -115.04919706    163.110703   -0.39078   -0.59388   -0.00311    7
    9      0.499D-05      0.484D-06      -115.04919706    163.110662   -0.39079   -0.59388   -0.00311    6
   10      0.139D-05      0.851D-07      -115.04919706    163.110661   -0.39079   -0.59388   -0.00311    6
   11      0.230D-06      0.318D-07      -115.04919706    163.110666   -0.39079   -0.59388   -0.00311    6
   12      0.575D-07      0.131D-07      -115.04919706    163.110665   -0.39079   -0.59388   -0.00311    7
   13      0.243D-07      0.294D-08      -115.04919706    163.110665   -0.39079   -0.59388   -0.00311    7
   14      0.730D-08      0.635D-09      -115.04919706    163.110665   -0.39079   -0.59388   -0.00311    7
   15      0.163D-08      0.146D-09      -115.04919706    163.110665   -0.39079   -0.59388   -0.00311    7
   16      0.323D-09      0.436D-10      -115.04919706    163.110665   -0.39079   -0.59388   -0.00311    7
   17      0.841D-10      0.157D-10      -115.04919706    163.110665   -0.39079   -0.59388   -0.00311    7
   18      0.402D-10      0.290D-11      -115.04919706    163.110665   -0.39079   -0.59388   -0.00311    7
   19      0.674D-11      0.671D-12      -115.04919706    163.110665   -0.39079   -0.59388   -0.00311    7
   20      0.167D-11      0.270D-12      -115.04919706    163.110665   -0.39079   -0.59388   -0.00311    0

 Final occupancy:   9

 !RHF STATE 1.1 Energy               -115.049197063319
 Nuclear energy                        40.34594511
 One-electron energy                 -236.95047458
 Two-electron energy                   81.55533240
 Virial quotient                       -1.00084828
 !RHF STATE 1.1 Dipole moment          -0.39079077    -0.59388009    -0.00311305
 Dipole moment /Debye                  -0.99322601    -1.50939376    -0.00791208

 Orbital energies:

         1.1          2.1          3.1          4.1          5.1          6.1          7.1          8.1          9.1         10.1
    -20.549763   -11.274460    -1.350904    -0.921618    -0.683788    -0.613625    -0.585259    -0.497508    -0.442980     0.184732

        11.1
      0.224782


 **********************************************************************************************************************************
 DATASETS  * FILE   NREC   LENGTH (MB)   RECORD NAMES
              1      19        8.43       500      610      700      900      950      970     1000      129      960     1100   
                                          VAR    BASINP    GEOM    SYMINP    ZMAT    AOBASIS   BASIS     P2S    ABASIS      S 
                                         1400     1410     1200     1210     1080     1600     1650     1300     1700   
                                           T        V       H0       H01     AOSYM     SMH    MOLCAS    ERIS     OPER   

              2       3        0.39       700     1000     2100   
                                         GEOM     BASIS     RHF  

 PROGRAMS   *        TOTAL       RHF       INT
 CPU TIMES  *         0.26      0.08      0.14
 REAL TIME  *         0.49 SEC
 DISK USED  *        24.27 MB      
 GA USED    *         0.00 MB       (max)       0.00 MB       (current)
 **********************************************************************************************************************************


1PROGRAM * CCSD (Closed-shell coupled cluster)     Authors: C. Hampel, H.-J. Werner, 1991, M. Deegan, P.J. Knowles, 1992


 Convergence thresholds:  THRVAR = 1.00D-08  THRDEN = 1.00D-12

 CCSD(T)     terms to be evaluated (factor= 1.000)


 Number of core orbitals:           2 (   2 )
 Number of closed-shell orbitals:   7 (   7 )
 Number of external orbitals:      39 (  39 )

 Molecular orbitals read from record     2100.2  Type=RHF/CANONICAL (state 1.1)

 Number of N-1 electron functions:               7
 Number of N-2 electron functions:              28
 Number of singly external CSFs:               273
 Number of doubly external CSFs:             37401
 Total number of CSFs:                       37675

 Length of J-op  integral file:               0.00 MB
 Length of K-op  integral file:               0.19 MB
 Length of 3-ext integral record:             0.00 MB

 Memory could be reduced to 0.96 Mwords without degradation in triples

 Integral transformation finished. Total CPU:   0.02 sec, npass=  1  Memory used:   0.66 MW

 Reference energy:                   -115.04919706

 MP2 singlet pair energy:              -0.21854404
 MP2 triplet pair energy:              -0.11981149
 MP2 correlation energy:               -0.33835553
 MP2 total energy:                   -115.38755259

 SCS-MP2 correlation energy:           -0.33680221   (PS=  1.200000  PT=  0.333333)
 SCS-MP2 total energy:               -115.38599928

 ITER.      SQ.NORM     CORR.ENERGY   TOTAL ENERGY   ENERGY CHANGE        DEN1      VAR(S)    VAR(P)  DIIS     TIME
   1      1.10721505    -0.36115665  -115.41035371    -0.02280112    -0.01413605  0.91D-03  0.17D-02  1  1     0.05
   2      1.11571941    -0.36309651  -115.41229357    -0.00193986    -0.00923592  0.20D-04  0.16D-03  2  2     0.08
   3      1.11759127    -0.36322320  -115.41242026    -0.00012669    -0.00119878  0.95D-05  0.85D-05  3  3     0.11
   4      1.11810377    -0.36322172  -115.41241879     0.00000148    -0.00025391  0.33D-06  0.67D-06  4  4     0.14
   5      1.11820134    -0.36322211  -115.41241917    -0.00000039    -0.00003587  0.98D-07  0.49D-07  5  5     0.17
   6      1.11822024    -0.36322076  -115.41241782     0.00000135    -0.00000434  0.16D-07  0.40D-08  6  6     0.20
   7      1.11822495    -0.36322034  -115.41241740     0.00000042    -0.00000035  0.20D-08  0.71D-09  6  1     0.23
   8      1.11822621    -0.36322044  -115.41241750    -0.00000010     0.00000074  0.25D-09  0.71D-10  6  3     0.26
   9      1.11822726    -0.36322032  -115.41241738     0.00000012    -0.00000038  0.12D-10  0.10D-10  6  2     0.30
  10      1.11822719    -0.36322032  -115.41241738    -0.00000000     0.00000007  0.11D-11  0.86D-12  6  5     0.33
  11      1.11822722    -0.36322032  -115.41241738     0.00000000    -0.00000000  0.19D-12  0.49D-13  6  4     0.36
  12      1.11822720    -0.36322032  -115.41241738    -0.00000000     0.00000001  0.18D-13  0.98D-14  6  1     0.39
  13      1.11822721    -0.36322032  -115.41241738    -0.00000000    -0.00000000  0.23D-14  0.92D-15  6  6     0.43
  14      1.11822721    -0.36322032  -115.41241738     0.00000000    -0.00000000  0.22D-15  0.12D-15  6  3     0.46
  15      1.11822721    -0.36322032  -115.41241738    -0.00000000    -0.00000000  0.25D-16  0.16D-16  6  2     0.49
  16      1.11822721    -0.36322032  -115.41241738    -0.00000000    -0.00000000  0.56D-17  0.16D-17  6  5     0.52
  17      1.11822721    -0.36322032  -115.41241738    -0.00000000    -0.00000000  0.56D-18  0.25D-18  6  4     0.55
  18      1.11822721    -0.36322032  -115.41241738     0.00000000    -0.00000000  0.90D-19  0.43D-19  6  1     0.58
  19      1.11822721    -0.36322032  -115.41241738    -0.00000000    -0.00000000  0.12D-19  0.44D-20  6  6     0.61
  20      1.11822721    -0.36322032  -115.41241738     0.00000000     0.00000000  0.19D-20  0.63D-21  6  3     0.65

 Norm of t1 vector:      0.04159835      S-energy:    -0.00000000      T1 diagnostic:  0.00786135
                                                                       D1 diagnostic:  0.01744265


 Total CPU time for triples:      0.16 sec


 RESULTS
 =======

  Reference energy                   -115.049197063319
  CCSD singlet pair energy             -0.254461716146
  CCSD triplet pair energy             -0.108758604258
  CCSD correlation energy              -0.363220320404

  Triples (T) contribution             -0.007725793984
  Total correlation energy             -0.370946114388

  CCSD total energy                  -115.412417383723
  CCSD[T] energy                     -115.420432452292
  CCSD-T energy                      -115.419993654352
 !CCSD(T) total energy               -115.420143177707

 Timing summary (sec):

 STEP                 CPU(USER)    SYS     CPU(TOT)    WALL
 Transformation          0.02      0.00      0.02      0.02
 CCSD iterations         0.63      0.05      0.68      0.71
 Triples                 0.16      0.00      0.16      0.17

 Program statistics:

 Available memory in ccsd:               999999704
 Min. memory needed in ccsd:                136801
 Max. memory used in ccsd:                  163198
 Max. memory used in cckext:                182024 (20 integral passes)



 **********************************************************************************************************************************
 DATASETS  * FILE   NREC   LENGTH (MB)   RECORD NAMES
              1      20       10.96       500      610      700      900      950      970     1000      129      960     1100   
                                          VAR    BASINP    GEOM    SYMINP    ZMAT    AOBASIS   BASIS     P2S    ABASIS      S 
                                         1400     1410     1200     1210     1080     1600     1650     1300     1700     1380   
                                           T        V       H0       H01     AOSYM     SMH    MOLCAS    ERIS     OPER     JKOP   

              2       3        0.39       700     1000     2100   
                                         GEOM     BASIS     RHF  

 PROGRAMS   *        TOTAL   CCSD(T)       RHF       INT
 CPU TIMES  *         1.08      0.82      0.08      0.14
 REAL TIME  *         1.41 SEC
 DISK USED  *        25.69 MB      
 GA USED    *         0.00 MB       (max)       0.00 MB       (current)
 **********************************************************************************************************************************

        CCSD(T)         RHF-SCF 
   -115.42014318   -115.04919706
 **********************************************************************************************************************************
 Variable memory released
