
    -----------------------------------------------------------------------
          Psi4: An Open-Source Ab Initio Electronic Structure Package
                               Psi4 1.4a2.dev629 

                         Git: Rev {master} 2938fc2 dirty


    D. G. A. Smith, L. A. Burns, A. C. Simmonett, R. M. Parrish,
    M. C. Schieber, R. Galvelis, P. Kraus, H. Kruse, R. Di Remigio,
    A. Alenaizan, A. M. James, S. Lehtola, J. P. Misiewicz, M. Scheurer,
    R. A. Shaw, J. B. Schriber, Y. Xie, Z. L. Glick, D. A. Sirianni,
    J. S. O'Brien, J. M. Waldrop, A. Kumar, E. G. Hohenstein,
    B. P. Pritchard, B. R. Brooks, H. F. Schaefer III, A. Yu. Sokolov,
    K. Patkowski, A. E. DePrince III, U. Bozkaya, R. A. King,
    F. A. Evangelista, J. M. Turney, T. D. Crawford, C. D. Sherrill,
    J. Chem. Phys. 152(18) 184108 (2020). https://doi.org/10.1063/5.0006002

                            Additional Code Authors
    E. T. Seidl, C. L. Janssen, E. F. Valeev, M. L. Leininger,
    J. F. Gonthier, R. M. Richard, H. R. McAlexander, M. Saitow, X. Wang,
    P. Verma, and M. H. Lechner

             Previous Authors, Complete List of Code Contributors,
                       and Citations for Specific Modules
    https://github.com/psi4/psi4/blob/master/codemeta.json
    https://github.com/psi4/psi4/graphs/contributors
    http://psicode.org/psi4manual/master/introduction.html#citing-psifour

    -----------------------------------------------------------------------


    Psi4 started on: Monday, 06 September 2021 06:17PM

    Process ID: 15144
    Host:       n005
    PSIDATADIR: /opt/psi/4/master/share/psi4
    Memory:     500.0 MiB
    Threads:    1
    
  ==> Input File <==

--------------------------------------------------------------------------
# o-Benzyne preliminary computations

memory 14 gb

molecule {
  0 1
  units bohr
 H    0.0000000000   -1.4190018360    0.9944779330
 O    0.0000000000   -0.0000089995   -0.1226193301
 H    0.0000000000    1.4190108355    0.9944850171
}

set {
  basis cc-pvtz
  reference rhf
  e_convergence 10 
  d_convergence 10
  r_convergence 8
  maxiter 300
  freeze_core True
}

e, wfn = energy('ccsd(t)', return_wfn = True)
psi4.print_out('Giraffe The Energy is %.12f \n'%(e))
--------------------------------------------------------------------------

  Memory set to  13.039 GiB by Python driver.

Scratch directory: /tmp/

*** tstart() called on n005
*** at Mon Sep  6 18:17:23 2021

   => Loading Basis Set <=

    Name: CC-PVTZ
    Role: ORBITAL
    Keyword: BASIS
    atoms 1, 3 entry H          line    23 file /opt/psi/4/master/share/psi4/basis/cc-pvtz.gbs 
    atoms 2    entry O          line   262 file /opt/psi/4/master/share/psi4/basis/cc-pvtz.gbs 


         ---------------------------------------------------------
                                   SCF
               by Justin Turney, Rob Parrish, Andy Simmonett
                          and Daniel G. A. Smith
                              RHF Reference
                        1 Threads,  13351 MiB Core
         ---------------------------------------------------------

  ==> Geometry <==

    Molecular point group: cs
    Full point group: Cs

    Geometry (in Bohr), charge = 0, multiplicity = 1:

       Center              X                  Y                   Z               Mass       
    ------------   -----------------  -----------------  -----------------  -----------------
         H            1.418994347267    -0.992077068042     0.000000000000     1.007825032230
         O            0.000001510767     0.125020195058     0.000000000000    15.994914619570
         H           -1.419018324233    -0.992084152142     0.000000000000     1.007825032230

  Running in cs symmetry.

  Rotational constants: A =     26.94882  B =     14.83237  C =      9.56686 [cm^-1]
  Rotational constants: A = 807905.32527  B = 444663.13730  C = 286807.25031 [MHz]
  Nuclear repulsion =    9.211910900364733

  Charge       = 0
  Multiplicity = 1
  Electrons    = 10
  Nalpha       = 5
  Nbeta        = 5

  ==> Algorithm <==

  SCF Algorithm Type is PK.
  DIIS enabled.
  MOM disabled.
  Fractional occupation disabled.
  Guess Type is SAD.
  Energy threshold   = 1.00e-10
  Density threshold  = 1.00e-10
  Integral threshold = 0.00e+00

  ==> Primary Basis <==

  Basis Set: CC-PVTZ
    Blend: CC-PVTZ
    Number of shells: 22
    Number of basis function: 58
    Number of Cartesian functions: 65
    Spherical Harmonics?: true
    Max angular momentum: 3

  ==> Integral Setup <==

  Using in-core PK algorithm.
   Calculation information:
      Number of atoms:                   3
      Number of AO shells:              22
      Number of primitives:             42
      Number of atomic orbitals:        65
      Number of basis functions:        58

      Integral cutoff                 1.00e-12
      Number of threads:                 1

  Performing in-core PK
  Using 2929232 doubles for integral storage.
  We computed 32131 shell quartets total.
  Whereas there are 32131 unique shell quartets.

  ==> DiskJK: Disk-Based J/K Matrices <==

    J tasked:                  Yes
    K tasked:                  Yes
    wK tasked:                  No
    Memory [MiB]:            10013
    Schwarz Cutoff:          1E-12

    OpenMP threads:              1

  Minimum eigenvalue in the overlap matrix is 2.4904623627E-03.
  Reciprocal condition number of the overlap matrix is 4.8574029215E-04.
    Using symmetric orthogonalization.

  ==> Pre-Iterations <==

  SCF Guess: Superposition of Atomic Densities via on-the-fly atomic UHF (no occupation information).

   -------------------------
    Irrep   Nso     Nmo    
   -------------------------
     A'        40      40 
     A"        18      18 
   -------------------------
    Total      58      58
   -------------------------

  ==> Iterations <==

                        Total Energy        Delta E     RMS |[F,P]|

   @RHF iter SAD:   -75.50442240933653   -7.55044e+01   0.00000e+00 
   @RHF iter   1:   -75.97880208326804   -4.74380e-01   1.03013e-02 DIIS
   @RHF iter   2:   -76.03143991038490   -5.26378e-02   6.63478e-03 DIIS
   @RHF iter   3:   -76.05678551643126   -2.53456e-02   4.94794e-04 DIIS
   @RHF iter   4:   -76.05716987773124   -3.84361e-04   1.20166e-04 DIIS
   @RHF iter   5:   -76.05719384108275   -2.39634e-05   2.48777e-05 DIIS
   @RHF iter   6:   -76.05719535219367   -1.51111e-06   4.80704e-06 DIIS
   @RHF iter   7:   -76.05719540987465   -5.76810e-08   7.63975e-07 DIIS
   @RHF iter   8:   -76.05719541106220   -1.18754e-09   1.15079e-07 DIIS
   @RHF iter   9:   -76.05719541108959   -2.73985e-11   3.19990e-08 DIIS
   @RHF iter  10:   -76.05719541109194   -2.34479e-12   4.22176e-09 DIIS
   @RHF iter  11:   -76.05719541109202   -8.52651e-14   5.91370e-10 DIIS
   @RHF iter  12:   -76.05719541109210   -7.10543e-14   9.55865e-11 DIIS
  Energy and wave function converged.


  ==> Post-Iterations <==

    Orbital Energies [Eh]
    ---------------------

    Doubly Occupied:                                                      

       1Ap   -20.554917     2Ap    -1.347193     3Ap    -0.708839  
       4Ap    -0.579880     1App   -0.504913  

    Virtual:                                                              

       5Ap     0.142249     6Ap     0.204390     7Ap     0.543293  
       8Ap     0.606606     9Ap     0.667298     2App    0.787219  
      10Ap     0.796462    11Ap     0.805832     3App    0.863448  
       4App    0.951512    12Ap     1.131715    13Ap     1.200760  
      14Ap     1.526130    15Ap     1.570850     5App    2.041898  
      16Ap     2.049487     6App    2.064598    17Ap     2.173519  
      18Ap     2.232419    19Ap     2.586462    20Ap     2.968049  
       7App    3.346803    21Ap     3.487313     8App    3.590861  
      22Ap     3.664458     9App    3.800634    23Ap     3.880592  
      24Ap     3.887990    10App    3.966112    11App    4.017436  
      25Ap     4.074264    26Ap     4.195851    12App    4.311761  
      27Ap     4.380279    28Ap     4.604259    13App    4.685344  
      29Ap     4.869763    30Ap     5.171146    31Ap     5.252499  
      32Ap     5.526284    14App    6.059095    33Ap     6.589044  
      15App    6.926915    16App    6.943812    17App    7.005168  
      34Ap     7.027568    35Ap     7.049432    36Ap     7.178595  
      18App    7.243593    37Ap     7.452138    38Ap     7.802993  
      39Ap     8.303488    40Ap    12.898975  

    Final Occupation by Irrep:
             Ap   App 
    DOCC [     4,    1 ]

  @RHF Final Energy:   -76.05719541109210

   => Energetics <=

    Nuclear Repulsion Energy =              9.2119109003647335
    One-Electron Energy =                -123.1467292618639249
    Two-Electron Energy =                  37.8776229504071011
    Total Energy =                        -76.0571954110920956

Computation Completed


Properties will be evaluated at   0.000000,   0.000000,   0.000000 [a0]

Properties computed using the SCF density matrix

  Nuclear Dipole Moment: [e a0]
     X:    -0.0000      Y:    -0.9840      Z:     0.0000

  Electronic Dipole Moment: [e a0]
     X:     0.0000      Y:     0.1820      Z:     0.0000

  Dipole Moment: [e a0]
     X:    -0.0000      Y:    -0.8020      Z:     0.0000     Total:     0.8020

  Dipole Moment: [D]
     X:    -0.0000      Y:    -2.0386      Z:     0.0000     Total:     2.0386


*** tstop() called on n005 at Mon Sep  6 18:17:24 2021
Module time:
	user time   =       1.43 seconds =       0.02 minutes
	system time =       0.02 seconds =       0.00 minutes
	total time  =          1 seconds =       0.02 minutes
Total time:
	user time   =       1.43 seconds =       0.02 minutes
	system time =       0.02 seconds =       0.00 minutes
	total time  =          1 seconds =       0.02 minutes
 MINTS: Wrapper to libmints.
   by Justin Turney

   Calculation information:
      Number of threads:                 1
      Number of atoms:                   3
      Number of AO shells:              22
      Number of SO shells:              22
      Number of primitives:             42
      Number of atomic orbitals:        65
      Number of basis functions:        58

      Number of irreps:                  2
      Integral cutoff                 0.00e+00
      Number of functions per irrep: [  40   18 ]

 OEINTS: Overlap, kinetic, potential, dipole, and quadrupole integrals
         stored in file 35.

      Computing two-electron integrals...done
      Computed 711861 non-zero two-electron integrals.
        Stored in file 33.


*** tstart() called on n005
*** at Mon Sep  6 18:17:24 2021


	Wfn Parameters:
	--------------------
	Wavefunction         = CCSD_T
	Number of irreps     = 2
	Number of MOs        = 58
	Number of active MOs = 57
	AO-Basis             = NONE
	Semicanonical        = false
	Reference            = RHF
	Print Level          = 1

	IRREP	# MOs	# FZDC	# DOCC	# SOCC	# VIRT	# FZVR
	-----	-----	------	------	------	------	------
	 Ap	   40	    1	    3	    0	    36	    0
	 App	   18	    0	    1	    0	    17	    0
	Transforming integrals...
	IWL integrals will be deleted.
	(OO|OO)...
	Presorting SO-basis two-electron integrals.
	Sorting File: SO Ints (nn|nn) nbuckets = 1
	Transforming the one-electron integrals and constructing Fock matrices
	Starting first half-transformation.
	Sorting half-transformed integrals.
	First half integral transformation complete.
	Starting second half-transformation.
	Two-electron integral transformation complete.
	(OO|OV)...
	Starting second half-transformation.
	Two-electron integral transformation complete.
	(OO|VV)...
	Starting second half-transformation.
	Two-electron integral transformation complete.
	(OV|OO)...
	Starting first half-transformation.
	Sorting half-transformed integrals.
	First half integral transformation complete.
	Starting second half-transformation.
	Two-electron integral transformation complete.
	(OV|OV)...
	Starting second half-transformation.
	Two-electron integral transformation complete.
	(OV|VV)...
	Starting second half-transformation.
	Two-electron integral transformation complete.
	(VV|OO)...
	Starting first half-transformation.
	Sorting half-transformed integrals.
	First half integral transformation complete.
	Starting second half-transformation.
	Two-electron integral transformation complete.
	(VV|OV)...
	Starting second half-transformation.
	Two-electron integral transformation complete.
	(VV|VV)...
	Starting second half-transformation.
	Two-electron integral transformation complete.
	Frozen core energy     =    -61.32032084184632

	Size of irrep 0 of <ab|cd> integrals:      2.512 (MW) /     20.098 (MB)
	Size of irrep 1 of <ab|cd> integrals:      1.498 (MW) /     11.985 (MB)
	Total:                                     4.010 (MW) /     32.083 (MB)

	Size of irrep 0 of <ia|bc> integrals:      0.198 (MW) /      1.585 (MB)
	Size of irrep 1 of <ia|bc> integrals:      0.106 (MW) /      0.852 (MB)
	Total:                                     0.305 (MW) /      2.437 (MB)

	Size of irrep 0 of tijab amplitudes:       0.016 (MW) /      0.127 (MB)
	Size of irrep 1 of tijab amplitudes:       0.007 (MW) /      0.059 (MB)
	Total:                                     0.023 (MW) /      0.186 (MB)

	Nuclear Rep. energy          =      9.21191090036473
	SCF energy                   =    -76.05719541109210
	One-electron energy          =    -41.61592122679937
	Two-electron energy          =     17.66713575718903
	Reference energy             =    -76.05719541109193

*** tstop() called on n005 at Mon Sep  6 18:17:26 2021
Module time:
	user time   =       0.79 seconds =       0.01 minutes
	system time =       0.25 seconds =       0.00 minutes
	total time  =          2 seconds =       0.03 minutes
Total time:
	user time   =       2.44 seconds =       0.04 minutes
	system time =       0.28 seconds =       0.00 minutes
	total time  =          3 seconds =       0.05 minutes
            **************************
            *                        *
            *        CCENERGY        *
            *                        *
            **************************

    Nuclear Rep. energy (wfn)     =    9.211910900364733
    SCF energy          (wfn)     =  -76.057195411092096
    Reference energy    (file100) =  -76.057195411091925

    Input parameters:
    -----------------
    Wave function   =     CCSD_T
    Reference wfn   =     RHF
    Brueckner       =     No
    Memory (Mbytes) =     14000.0
    Maxiter         =    300
    R_Convergence   =     1.0e-08
    E_Convergence   =     1.0e-10
    Restart         =     Yes
    DIIS            =     Yes
    AO Basis        =     NONE
    ABCD            =     NEW
    Cache Level     =     2
    Cache Type      =     LOW
    Print Level     =     1
    Num. of threads =     1
    # Amps to Print =     10
    Print MP2 Amps? =     No
    Analyze T2 Amps =     No
    Print Pair Ener =     No
    Local CC        =     No
    SCS-MP2         =     False
    SCSN-MP2        =     False
    SCS-CCSD        =     False

MP2 correlation energy -0.2614401003577977
                Solving CC Amplitude Equations
                ------------------------------
  Iter             Energy              RMS        T1Diag      D1Diag    New D1Diag    D2Diag
  ----     ---------------------    ---------   ----------  ----------  ----------   --------
     0        -0.261440100357798    0.000e+00    0.000000    0.000000    0.000000    0.115846
     1        -0.261830217064352    2.895e-02    0.005670    0.009239    0.009239    0.119495
     2        -0.266640536377440    9.950e-03    0.005867    0.009396    0.009396    0.124123
     3        -0.267339507140972    3.183e-03    0.006446    0.010514    0.010514    0.125743
     4        -0.267331733567489    6.457e-04    0.006483    0.010602    0.010602    0.125947
     5        -0.267353250920766    2.025e-04    0.006503    0.010688    0.010688    0.125994
     6        -0.267353814861285    6.005e-05    0.006508    0.010723    0.010723    0.125990
     7        -0.267353906231159    1.932e-05    0.006511    0.010739    0.010739    0.125989
     8        -0.267353606205663    4.975e-06    0.006512    0.010743    0.010743    0.125989
     9        -0.267353519409693    1.020e-06    0.006512    0.010744    0.010744    0.125989
    10        -0.267353532094418    2.273e-07    0.006512    0.010744    0.010744    0.125989
    11        -0.267353530826302    4.411e-08    0.006512    0.010744    0.010744    0.125989
    12        -0.267353532395937    9.733e-09    0.006512    0.010744    0.010744    0.125989
    13        -0.267353532426549    2.347e-09    0.006512    0.010744    0.010744    0.125989
    14        -0.267353532434289    5.809e-10    0.006512    0.010744    0.010744    0.125989

    Iterations converged.


    Largest TIA Amplitudes:
              3  36        -0.0074206024
              1   9        -0.0057691837
              2   0         0.0057456806
              3  38        -0.0049517901
              2   5        -0.0045667358
              2  10        -0.0041276140
              0   4        -0.0039652081
              2   4         0.0038830095
              1  20        -0.0038218265
              2  21        -0.0037719654

    Largest TIjAb Amplitudes:
      3   3  36  36        -0.0476024048
      2   2   4   4        -0.0295947125
      1   1   2   2        -0.0268068548
      2   3   4  36         0.0258998932
      3   2  36   4         0.0258998932
      1   1   3   3        -0.0251284029
      1   1   6   6        -0.0227242897
      1   3   6  36         0.0222606571
      3   1  36   6         0.0222606571
      2   2   2   2        -0.0220400249

    SCF energy       (wfn)                    =  -76.057195411092096
    Reference energy (file100)                =  -76.057195411091925

    Opposite-spin MP2 correlation energy      =   -0.197934661582792
    Same-spin MP2 correlation energy          =   -0.063505438775006
    Singles MP2 correlation energy            =   -0.000000000000000
    MP2 correlation energy                    =   -0.261440100357798
      * MP2 total energy                      =  -76.318635511449727

    Opposite-spin CCSD correlation energy     =   -0.210688743311125
    Same-spin CCSD correlation energy         =   -0.056664789123164
    Singles CCSD correlation energy           =    0.000000000000000
    CCSD correlation energy                   =   -0.267353532434289
      * CCSD total energy                     =  -76.324548943526210

            **************************
            *                        *
            *        CCTRIPLES       *
            *                        *
            **************************


    Wave function   =    CCSD_T
    Reference wfn   =      RHF

    Nuclear Rep. energy (wfn)                =    9.211910900364733
    SCF energy          (wfn)                =  -76.057195411092096
    Reference energy    (file100)            =  -76.057195411091925
    CCSD energy         (file100)            =   -0.267353532434289
    Total CCSD energy   (file100)            =  -76.324548943526210

    Number of ijk index combinations:               20
    Memory available in words        :      1750000000
    ~Words needed per explicit thread:          186624
    Number of threads for explicit ijk threading:    1

    MKL num_threads set to 1 for explicit threading.

    (T) energy                                =   -0.007640211051765
      * CCSD(T) total energy                  =  -76.332189154577975

Giraffe The Energy is -76.332189154578 

    Psi4 stopped on: Monday, 06 September 2021 06:17PM
    Psi4 wall time for execution: 0:00:07.46

*** Psi4 exiting successfully. Buy a developer a beer!
