
    -----------------------------------------------------------------------
          Psi4: An Open-Source Ab Initio Electronic Structure Package
                               Psi4 1.4a2.dev629 

                         Git: Rev {master} 2938fc2 dirty


    D. G. A. Smith, L. A. Burns, A. C. Simmonett, R. M. Parrish,
    M. C. Schieber, R. Galvelis, P. Kraus, H. Kruse, R. Di Remigio,
    A. Alenaizan, A. M. James, S. Lehtola, J. P. Misiewicz, M. Scheurer,
    R. A. Shaw, J. B. Schriber, Y. Xie, Z. L. Glick, D. A. Sirianni,
    J. S. O'Brien, J. M. Waldrop, A. Kumar, E. G. Hohenstein,
    B. P. Pritchard, B. R. Brooks, H. F. Schaefer III, A. Yu. Sokolov,
    K. Patkowski, A. E. DePrince III, U. Bozkaya, R. A. King,
    F. A. Evangelista, J. M. Turney, T. D. Crawford, C. D. Sherrill,
    J. Chem. Phys. 152(18) 184108 (2020). https://doi.org/10.1063/5.0006002

                            Additional Code Authors
    E. T. Seidl, C. L. Janssen, E. F. Valeev, M. L. Leininger,
    J. F. Gonthier, R. M. Richard, H. R. McAlexander, M. Saitow, X. Wang,
    P. Verma, and M. H. Lechner

             Previous Authors, Complete List of Code Contributors,
                       and Citations for Specific Modules
    https://github.com/psi4/psi4/blob/master/codemeta.json
    https://github.com/psi4/psi4/graphs/contributors
    http://psicode.org/psi4manual/master/introduction.html#citing-psifour

    -----------------------------------------------------------------------


    Psi4 started on: Wednesday, 21 September 2022 04:29PM

    Process ID: 117280
    Host:       n073
    PSIDATADIR: /opt/psi/4/master/share/psi4
    Memory:     500.0 MiB
    Threads:    1
    
  ==> Input File <==

--------------------------------------------------------------------------
# o-Benzyne preliminary computations

memory 14 gb

molecule {
  0 1
  units bohr
 C   -1.3750812791   -0.0242802406    0.0015700855
 O    1.3060147294    0.1207000216    0.0010279667
 H   -2.0778755807    1.9096022879   -0.0045210159
 H   -2.1066455860   -0.9824430026    1.6824882492
 H   -2.1113096028   -0.9762168625   -1.6813953274
 H    1.9411731592   -1.5774943238    0.0008216320
}

set {
  basis cc-pvtz
  reference rhf
  e_convergence 10 
  d_convergence 10
  r_convergence 8
  maxiter 300
  freeze_core True
}

e, wfn = energy('ccsd(t)', return_wfn = True)
psi4.print_out('Giraffe The Energy is %.12f \n'%(e))
--------------------------------------------------------------------------

  Memory set to  13.039 GiB by Python driver.

Scratch directory: /tmp/

*** tstart() called on n073
*** at Wed Sep 21 16:29:52 2022

   => Loading Basis Set <=

    Name: CC-PVTZ
    Role: ORBITAL
    Keyword: BASIS
    atoms 1   entry C          line   186 file /opt/psi/4/master/share/psi4/basis/cc-pvtz.gbs 
    atoms 2   entry O          line   262 file /opt/psi/4/master/share/psi4/basis/cc-pvtz.gbs 
    atoms 3-6 entry H          line    23 file /opt/psi/4/master/share/psi4/basis/cc-pvtz.gbs 


         ---------------------------------------------------------
                                   SCF
               by Justin Turney, Rob Parrish, Andy Simmonett
                          and Daniel G. A. Smith
                              RHF Reference
                        1 Threads,  13351 MiB Core
         ---------------------------------------------------------

  ==> Geometry <==

    Molecular point group: c1
    Full point group: C1

    Geometry (in Bohr), charge = 0, multiplicity = 1:

       Center              X                  Y                   Z               Mass       
    ------------   -----------------  -----------------  -----------------  -----------------
         C           -1.375077713053    -0.024278489872     0.000550408086    12.000000000000
         O            1.306018295447     0.120701772328     0.000008289286    15.994914619570
         H           -2.077872014653     1.909604038628    -0.005540693314     1.007825032230
         H           -2.106642019953    -0.982441251872     1.681468571786     1.007825032230
         H           -2.111306036753    -0.976215111772    -1.682415004814     1.007825032230
         H            1.941176725247    -1.577492573072    -0.000198045414     1.007825032230

  Running in c1 symmetry.

  Rotational constants: A =      4.28207  B =      0.82705  C =      0.79795 [cm^-1]
  Rotational constants: A = 128373.32052  B =  24794.31952  C =  23921.91280 [MHz]
  Nuclear repulsion =   40.307719835843045

  Charge       = 0
  Multiplicity = 1
  Electrons    = 18
  Nalpha       = 9
  Nbeta        = 9

  ==> Algorithm <==

  SCF Algorithm Type is PK.
  DIIS enabled.
  MOM disabled.
  Fractional occupation disabled.
  Guess Type is SAD.
  Energy threshold   = 1.00e-10
  Density threshold  = 1.00e-10
  Integral threshold = 0.00e+00

  ==> Primary Basis <==

  Basis Set: CC-PVTZ
    Blend: CC-PVTZ
    Number of shells: 44
    Number of basis function: 116
    Number of Cartesian functions: 130
    Spherical Harmonics?: true
    Max angular momentum: 3

  ==> Integral Setup <==

  Using in-core PK algorithm.
   Calculation information:
      Number of atoms:                   6
      Number of AO shells:              44
      Number of primitives:             84
      Number of atomic orbitals:       130
      Number of basis functions:       116

      Integral cutoff                 1.00e-12
      Number of threads:                 1

  Performing in-core PK
  Using 46056582 doubles for integral storage.
  We computed 490473 shell quartets total.
  Whereas there are 490545 unique shell quartets.

  ==> DiskJK: Disk-Based J/K Matrices <==

    J tasked:                  Yes
    K tasked:                  Yes
    wK tasked:                  No
    Memory [MiB]:            10013
    Schwarz Cutoff:          1E-12

    OpenMP threads:              1

  Minimum eigenvalue in the overlap matrix is 1.8504408412E-03.
  Reciprocal condition number of the overlap matrix is 2.7981546970E-04.
    Using symmetric orthogonalization.

  ==> Pre-Iterations <==

  SCF Guess: Superposition of Atomic Densities via on-the-fly atomic UHF (no occupation information).

   -------------------------
    Irrep   Nso     Nmo    
   -------------------------
     A        116     116 
   -------------------------
    Total     116     116
   -------------------------

  ==> Iterations <==

                        Total Energy        Delta E     RMS |[F,P]|

   @RHF iter SAD:  -114.41439113063669   -1.14414e+02   0.00000e+00 
   @RHF iter   1:  -115.01448227109333   -6.00091e-01   3.41257e-03 DIIS
   @RHF iter   2:  -115.07130827579567   -5.68260e-02   1.95512e-03 DIIS
   @RHF iter   3:  -115.08814863631265   -1.68404e-02   3.00936e-04 DIIS
   @RHF iter   4:  -115.08903294316883   -8.84307e-04   8.77557e-05 DIIS
   @RHF iter   5:  -115.08910643810009   -7.34949e-05   2.14381e-05 DIIS
   @RHF iter   6:  -115.08911130011765   -4.86202e-06   4.73791e-06 DIIS
   @RHF iter   7:  -115.08911166770702   -3.67589e-07   1.09823e-06 DIIS
   @RHF iter   8:  -115.08911168923396   -2.15269e-08   2.26668e-07 DIIS
   @RHF iter   9:  -115.08911169014215   -9.08187e-10   4.21341e-08 DIIS
   @RHF iter  10:  -115.08911169017239   -3.02407e-11   1.08656e-08 DIIS
   @RHF iter  11:  -115.08911169017416   -1.77636e-12   2.22836e-09 DIIS
   @RHF iter  12:  -115.08911169017441   -2.41585e-13   3.98609e-10 DIIS
   @RHF iter  13:  -115.08911169017433    7.10543e-14   7.34793e-11 DIIS
  Energy and wave function converged.


  ==> Post-Iterations <==

    Orbital Energies [Eh]
    ---------------------

    Doubly Occupied:                                                      

       1A    -20.552619     2A    -11.269754     3A     -1.354101  
       4A     -0.923077     5A     -0.687872     6A     -0.617668  
       7A     -0.590039     8A     -0.502056     9A     -0.449145  

    Virtual:                                                              

      10A      0.138409    11A      0.178612    12A      0.220164  
      13A      0.223732    14A      0.290535    15A      0.386802  
      16A      0.404493    17A      0.544500    18A      0.583150  
      19A      0.623032    20A      0.624995    21A      0.637992  
      22A      0.689877    23A      0.703314    24A      0.720953  
      25A      0.833280    26A      0.864632    27A      0.872122  
      28A      0.927872    29A      1.067818    30A      1.100398  
      31A      1.177513    32A      1.189288    33A      1.261355  
      34A      1.272466    35A      1.281868    36A      1.365189  
      37A      1.446650    38A      1.491715    39A      1.521770  
      40A      1.544738    41A      1.582039    42A      1.619397  
      43A      1.772883    44A      2.092312    45A      2.179922  
      46A      2.196939    47A      2.299752    48A      2.322934  
      49A      2.489942    50A      2.511187    51A      2.578309  
      52A      2.805041    53A      2.949577    54A      3.054991  
      55A      3.108485    56A      3.115345    57A      3.145089  
      58A      3.222188    59A      3.242278    60A      3.312639  
      61A      3.313697    62A      3.342109    63A      3.384097  
      64A      3.499479    65A      3.612526    66A      3.633436  
      67A      3.698339    68A      3.706084    69A      3.743767  
      70A      3.760008    71A      3.813651    72A      3.835680  
      73A      3.904097    74A      4.009960    75A      4.028215  
      76A      4.117267    77A      4.159386    78A      4.168580  
      79A      4.245974    80A      4.254587    81A      4.285299  
      82A      4.396814    83A      4.435165    84A      4.463813  
      85A      4.555079    86A      4.579124    87A      4.709676  
      88A      4.780189    89A      4.991172    90A      5.030309  
      91A      5.050190    92A      5.199008    93A      5.264681  
      94A      5.309299    95A      5.365967    96A      5.435114  
      97A      5.538212    98A      5.541606    99A      5.558128  
     100A      5.784732   101A      5.943450   102A      6.187723  
     103A      6.205956   104A      6.243061   105A      6.423811  
     106A      6.635546   107A      6.994316   108A      7.125667  
     109A      7.175974   110A      7.235881   111A      7.352371  
     112A      7.428140   113A      7.594451   114A      7.907706  
     115A     12.127734   116A     13.687610  

    Final Occupation by Irrep:
              A 
    DOCC [     9 ]

  @RHF Final Energy:  -115.08911169017433

   => Energetics <=

    Nuclear Repulsion Energy =             40.3077198358430451
    One-Electron Energy =                -236.9010038204127682
    Two-Electron Energy =                  81.5041722943953886
    Total Energy =                       -115.0891116901743345

Computation Completed


Properties will be evaluated at   0.000000,   0.000000,   0.000000 [a0]

Properties computed using the SCF density matrix

  Nuclear Dipole Moment: [e a0]
     X:    -2.1570      Y:    -0.8066      Z:    -0.0033

  Electronic Dipole Moment: [e a0]
     X:     1.7697      Y:     0.2184      Z:     0.0029

  Dipole Moment: [e a0]
     X:    -0.3872      Y:    -0.5882      Z:    -0.0004     Total:     0.7042

  Dipole Moment: [D]
     X:    -0.9842      Y:    -1.4950      Z:    -0.0010     Total:     1.7899


*** tstop() called on n073 at Wed Sep 21 16:29:56 2022
Module time:
	user time   =       3.35 seconds =       0.06 minutes
	system time =       0.04 seconds =       0.00 minutes
	total time  =          4 seconds =       0.07 minutes
Total time:
	user time   =       3.35 seconds =       0.06 minutes
	system time =       0.04 seconds =       0.00 minutes
	total time  =          4 seconds =       0.07 minutes
 MINTS: Wrapper to libmints.
   by Justin Turney

   Calculation information:
      Number of threads:                 1
      Number of atoms:                   6
      Number of AO shells:              44
      Number of SO shells:              44
      Number of primitives:             84
      Number of atomic orbitals:       130
      Number of basis functions:       116

      Number of irreps:                  1
      Integral cutoff                 0.00e+00
      Number of functions per irrep: [ 116 ]

 OEINTS: Overlap, kinetic, potential, dipole, and quadrupole integrals
         stored in file 35.

      Computing two-electron integrals...done
      Computed 22873412 non-zero two-electron integrals.
        Stored in file 33.


*** tstart() called on n073
*** at Wed Sep 21 16:29:58 2022


	Wfn Parameters:
	--------------------
	Wavefunction         = CCSD_T
	Number of irreps     = 1
	Number of MOs        = 116
	Number of active MOs = 114
	AO-Basis             = NONE
	Semicanonical        = false
	Reference            = RHF
	Print Level          = 1

	IRREP	# MOs	# FZDC	# DOCC	# SOCC	# VIRT	# FZVR
	-----	-----	------	------	------	------	------
	 A	   116	    2	    7	    0	    107	    0
	Transforming integrals...
	IWL integrals will be deleted.
	(OO|OO)...
	Presorting SO-basis two-electron integrals.
	Sorting File: SO Ints (nn|nn) nbuckets = 1
	Transforming the one-electron integrals and constructing Fock matrices
	Starting first half-transformation.
	Sorting half-transformed integrals.
	First half integral transformation complete.
	Starting second half-transformation.
	Two-electron integral transformation complete.
	(OO|OV)...
	Starting second half-transformation.
	Two-electron integral transformation complete.
	(OO|VV)...
	Starting second half-transformation.
	Two-electron integral transformation complete.
	(OV|OO)...
	Starting first half-transformation.
	Sorting half-transformed integrals.
	First half integral transformation complete.
	Starting second half-transformation.
	Two-electron integral transformation complete.
	(OV|OV)...
	Starting second half-transformation.
	Two-electron integral transformation complete.
	(OV|VV)...
	Starting second half-transformation.
	Two-electron integral transformation complete.
	(VV|OO)...
	Starting first half-transformation.
	Sorting half-transformed integrals.
	First half integral transformation complete.
	Starting second half-transformation.
	Two-electron integral transformation complete.
	(VV|OV)...
	Starting second half-transformation.
	Two-electron integral transformation complete.
	(VV|VV)...
	Starting second half-transformation.
	Two-electron integral transformation complete.
	Frozen core energy     =   -106.48982215870912

	Size of irrep 0 of <ab|cd> integrals:    131.080 (MW) /   1048.637 (MB)
	Total:                                   131.080 (MW) /   1048.637 (MB)

	Size of irrep 0 of <ia|bc> integrals:      8.575 (MW) /     68.602 (MB)
	Total:                                     8.575 (MW) /     68.602 (MB)

	Size of irrep 0 of tijab amplitudes:       0.561 (MW) /      4.488 (MB)
	Total:                                     0.561 (MW) /      4.488 (MB)

	Nuclear Rep. energy          =     40.30771983584305
	SCF energy                   =   -115.08911169017433
	One-electron energy          =    -87.56610593198526
	Two-electron energy          =     38.65909656467787
	Reference energy             =   -115.08911169017347

*** tstop() called on n073 at Wed Sep 21 16:30:09 2022
Module time:
	user time   =       7.77 seconds =       0.13 minutes
	system time =       3.06 seconds =       0.05 minutes
	total time  =         11 seconds =       0.18 minutes
Total time:
	user time   =      12.65 seconds =       0.21 minutes
	system time =       3.31 seconds =       0.06 minutes
	total time  =         17 seconds =       0.28 minutes
            **************************
            *                        *
            *        CCENERGY        *
            *                        *
            **************************

    Nuclear Rep. energy (wfn)     =   40.307719835843045
    SCF energy          (wfn)     = -115.089111690174335
    Reference energy    (file100) = -115.089111690173468

    Input parameters:
    -----------------
    Wave function   =     CCSD_T
    Reference wfn   =     RHF
    Brueckner       =     No
    Memory (Mbytes) =     14000.0
    Maxiter         =    300
    R_Convergence   =     1.0e-08
    E_Convergence   =     1.0e-10
    Restart         =     Yes
    DIIS            =     Yes
    AO Basis        =     NONE
    ABCD            =     NEW
    Cache Level     =     2
    Cache Type      =     LOW
    Print Level     =     1
    Num. of threads =     1
    # Amps to Print =     10
    Print MP2 Amps? =     No
    Analyze T2 Amps =     No
    Print Pair Ener =     No
    Local CC        =     No
    SCS-MP2         =     False
    SCSN-MP2        =     False
    SCS-CCSD        =     False

MP2 correlation energy -0.4283345855687127
                Solving CC Amplitude Equations
                ------------------------------
  Iter             Energy              RMS        T1Diag      D1Diag    New D1Diag    D2Diag
  ----     ---------------------    ---------   ----------  ----------  ----------   --------
     0        -0.428334585568713    0.000e+00    0.000000    0.000000    0.000000    0.128386
     1        -0.435619859842091    4.785e-02    0.007307    0.014795    0.014795    0.129726
     2        -0.445454643592825    1.576e-02    0.007423    0.014734    0.014734    0.135516
     3        -0.446925853668120    5.532e-03    0.008330    0.016883    0.016883    0.136963
     4        -0.446834055410755    1.221e-03    0.008390    0.016998    0.016998    0.137199
     5        -0.446876948720744    4.460e-04    0.008429    0.017142    0.017142    0.137301
     6        -0.446884456419647    1.283e-04    0.008440    0.017199    0.017199    0.137309
     7        -0.446881963878642    4.759e-05    0.008443    0.017216    0.017216    0.137307
     8        -0.446881991828454    1.752e-05    0.008444    0.017226    0.017226    0.137307
     9        -0.446882075109268    4.965e-06    0.008445    0.017228    0.017228    0.137306
    10        -0.446881824764203    1.573e-06    0.008445    0.017228    0.017228    0.137306
    11        -0.446881890210593    4.897e-07    0.008445    0.017228    0.017228    0.137306
    12        -0.446881875400563    1.201e-07    0.008445    0.017228    0.017228    0.137306
    13        -0.446881878893313    4.354e-08    0.008445    0.017228    0.017228    0.137306
    14        -0.446881880108780    1.236e-08    0.008445    0.017228    0.017228    0.137306
    15        -0.446881880149017    5.164e-09    0.008445    0.017228    0.017228    0.137306
    16        -0.446881880171795    1.607e-09    0.008445    0.017228    0.017228    0.137306

    Iterations converged.


    Largest TIA Amplitudes:
              3   6         0.0081330066
              3  14         0.0075943733
              6  14        -0.0067251218
              3   9         0.0067206617
              4   7         0.0058762226
              5   8         0.0058199689
              4   3        -0.0057823398
              6   6        -0.0054840757
              3   2         0.0054827812
              4   5        -0.0051558084

    Largest TIjAb Amplitudes:
      3   3   9   9        -0.0231268169
      4   4   7   7        -0.0215756833
      6   6  14  14        -0.0210807332
      5   5  12  12        -0.0203789520
      2   2   7   7        -0.0190540579
      4   4   8   8        -0.0160881937
      3   3  14  14        -0.0151677366
      3   3   2   9        -0.0151107379
      3   3   9   2        -0.0151107379
      3   6   9   9        -0.0150201355

    SCF energy       (wfn)                    = -115.089111690174335
    Reference energy (file100)                = -115.089111690173468

    Opposite-spin MP2 correlation energy      =   -0.330131848900650
    Same-spin MP2 correlation energy          =   -0.098202736668062
    Singles MP2 correlation energy            =   -0.000000000000000
    MP2 correlation energy                    =   -0.428334585568713
      * MP2 total energy                      = -115.517446275742174

    Opposite-spin CCSD correlation energy     =   -0.357719076512013
    Same-spin CCSD correlation energy         =   -0.089162803659782
    Singles CCSD correlation energy           =    0.000000000000000
    CCSD correlation energy                   =   -0.446881880171795
      * CCSD total energy                     = -115.535993570345269

            **************************
            *                        *
            *        CCTRIPLES       *
            *                        *
            **************************


    Wave function   =    CCSD_T
    Reference wfn   =      RHF

    Nuclear Rep. energy (wfn)                =   40.307719835843045
    SCF energy          (wfn)                = -115.089111690174335
    Reference energy    (file100)            = -115.089111690173468
    CCSD energy         (file100)            =   -0.446881880171795
    Total CCSD energy   (file100)            = -115.535993570345269

    Number of ijk index combinations:               84
    Memory available in words        :      1750000000
    ~Words needed per explicit thread:         4900172
    Number of threads for explicit ijk threading:    1

    MKL num_threads set to 1 for explicit threading.

    (T) energy                                =   -0.014790205154176
      * CCSD(T) total energy                  = -115.550783775499440

Giraffe The Energy is -115.550783775499 

    Psi4 stopped on: Wednesday, 21 September 2022 04:30PM
    Psi4 wall time for execution: 0:00:44.26

*** Psi4 exiting successfully. Buy a developer a beer!
