 --invoking executable--
/opt/vulcan/opt/vulcan/linux-x86_64/intel-16.0.1/cfour-2.0-hjkzrfqmrmfvexnyvlji4zmpovcjpspy/bin/xinitenv
--executable xinitenv finished with status     0 in        0.13 seconds (walltime).
 --invoking executable--
/opt/vulcan/opt/vulcan/linux-x86_64/intel-16.0.1/cfour-2.0-hjkzrfqmrmfvexnyvlji4zmpovcjpspy/bin/xjoda


   *************************************************************************
         <<<     CCCCCC     CCCCCC   |||     CCCCCC     CCCCCC   >>>
       <<<      CCC        CCC       |||    CCC        CCC         >>>
      <<<      CCC        CCC        |||   CCC        CCC            >>>
    <<<        CCC        CCC        |||   CCC        CCC              >>>
      <<<      CCC        CCC        |||   CCC        CCC            >>>
       <<<      CCC        CCC       |||    CCC        CCC         >>>
         <<<     CCCCCC     CCCCCC   |||     CCCCCC     CCCCCC   >>>
   *************************************************************************

     ****************************************************************
     * CFOUR Coupled-Cluster techniques for Computational Chemistry *
     ****************************************************************
 

   Department of Chemistry                Institut fuer Physikalische Chemie
   University of Texas at Austin          Universitaet Mainz
   Austin, TX  78712, USA                 D-55099 Mainz, Germany
 
                       Version 1.2
 
                     n040                                              
                     Thu Jul 13 10:55:33 EDT 2017                      
                     integer*8 version is running
 
********************************************************************************
*                          Input from ZMAT file                                *
********************************************************************************
CCSD(T) Optimization                                                            
X                                                                               
Bi 1 R                                                                          
Bi 1 R 2 TDA                                                                    
Bi 1 R 2 TDA 3 D120                                                             
Bi 1 R 2 TDA 4 D120                                                             
                                                                                
R    =        1.808602546110651                                                 
TDA  =      109.471220634490692                                                 
D120 =      120.000000000000114                                                 
                                                                                
*CFOUR(VIB=FINDIF                                                               
CALC_LEVEL=CCSD[T],CC_PROG=ECC                                                  
REFERENCE=RHF                                                                   
ECP=ON                                                                          
BASIS=SPECIAL,ABCDTYPE=AOBASIS                                                  
SCF_MAXCYC=500,CC_MAXCYC=500                                                    
SCF_CONV=10,CC_CONV=10                                                          
CONVERGENCE=10,LINEQ_CONV=10                                                    
MEMORY=14,MEM_UNIT=GB                                                           
MULTIPLICITY=1,CHARGE=0)                                                        
                                                                                
BI:QZ_Basis                                                                     
BI:QZ_Basis                                                                     
BI:QZ_Basis                                                                     
BI:QZ_Basis                                                                     
                                                                                
BI:ECP-60                                                                       
BI:ECP-60                                                                       
BI:ECP-60                                                                       
BI:ECP-60                                                                       
                                                                                
********************************************************************************
 
     PARALLEL RUN STARTED ON            4  CORES/NODES.
 
    -------------------------------------------------------------------
                    CFOUR Control Parameters 
    -------------------------------------------------------------------
        External           Internal           Value            Units
          Name               Name
    -------------------------------------------------------------------
       ABCDTYPE             IABCDT         AOBASIS      [  2]   ***   
       ANHARMONIC           IANHAR         OFF          [  0]   ***   
       ANH_ALGORIT          IANALG         STANDARD     [  0]   ***   
       ANH_DERIVAT          IANDER         SECOND       [  1]   ***   
       ANH_STEPSIZ          ICUBST             50000          x 10-6  
       ANH_SYMMETR          IANHSM         ABELIAN      [  0]   ***   
       AO_LADDERS           IAOLAD         SINGLEPASS   [  1]   ***   
       AV_SCF               IAVSCF         OFF          [  0]   ***   
       BASIS                IBASIS         SPECIAL      [  0]   ***   
       BOTHVECTORS          BOTHVC         OFF          [  0]   ***   
       BOX_POTENT           IPIAB          OFF          [  0]   ***   
       BREIT                IBREIT         OFF          [  0]   ***   
       BRUCK_CONV           IBRTOL          10D-  4             ***   
       BRUECKNER            IBRKNR             OFF      [  0]   ***   
       BUFFERSIZE           IBUFFS            600               ***   
       CACHE_RECS           ICHREC             10               ***   
       CALCLEVEL            ICLLVL           CCSD(T)    [ 22]   ***   
       CCORBOPT             ICCORB             OFF      [  0] x 0.01  
       CC_CONV              ICCCNV          10D- 10             ***   
       CC_EXPORDER          ICCEOR              5               ***   
       CC_EXTRAPOL          ICCEXT             DIIS     [  1]   ***   
       CC_GUESS             ICCGES         MP2          [  0]   ***   
       CC_MAXCYC            ICCCYC            500              cycles 
       CC_PROGRAM           ICCPRO         ECC          [  1]   ***   
       CHARGE               ICHRGE              0               ***   
       CHOLESKY             ICHOLE         OFF          [  0]   ***   
       CIS_CONV             ICISTL              5               ***   
       COMM_SIZE            IPSIZE            ***               ***   
       CONSTANT             ICONST         OLD          [  1]   ***   
       CONTINUUM            ICONTU         NONE         [  0]   ***   
       CONTRACTION          ICNTYP          GENERAL     [  1]   ***   
       COORDINATES          ICOORD         INTERNAL     [  0]   ***   
       CPHF_CONVER          ICPHFT          10D- 16             ***   
       CPHF_MAXCYC          ICPHFC             64              cycles 
       CUBIC                ICUBIC         OFF          [  0]   ***   
       CURVILINEAR          ICURVY            OFF       [  0]   ***   
       D3_ISOTRANS          D3ISOT         OFF          [  0]   ***   
       DBOC                 IDBOC          OFF          [  0]   ***   
       DCT                  IDCT           OFF          [  0]   ***   
       DERIV_LEV            IDRLVL            FIRST     [  1]   ***   
       DEVMEM_SIZE          IDVMEM         *********           MByte  
       DIAG_MRCC            IEOMST          10D-  0             ***   
       DIFF_TYPE            IDIFTY         RELAXED      [  0]   ***   
       DIRECT               IDIRCT         OFF          [  0]   ***   
       DROPMO               IDRPMO      NONE         
       ECP                  IECP           ON           [  1]   ***   
       EIGENVECTOR          IVEC                1               ***   
       EL_ANHARM            IELANH         OFF          [  0]   ***   
       EOMFOLLOW            IEOMSR         ENERGY       [  0]   ***   
       EOMIP                IEOMIP         OFF          [  0]   ***   
       EOM_MRCC             IMRCCE         NEW          [  1]   ***   
       EOM_NONIT            EOMNON         OFF          [  0]   ***   
       EOM_NSING            IEOMSI          10D-  0             ***   
       EOM_NSTATES          IMRCCD         DAVIDSON     [  0]   ***   
       EOM_NTRIP            IEOMTR          10D-  0             ***   
       EOM_ORDER            IEXORD         ENERGY       [  0]   ***   
       EOM_PROPSTA          IEOMST              0               ***   
       ESTATE_CONV          IEXTOL          10D-  5             ***   
       ESTATE_DIAG          IEXDIG         ITERATIVE    [  0]   ***   
       ESTATE_LOCK          IESLOC         ON           [  1]   ***   
       ESTATE_MAXC          IEXMXC             40               ***   
       ESTATE_PROP          IEXPRP         OFF          [  0]   ***   
       EVAL_HESS            IRECAL              0            # of cyc.
       EXCITATION           IEXCIT              0               ***   
       EXCITE               IEXCIT         NONE         [  0]   ***   
       EXTERN_POT           IEXPOT         OFF          [  0]   ***   
       FCGRADNEW            IFCGNW         OFF          [  0]   ***   
       FC_FIELD             IFINFC              0             x 10-6  
       FD_CALTYPE           IFDCAL         GRADONLY     [  0]   ***   
       FD_PROJECT           IFDPRJ         OFF          [  1]   ***   
       FD_STEPSIZE          IDISFD              5            10-4 bohr
       FD_USEGROUP          IFDGRP         FULL         [  0]   ***   
       FILE_RECSIZ          IFLREC              4096           words  
       FINITE_PERT          IFIPER              0             x 10-6  
       FIXGEOM              IFIXGM         OFF          [  0]   ***   
       FOCK                 IFOCK          AO           [  1]   ***   
       FREQ_ALGORI          IVIALG         STANDARD     [  0]   ***   
       FROZEN_CORE          IFROCO         OFF          [  0]   ***   
       FROZEN_VIRT          IFROVI         OFF          [  0]   ***   
       GAMMA_ABCD           IGABCD         DIRECT       [  1]   ***   
       GAMMA_ABCI           IGABCI         STORE        [  0]   ***   
       GENBAS_1             IGNBS1              0               ***   
       GENBAS_2             IGNBS2              0               ***   
       GENBAS_3             IGNBS3              0               ***   
       GENBAS_4             IGNBS4              0               ***   
       GEO_CONV             ICONTL             10              H/bohr 
       GEO_MAXCYC           IOPTCY             50               ***   
       GEO_MAXSTEP          IMXSTP            300            millibohr
       GEO_METHOD           INR            SINGLE_POINT [  5]   ***   
       GIAO                 IGIAO          OFF          [  1]   ***   
       GIMIC                IGIMIC         OFF          [  0]   ***   
       GRID                 IGRID          OFF          [  0]   ***   
       GRID_ALGO            IGALGO         SERIAL       [  0]   ***   
       GUESS                IGUESS            MOREAD    [  0]   ***   
       HBAR                 IHBAR              OFF      [  0]   ***   
       HESS_TYPE            IHESTP         SCF          [  0]   ***   
       HF2_FILE             IHF2Fl         USE          [  1]   ***   
       HFSTABILITY          ISTABL         OFF          [  0]   ***   
       INCORE               INCORE             OFF      [  0]   ***   
       INPUT_MRCC           IMRCC          ON           [  1]   ***   
       INTEGRALS            INTTYP             VMOL     [  1]   ***   
       JODA_PRINT           IJPRNT              0               ***   
       KEYWORD_OUT          IDMPKW         NO           [  0]   ***   
       LINDEP_TOL           ILINDP              8               ***   
       LINEQ_CONV           IZTACN          10D- 10           cycles  
       LINEQ_EXPOR          ILMAXD              5               ***   
       LINEQ_MAXCY          ILMAXC            100               ***   
       LINEQ_TYPE           ILTYPE         DIIS         [  1]   ***   
       LOCK_ORBOCC          ILOCOC             OFF      [  0]   ***   
       MEMORY_SIZE          IMEMSZ         *********           words  
       MEM_UNIT             IMEMU          GB           [  3]   ***   
       MRCC                 IMRCCC         OFF          [  0]   ***   
       MULTIPLICTY          IMULTP              1               ***   
       NACOUPLING           IVCOUP         OFF          [  0]   ***   
       NEGEVAL              IDIE             ABORT      [  0]   ***   
       NEWNORM              INEWNO         OFF          [  0]   ***   
       NON-HF               INONHF             OFF      [  0]   ***   
       NTOP_TAMP            ITOPT2             15               ***   
       NUC_MODEL            INUCMO         POINT        [  0]   ***   
       OCCUPATION           IOCCU   ESTIMATED BY SCF 
       OPEN-SHELL           IOPEN          SPIN-ORBITAL [  0]   ***   
       OPTVIB               IOPTVB         OFF          [  0]   ***   
       ORBITALS             IORBTP           STANDARD   [  0]   ***   
       PARALLEL             IPARAL         ON           [  1]   ***   
       PARA_INT             IPINTS         ON           [  1]   ***   
       PARA_PRINT           IPPRIN              0               ***   
       PERT_ORB             IPTORB         CANONICAL    [  1]   ***   
       POINTS               IGRDFD              0               ***   
       PRINT                IPRNT               0               ***   
       PROPS                IPROPS             OFF      [  0]   ***   
       PROP_INTEGR          IINTYP         INTERNAL     [  0]   ***   
       PSI                  IPSI           OFF          [  0]   ***   
       QC_ALG               IQCALG         FLM          [  0]   ***   
       QC_LINALG            IQCLIN         TRIDIAG      [  2]   ***   
       QC_MAXCYC            IQCMAX          10D-100           cycles  
       QC_MAXSCFCY          IQCMSC          10D- 15           cycles  
       QC_RTRUST            IQCRTR          10D-  0           x 10-3  
       QC_SKIPSCF           IQCSKI         OFF          [  0]   ***   
       QC_START             IQCSTA          10D-  1             ***   
       QRHFGUESS            IQGUES         OFF          [  0]   ***   
       QUARTIC              IQUART         OFF          [  0]   ***   
       RAMAN_INT            IRAMIN         OFF          [  0]   ***   
       RAMAN_ORB            IRAMRE         UNRELAXED    [  0]   ***   
       RDO                  IRDOFM              ON      [  1]   ***   
       REFERENCE            IREFNC             RHF      [  0]   ***   
       RELATIVIST           IRELAT         OFF          [  0]   ***   
       RELAX_DENS           IRDENS              ON      [  1]   ***   
       RESET_FLAGS          IRESET             OFF      [  0]   ***   
       RESTART_CC           ICCRES         OFF          [  0]   ***   
       ROT_EVEC             ROTVEC              0               ***   
       SAVE_INTS            ISVINT             OFF      [  0]   ***   
       SCALE_ON             ISTCRT              0               ***   
       SCF_CONV             ISCFCV          10D- 10             ***   
       SCF_DAMPING          IDAMP               0             x 10-3  
       SCF_EXPORDE          IRPPOR              6               ***   
       SCF_EXPSTAR          IRPPLS              8               ***   
       SCF_EXTRAPO          IRPP                ON      [  1]   ***   
       SCF_MAXCYC           ISCFCY            500              cycles 
       SCF_NOSTOP           ISCFST         OFF          [  0]   ***   
       SCF_PRINT            ISCFPR              0               ***   
       SCF_PROG             ISCFPR         SCF          [  0]   ***   
       SD_FIELD             IFINSD              0             x 10-6  
       SOPERT               IPERSO         OFF          [  0]   ***   
       SPHERICAL            IDFGHI             ON       [  1]   ***   
       SPINORBIT            ISOCAL         OFF          [  0]   ***   
       SPINROTATIO          ISRCON         OFF          [  0]   ***   
       SPIN_FLIP            ISPFLP         OFF          [  0]   ***   
       SPIN_ORBIT           ISPORB         OFF          [  0]   ***   
       SPIN_SCAL            ISCSMP         OFF          [  0]   ***   
       STEEPSCALE           ISTPSC              1000          x 10-3  
       SUBGROUP             ISUBGP         DEFAULT      [  0]   ***   
       SUBGRPAXIS           ISBXYZ         X            [  0]   ***   
       SYMMETRY             ISYM             ON         [  0]   ***   
       SYM_CHECK            ISYMCK         OVERRIDE     [  1]   ***   
       T3_EXTRAPOL          IT3EXT         OFF          [  0]   ***   
       T4_EXTRAPOL          IT4EXP         OFF          [  0]   ***   
       TAMP_SUM             IEVERY              5               ***   
       TESTSUITE            ITESTS         OFF          [  0]   ***   
       THERMOCH             ITHERM         ON           [  1]   ***   
       TOL_CHOLESK          ITOLCH          10D-  4             ***   
       TRANGRAD             IRESRM         OFF          [  0]   ***   
       TRANS_INV            ITRAIN         USE          [  0]   ***   
       TREAT_PERT           ITREAT         SIMULTANEOUS [  0]   ***   
       TRIP_ALGORI          ITRALG         NORMAL       [  0]   ***   
       UIJ_THRESHO          IUIJTH              1               ***   
       UNITS                IUNITS         ANGSTROM     [  0]   ***   
       UNOS                 IUNOS          OFF          [  0]   ***   
       UPDATE_HESS          IHUPDT         ON           [  1]   ***   
       VIBPHASE             ISETPH         STANDARD     [  0]   ***   
       VIBRATION            IVIB             FINDIF     [  3]   ***   
       VIB_ALGORIT          IGEALG         STANDARD     [  0]   ***   
       VNATORB              IVNORB         OFF          [  0]   ***   
       VTRAN                IVTRAN         PARTIAL      [  2]   ***   
       XFIELD               IXEFLD              0             x 10-6  
       XFORM_TOL            IXFTOL          10D- 11             ***   
       YFIELD               IYEFLD              0             x 10-6  
       ZFIELD               IZEFLD              0             x 10-6  
       ZSCALE_EXP           IZEXPS         OFF          [  0]   ***   
    -------------------------------------------------------------------
   5 entries found in Z-matrix 
   Job Title : CCSD(T) Optimization                                                            
  @FETCHZ-I, Variable TDA set to exact tetrahedral angle.
   There are  3 unique internal coordinates.
   Of these,  0 will be optimized.
   User supplied Z-matrix: 
--------------------------------------------------------------------------------
       SYMBOL    BOND      LENGTH    ANGLE     ANGLE     DIHED     ANGLE
                  TO      (ANGST)    WRT      (DEG)      WRT      (DEG)
--------------------------------------------------------------------------------
        X    
        Bi         1         R    
        Bi         1         R          2        TDA  
        Bi         1         R          2        TDA        3        D120 
        Bi         1         R          2        TDA        4        D120 
                  *Initial values for internal coordinates* 
                      Name             Value
                        R               1.8086025461
                        TDA           109.4712206345
                        D120          120.0000000000
--------------------------------------------------------------------------------
  1  X          0     0.00000
  2  BI        83   208.98037
  3  BI        83   208.98037
  4  BI        83   208.98037
  5  BI        83   208.98037
   Rotational constants (in cm-1): 
          0.0092477492             0.0092477492             0.0092477492
   Rotational constants (in MHz): 
        277.2405864201           277.2405864201           277.2405864202
********************************************************************************
   The full molecular point group is T d .
   The largest Abelian subgroup of the full molecular point group is C2v .
   The computational point group is C2v .
********************************************************************************
--------------------------------------------------------------------------------
   Analysis of internal coordinates specified by Z-matrix 
--------------------------------------------------------------------------------
   *The nuclear repulsion energy is 7405.953366019248278 a.u.
   *There is   1 degree of freedom within the tot. symm. molecular subspace.
   *Z-matrix requests optimization of   0 coordinates.
   *The optimization is constrained.
   *The following   1 parameters can have non-zero 
    derivatives within the totally symmetric subspace:
             R    [ 7]
   *The following   0 parameters are to be optimized:

   *The following coordinates must be varied in an  unconstrained optimization.
             R    [ 7]
--------------------------------------------------------------------------------
 ----------------------------------------------------------------
 Z-matrix   Atomic            Coordinates (in bohr)
  Symbol    Number           X              Y              Z
 ----------------------------------------------------------------
     X         0         0.00000000    -0.00000000    -0.00000000
     BI       83         0.00000000    -2.79059278     1.97324708
     BI       83        -0.00000000     2.79059278     1.97324708
     BI       83         2.79059278    -0.00000000    -1.97324708
     BI       83        -2.79059278     0.00000000    -1.97324708
 ----------------------------------------------------------------
   Interatomic distance matrix (Angstroms) 
 
                 X             BI            BI            BI            BI   
                [ 1]        [ 2]        [ 3]        [ 4]        [ 5]
  X    [ 1]     0.00000
  BI   [ 2]     1.80860     0.00000
  BI   [ 3]     1.80860     2.95344     0.00000
  BI   [ 4]     1.80860     2.95344     2.95344     0.00000
  BI   [ 5]     1.80860     2.95344     2.95344     2.95344     0.00000
   Rotational constants (in cm-1): 
          0.0092477492             0.0092477492             0.0092477492
   Rotational constants (in MHz): 
        277.2405864201           277.2405864201           277.2405864201
  There are  268 basis functions.
 @GEOPT-W, Archive file not created for single-point calculation.
  @CHECKOUT-I, Total execution time (CPU/WALL):        0.09/       0.13 seconds.
--executable xjoda finished with status     0 in        0.27 seconds (walltime).
 --invoking executable--
/opt/vulcan/opt/vulcan/linux-x86_64/intel-16.0.1/cfour-2.0-hjkzrfqmrmfvexnyvlji4zmpovcjpspy/bin/xsymcor
 @GETMEM-I,  Allocated   13351 MB of main memory.
  @CHRTABLE-I, There are   5 unique irreducible representations.
  @CHRTABLE-I, There are   4 unique irreducible representations.
  @VIBINF-I, Symmetries species for nuclear motions:
  Irrep     Label    Total    Vibrations     Translations     Rotations
    1          A1     1.00       1.00            0.00            0.00
    2          A2     0.00      -0.00            0.00           -0.00
    3          T1     1.00      -0.00           -0.00            1.00
    4          T2     2.00       1.00            1.00            0.00
    5           E     1.00       1.00           -0.00           -0.00
   Total number of calculations required      :     6
   Number of single-point energy calculations :     0
   Number of energy gradient     calculations :     6
  @CHECKOUT-I, Total execution time (CPU/WALL):        0.01/       0.01 seconds.
--executable xsymcor finished with status     0 in        0.07 seconds (walltime).
 --invoking executable--
/opt/vulcan/opt/vulcan/linux-x86_64/intel-16.0.1/cfour-2.0-hjkzrfqmrmfvexnyvlji4zmpovcjpspy/bin/xjoda
  1  X          0     0.00000
  2  BI        83   208.98037
  3  BI        83   208.98037
  4  BI        83   208.98037
  5  BI        83   208.98037
   Rotational constants (in cm-1): 
          0.0092478428             0.0092478428             0.0092478428
   Rotational constants (in MHz): 
        277.2433920816           277.2433920816           277.2433920816
********************************************************************************
   The full molecular point group is T d .
   The largest Abelian subgroup of the full molecular point group is C2v .
   The computational point group is C2v .
********************************************************************************
  There are  268 basis functions.
 @GEOPT-W, Archive file not created for single-point calculation.
  @CHECKOUT-I, Total execution time (CPU/WALL):        0.07/       0.09 seconds.
--executable xjoda finished with status     0 in        0.12 seconds (walltime).
 --invoking executable--
/opt/vulcan/opt/vulcan/linux-x86_64/intel-16.0.1/cfour-2.0-hjkzrfqmrmfvexnyvlji4zmpovcjpspy/bin/xvmol
 Parallel version of molecule started on node            0 :
********************************************************************************
                    Input from MOL file
********************************************************************************
INTGRL        1    0    1    1    0    0    0    0    0                         
         *** CFOUR Program System (Release V0.1) ***                            
CCSD(T) Optimization                                                            
    2    2 X  Y       0.10E-08              0    0                              
   9999.00      3.00                                                            
         83.00000000    1    5    1    1    1    1    1                         
BI#1   0.000000000000001  -2.790578660823795   1.973237094502979                
   14    6                                                                      
   8131.09000000000       2.900000000000000E-005  1.400000000000000E-005        
  0.000000000000000E+000  0.000000000000000E+000  0.000000000000000E+000        
  0.000000000000000E+000                                                        
   1225.77000000000       2.000000000000000E-004  9.500000000000001E-005        
  0.000000000000000E+000  0.000000000000000E+000  0.000000000000000E+000        
  0.000000000000000E+000                                                        
   274.672000000000       6.840000000000000E-004  3.450000000000000E-004        
  0.000000000000000E+000  0.000000000000000E+000  0.000000000000000E+000        
  0.000000000000000E+000                                                        
   37.6164000000000       2.021800000000000E-002  8.252000000000001E-003        
  0.000000000000000E+000  0.000000000000000E+000  0.000000000000000E+000        
  0.000000000000000E+000                                                        
   23.4804000000000      -0.159326000000000      -6.791899999999999E-002        
  0.000000000000000E+000  0.000000000000000E+000  0.000000000000000E+000        
  0.000000000000000E+000                                                        
   14.1065000000000       0.611726000000000       0.281065000000000             
  0.000000000000000E+000  0.000000000000000E+000  0.000000000000000E+000        
  0.000000000000000E+000                                                        
   8.81305000000000      -0.544653000000000      -0.293282000000000             
  0.000000000000000E+000  0.000000000000000E+000  0.000000000000000E+000        
  0.000000000000000E+000                                                        
   5.50778000000000      -0.636884000000000      -0.263451000000000             
  0.000000000000000E+000  0.000000000000000E+000  0.000000000000000E+000        
  0.000000000000000E+000                                                        
   2.03977000000000       0.771698000000000       0.477772000000000             
  0.000000000000000E+000  0.000000000000000E+000  0.000000000000000E+000        
  0.000000000000000E+000                                                        
   1.09440000000000       0.638367000000000       0.528566000000000             
  0.000000000000000E+000  0.000000000000000E+000  0.000000000000000E+000        
  0.000000000000000E+000                                                        
  0.491526000000000       8.888200000000000E-002  1.916400000000000E-002        
   1.00000000000000       0.000000000000000E+000  0.000000000000000E+000        
  0.000000000000000E+000                                                        
  0.289903000000000      -1.191400000000000E-002 -0.572793000000000             
  0.000000000000000E+000   1.00000000000000       0.000000000000000E+000        
  0.000000000000000E+000                                                        
  0.138193000000000       2.869000000000000E-003 -0.583179000000000             
  0.000000000000000E+000  0.000000000000000E+000   1.00000000000000             
  0.000000000000000E+000                                                        
  6.358500000000000E-002 -4.740000000000000E-004 -0.142004000000000             
  0.000000000000000E+000  0.000000000000000E+000  0.000000000000000E+000        
   1.00000000000000                                                             
   11    6                                                                      
   99.5914000000000       3.460000000000000E-004 -1.090000000000000E-004        
  0.000000000000000E+000  0.000000000000000E+000  0.000000000000000E+000        
  0.000000000000000E+000                                                        
   19.8964000000000      -1.997600000000000E-002  6.023000000000000E-003        
  0.000000000000000E+000  0.000000000000000E+000  0.000000000000000E+000        
  0.000000000000000E+000                                                        
   12.4376000000000       0.175446000000000      -5.752500000000000E-002        
  0.000000000000000E+000  0.000000000000000E+000  0.000000000000000E+000        
  0.000000000000000E+000                                                        
   7.77400000000000      -0.379556000000000       0.135432000000000             
  0.000000000000000E+000  0.000000000000000E+000  0.000000000000000E+000        
  0.000000000000000E+000                                                        
   4.83995000000000      -5.526200000000000E-002  2.210000000000000E-003        
  0.000000000000000E+000  0.000000000000000E+000  0.000000000000000E+000        
  0.000000000000000E+000                                                        
   2.25478000000000       0.528884000000000      -0.199124000000000             
  0.000000000000000E+000  0.000000000000000E+000  0.000000000000000E+000        
  0.000000000000000E+000                                                        
   1.18049000000000       0.521324000000000      -0.236319000000000             
  0.000000000000000E+000  0.000000000000000E+000  0.000000000000000E+000        
  0.000000000000000E+000                                                        
  0.594224000000000       0.154236000000000      -1.142000000000000E-003        
   1.00000000000000       0.000000000000000E+000  0.000000000000000E+000        
  0.000000000000000E+000                                                        
  0.257970000000000       9.866000000000000E-003  0.414375000000000             
  0.000000000000000E+000   1.00000000000000       0.000000000000000E+000        
  0.000000000000000E+000                                                        
  0.112868000000000       2.760000000000000E-004  0.534844000000000             
  0.000000000000000E+000  0.000000000000000E+000   1.00000000000000             
  0.000000000000000E+000                                                        
  4.788500000000000E-002 -1.800000000000000E-005  0.194336000000000             
  0.000000000000000E+000  0.000000000000000E+000  0.000000000000000E+000        
   1.00000000000000                                                             
   11    4                                                                      
   176.937000000000       5.600000000000000E-005  0.000000000000000E+000        
  0.000000000000000E+000  0.000000000000000E+000                                
   52.4668000000000       4.280000000000000E-004  0.000000000000000E+000        
  0.000000000000000E+000  0.000000000000000E+000                                
   13.7831000000000       1.009600000000000E-002  0.000000000000000E+000        
  0.000000000000000E+000  0.000000000000000E+000                                
   6.85121000000000      -7.843600000000001E-002  0.000000000000000E+000        
  0.000000000000000E+000  0.000000000000000E+000                                
   4.17787000000000       1.281500000000000E-002  0.000000000000000E+000        
  0.000000000000000E+000  0.000000000000000E+000                                
   2.60919000000000       0.208814000000000       0.000000000000000E+000        
  0.000000000000000E+000  0.000000000000000E+000                                
   1.55166000000000       0.341631000000000       0.000000000000000E+000        
  0.000000000000000E+000  0.000000000000000E+000                                
  0.889902000000000       0.340101000000000       0.000000000000000E+000        
  0.000000000000000E+000  0.000000000000000E+000                                
  0.485299000000000       0.208427000000000        1.00000000000000             
  0.000000000000000E+000  0.000000000000000E+000                                
  0.246894000000000       6.615000000000000E-002  0.000000000000000E+000        
   1.00000000000000       0.000000000000000E+000                                
  0.104400000000000       5.723000000000000E-003  0.000000000000000E+000        
  0.000000000000000E+000   1.00000000000000                                     
    2    2                                                                      
  0.480300000000000        1.00000000000000       0.000000000000000E+000        
  0.200600000000000       0.000000000000000E+000   1.00000000000000             
    1    1                                                                      
  0.420300000000000        1.00000000000000                                     
         83.00000000    1    5    1    1    1    1    1                         
BI#2   2.790578660823797  -0.000000000000003  -1.973237094502983                
   14    6                                                                      
   8131.09000000000       2.900000000000000E-005  1.400000000000000E-005        
  0.000000000000000E+000  0.000000000000000E+000  0.000000000000000E+000        
  0.000000000000000E+000                                                        
   1225.77000000000       2.000000000000000E-004  9.500000000000001E-005        
  0.000000000000000E+000  0.000000000000000E+000  0.000000000000000E+000        
  0.000000000000000E+000                                                        
   274.672000000000       6.840000000000000E-004  3.450000000000000E-004        
  0.000000000000000E+000  0.000000000000000E+000  0.000000000000000E+000        
  0.000000000000000E+000                                                        
   37.6164000000000       2.021800000000000E-002  8.252000000000001E-003        
  0.000000000000000E+000  0.000000000000000E+000  0.000000000000000E+000        
  0.000000000000000E+000                                                        
   23.4804000000000      -0.159326000000000      -6.791899999999999E-002        
  0.000000000000000E+000  0.000000000000000E+000  0.000000000000000E+000        
  0.000000000000000E+000                                                        
   14.1065000000000       0.611726000000000       0.281065000000000             
  0.000000000000000E+000  0.000000000000000E+000  0.000000000000000E+000        
  0.000000000000000E+000                                                        
   8.81305000000000      -0.544653000000000      -0.293282000000000             
  0.000000000000000E+000  0.000000000000000E+000  0.000000000000000E+000        
  0.000000000000000E+000                                                        
   5.50778000000000      -0.636884000000000      -0.263451000000000             
  0.000000000000000E+000  0.000000000000000E+000  0.000000000000000E+000        
  0.000000000000000E+000                                                        
   2.03977000000000       0.771698000000000       0.477772000000000             
  0.000000000000000E+000  0.000000000000000E+000  0.000000000000000E+000        
  0.000000000000000E+000                                                        
   1.09440000000000       0.638367000000000       0.528566000000000             
  0.000000000000000E+000  0.000000000000000E+000  0.000000000000000E+000        
  0.000000000000000E+000                                                        
  0.491526000000000       8.888200000000000E-002  1.916400000000000E-002        
   1.00000000000000       0.000000000000000E+000  0.000000000000000E+000        
  0.000000000000000E+000                                                        
  0.289903000000000      -1.191400000000000E-002 -0.572793000000000             
  0.000000000000000E+000   1.00000000000000       0.000000000000000E+000        
  0.000000000000000E+000                                                        
  0.138193000000000       2.869000000000000E-003 -0.583179000000000             
  0.000000000000000E+000  0.000000000000000E+000   1.00000000000000             
  0.000000000000000E+000                                                        
  6.358500000000000E-002 -4.740000000000000E-004 -0.142004000000000             
  0.000000000000000E+000  0.000000000000000E+000  0.000000000000000E+000        
   1.00000000000000                                                             
   11    6                                                                      
   99.5914000000000       3.460000000000000E-004 -1.090000000000000E-004        
  0.000000000000000E+000  0.000000000000000E+000  0.000000000000000E+000        
  0.000000000000000E+000                                                        
   19.8964000000000      -1.997600000000000E-002  6.023000000000000E-003        
  0.000000000000000E+000  0.000000000000000E+000  0.000000000000000E+000        
  0.000000000000000E+000                                                        
   12.4376000000000       0.175446000000000      -5.752500000000000E-002        
  0.000000000000000E+000  0.000000000000000E+000  0.000000000000000E+000        
  0.000000000000000E+000                                                        
   7.77400000000000      -0.379556000000000       0.135432000000000             
  0.000000000000000E+000  0.000000000000000E+000  0.000000000000000E+000        
  0.000000000000000E+000                                                        
   4.83995000000000      -5.526200000000000E-002  2.210000000000000E-003        
  0.000000000000000E+000  0.000000000000000E+000  0.000000000000000E+000        
  0.000000000000000E+000                                                        
   2.25478000000000       0.528884000000000      -0.199124000000000             
  0.000000000000000E+000  0.000000000000000E+000  0.000000000000000E+000        
  0.000000000000000E+000                                                        
   1.18049000000000       0.521324000000000      -0.236319000000000             
  0.000000000000000E+000  0.000000000000000E+000  0.000000000000000E+000        
  0.000000000000000E+000                                                        
  0.594224000000000       0.154236000000000      -1.142000000000000E-003        
   1.00000000000000       0.000000000000000E+000  0.000000000000000E+000        
  0.000000000000000E+000                                                        
  0.257970000000000       9.866000000000000E-003  0.414375000000000             
  0.000000000000000E+000   1.00000000000000       0.000000000000000E+000        
  0.000000000000000E+000                                                        
  0.112868000000000       2.760000000000000E-004  0.534844000000000             
  0.000000000000000E+000  0.000000000000000E+000   1.00000000000000             
  0.000000000000000E+000                                                        
  4.788500000000000E-002 -1.800000000000000E-005  0.194336000000000             
  0.000000000000000E+000  0.000000000000000E+000  0.000000000000000E+000        
   1.00000000000000                                                             
   11    4                                                                      
   176.937000000000       5.600000000000000E-005  0.000000000000000E+000        
  0.000000000000000E+000  0.000000000000000E+000                                
   52.4668000000000       4.280000000000000E-004  0.000000000000000E+000        
  0.000000000000000E+000  0.000000000000000E+000                                
   13.7831000000000       1.009600000000000E-002  0.000000000000000E+000        
  0.000000000000000E+000  0.000000000000000E+000                                
   6.85121000000000      -7.843600000000001E-002  0.000000000000000E+000        
  0.000000000000000E+000  0.000000000000000E+000                                
   4.17787000000000       1.281500000000000E-002  0.000000000000000E+000        
  0.000000000000000E+000  0.000000000000000E+000                                
   2.60919000000000       0.208814000000000       0.000000000000000E+000        
  0.000000000000000E+000  0.000000000000000E+000                                
   1.55166000000000       0.341631000000000       0.000000000000000E+000        
  0.000000000000000E+000  0.000000000000000E+000                                
  0.889902000000000       0.340101000000000       0.000000000000000E+000        
  0.000000000000000E+000  0.000000000000000E+000                                
  0.485299000000000       0.208427000000000        1.00000000000000             
  0.000000000000000E+000  0.000000000000000E+000                                
  0.246894000000000       6.615000000000000E-002  0.000000000000000E+000        
   1.00000000000000       0.000000000000000E+000                                
  0.104400000000000       5.723000000000000E-003  0.000000000000000E+000        
  0.000000000000000E+000   1.00000000000000                                     
    2    2                                                                      
  0.480300000000000        1.00000000000000       0.000000000000000E+000        
  0.200600000000000       0.000000000000000E+000   1.00000000000000             
    1    1                                                                      
  0.420300000000000        1.00000000000000                                     
FINISH                                                                          
 
********************************************************************************
 One- and two-electron integrals over symmetry-adapted AOs are calculated.

  Spherical harmonics are used.
  Effective core potentials are used.
  
  Integrals less than  0.10E-13 are neglected.

 ECP CALLED
 reading data block $ecp from file <ECPDATA>

          ------------------
          -ecp- potential(s)
          ------------------
 ECP PARAMETERS FOR ATOM                     1
BI:ECP-60           
*
  NCORE =    60           LMAX =     5
#        COEFFICIENT   R^N          EXPONENT
h
           0.0000000    2           1.0000000
s-h
         283.2642270    2          13.0430900
          62.4719590    2           8.2216820
p-h
          72.0014990    2          10.4677770
         144.0022770    2           9.1189010
           5.0079450    2           6.7547910
           9.9915500    2           6.2525920
d-h
          36.3962590    2           8.0814740
          54.5976640    2           7.8905950
           9.9842940    2           4.9555560
          14.9814850    2           4.7045590
f-h
          13.7133830    2           4.2145460
          18.1943080    2           4.1334000
g-h
         -10.2474430    2           6.2057090
         -12.9557100    2           6.2277820
*
 ECP PARAMETERS FOR ATOM                     2
BI:ECP-60           
*
  NCORE =    60           LMAX =     5
#        COEFFICIENT   R^N          EXPONENT
h
           0.0000000    2           1.0000000
s-h
         283.2642270    2          13.0430900
          62.4719590    2           8.2216820
p-h
          72.0014990    2          10.4677770
         144.0022770    2           9.1189010
           5.0079450    2           6.7547910
           9.9915500    2           6.2525920
d-h
          36.3962590    2           8.0814740
          54.5976640    2           7.8905950
           9.9842940    2           4.9555560
          14.9814850    2           4.7045590
f-h
          13.7133830    2           4.2145460
          18.1943080    2           4.1334000
g-h
         -10.2474430    2           6.2057090
         -12.9557100    2           6.2277820
*

     code set-up for matrix elements of effective core potential

          basis functions are max type  i
          projection operator max type  h
          1.basic angular ints.........     0.01 sec
          2.local operator ints........     0.00 sec
          3.projection operator ints...     0.00 sec
          4.special angular ints.......     0.00 sec

  Nuclear repulsion energy :  568.6992530544 a.u.
  required memory for a1 array               23078418  words 
  required memory for a2 array                2708282  words 
 @GETMEM-I,  Allocated     211 MB of main memory.
 ia, idexatom                     1                     0
 ia, idexatom                     2                     1
 ia, idexatom                     3                     1
 ia, idexatom                     4                     2
 ia, idexatom                     5                     2
 call cvw_ecp_int
 ECP: maximum angular momentum =                     4
 ECP: maximum angular projector=                     4
 total number of basis functions                   332
! CPU time for ECP integrals:     1.3 seconds.
  @MOLECU-I, ECP-integrals (CPU/WALL):       1.25/       1.25 seconds.
  @MOLECU-I, One electron integrals (CPU/WALL):        0.19/       0.20 seconds.
  @TWOEL-I,    2966477 integrals of symmetry type  I I I I
  @TWOEL-I,   14467039 integrals of symmetry type  I J I J
  @TWOEL-I,    7420925 integrals of symmetry type  I I J J
  @TWOEL-I,   13008448 integrals of symmetry type  I J K L
  @TWOEL-I, Total number of 2-e integrals   37862889.
  @MOLECU-I, Two electron integrals (CPU/WALL):       28.50/      28.50 seconds.
  @CHECKOUT-I, Total execution time (CPU/WALL):       30.07/      30.09 seconds.
--executable xvmol finished with status     0 in       44.24 seconds (walltime).
 --invoking executable--
/opt/vulcan/opt/vulcan/linux-x86_64/intel-16.0.1/cfour-2.0-hjkzrfqmrmfvexnyvlji4zmpovcjpspy/bin/xvmol2ja
 @GETMEM-I,  Allocated   13351 MB of main memory.
  @CHECKOUT-I, Total execution time (CPU/WALL):        0.04/       0.07 seconds.
--executable xvmol2ja finished with status     0 in        0.13 seconds (walltime).
 --invoking executable--
/opt/vulcan/opt/vulcan/linux-x86_64/intel-16.0.1/cfour-2.0-hjkzrfqmrmfvexnyvlji4zmpovcjpspy/bin/xvscf
  There are  268 functions in the AO basis.

  There are 4 irreducible representations.

       Irrep        # of functions
         1                 86
         2                 67
         3                 67
         4                 48


  Parameters for SCF calculation: 
        SCF reference function:  RHF  
  Maximum number of iterations:  500
     Full symmetry point group: T d 
     Computational point group: C2v 
        Initial density matrix: MOREAD                 
     SCF convergence tolerance: 10**(-10)
  DIIS convergence acceleration:  ON
          Latest start for DIIS:   8
                     DIIS order:   6

  Memory information:    3573213 words required.
  Fock matrices are constructed from AO integral file.
 @GETMEM-I,  Allocated      27 MB of main memory.
  Initialization and symmetry analysis required      0.004 seconds.

 Read in ECP integrals from hard disk!
 unsymmetric error:  1.554312234475219E-014
  @INITGES-I, Occupancies from core Hamiltonian:

          Alpha population by irrep:  17   11   11    7
           Beta population by irrep:  17   11   11    7


 total no. of electrons in initial guess :  0.000000000000000E+000
  --------------------------------------------------------------------
  Iteration         Total Energy            Largest Density Difference
  --------------------------------------------------------------------
       0           568.699253054385622              0.0000000000D+00
   current occupation vector 
    17 11 11  7
    17 11 11  7
       1          -785.204193579830985              0.3098264581D+02
   current occupation vector 
    17 11 11  7
    17 11 11  7
       2          -625.573407817384236              0.1953898065D+03
   current occupation vector 
    17 12 11  6
    17 12 11  6
       3          -804.092391390809667              0.1954399519D+03
   current occupation vector 
    17 11 11  7
    17 11 11  7
       4          -685.892920772006505              0.1454363502D+03
   current occupation vector 
    16 11 12  7
    16 11 12  7
       5          -802.043316560800008              0.1462794619D+03
   current occupation vector 
    16 12 11  7
    16 12 11  7
       6          -681.221462427854590              0.2084374139D+03
   current occupation vector 
    17 10 12  7
    17 10 12  7
       7          -591.524028077504568              0.2087984574D+03
   current occupation vector 
    16 13 10  7
    16 13 10  7
       8          -226.705291991548734              0.6604650777D+02
   current occupation vector 
    16  8 15  7
    16  8 15  7
       9          -809.036971276056761              0.6304885919D+02
   current occupation vector 
    17 12 10  7
    17 12 10  7
      10          -837.581636043013191              0.3559289512D+01
   current occupation vector 
    16 12 11  7
    16 12 11  7
      11          -839.131260406933166              0.3315743344D+01
   current occupation vector 
    16 12 11  7
    16 12 11  7
      12          -842.363180735487390              0.4201123476D+00
   current occupation vector 
    16 12 11  7
    16 12 11  7
      13          -853.462935120804900              0.6211709325D+01
   current occupation vector 
    17 11 11  7
    17 11 11  7
      14          -854.105618208909050              0.7564730351D+00
   current occupation vector 
    17 11 11  7
    17 11 11  7
      15          -854.389850605896413              0.1606577889D+00
   current occupation vector 
    17 11 11  7
    17 11 11  7
      16          -854.399656649109943              0.4278094409D-01
   current occupation vector 
    17 11 11  7
    17 11 11  7
      17          -854.402584782831468              0.1976397341D-01
   current occupation vector 
    17 11 11  7
    17 11 11  7
      18          -854.403375229997778              0.1588066980D-01
   current occupation vector 
    17 11 11  7
    17 11 11  7
      19          -854.403472277397555              0.8069486726D-02
   current occupation vector 
    17 11 11  7
    17 11 11  7
      20          -854.403499793121114              0.3018687213D-02
   current occupation vector 
    17 11 11  7
    17 11 11  7
      21          -854.403504295510743              0.2154224064D-02
   current occupation vector 
    17 11 11  7
    17 11 11  7
      22          -854.403504570199289              0.4916870582D-03
   current occupation vector 
    17 11 11  7
    17 11 11  7
      23          -854.403504602119824              0.1532738147D-03
   current occupation vector 
    17 11 11  7
    17 11 11  7
      24          -854.403504620721037              0.1228199114D-03
   current occupation vector 
    17 11 11  7
    17 11 11  7
      25          -854.403504623368804              0.5372514740D-04
   current occupation vector 
    17 11 11  7
    17 11 11  7
      26          -854.403504623646654              0.1728633113D-04
   current occupation vector 
    17 11 11  7
    17 11 11  7
      27          -854.403504623638696              0.2854823760D-05
   current occupation vector 
    17 11 11  7
    17 11 11  7
      28          -854.403504623656659              0.2063409156D-05
   current occupation vector 
    17 11 11  7
    17 11 11  7
      29          -854.403504623655294              0.8404994986D-06
   current occupation vector 
    17 11 11  7
    17 11 11  7
      30          -854.403504623653475              0.4202103845D-06
   current occupation vector 
    17 11 11  7
    17 11 11  7
      31          -854.403504623657795              0.2504641685D-06
   current occupation vector 
    17 11 11  7
    17 11 11  7
      32          -854.403504623677122              0.7418701953D-07
   current occupation vector 
    17 11 11  7
    17 11 11  7
      33          -854.403504623670756              0.4764960998D-07
   current occupation vector 
    17 11 11  7
    17 11 11  7
      34          -854.403504623663480              0.1602259198D-07
   current occupation vector 
    17 11 11  7
    17 11 11  7
      35          -854.403504623663707              0.6297048272D-08
   current occupation vector 
    17 11 11  7
    17 11 11  7
      36          -854.403504623671665              0.2106421926D-08
   current occupation vector 
    17 11 11  7
    17 11 11  7
      37          -854.403504623675985              0.1100081692D-08
   current occupation vector 
    17 11 11  7
    17 11 11  7
      38          -854.403504623677350              0.2418120149D-09
   current occupation vector 
    17 11 11  7
    17 11 11  7
      39          -854.403504623674849              0.2603738891D-09
   current occupation vector 
    17 11 11  7
    17 11 11  7

  SCF has converged.

 Density matrix saved to file den.dat
 total electron number:   92.0000000000000     
     E(SCF)=      -854.403504623682579              0.7406816133D-10

  Eigenvector printing suppressed.

 @PUTMOS-I, Writing converged MOs to NEWMOS. 
 @PUTMOS-I, Symmetry   1 Full Blocks 21 Partial Blocksize   2
 @PUTMOS-I, Symmetry   2 Full Blocks 16 Partial Blocksize   3
 @PUTMOS-I, Symmetry   3 Full Blocks 16 Partial Blocksize   3
 @PUTMOS-I, Symmetry   4 Full Blocks 12 Partial Blocksize   0


 
  ORBITAL EIGENVALUES (ALPHA)  (1H = 27.2113838 eV)

       MO #        E(hartree)               E(eV)           FULLSYM    COMPSYM
       ----   --------------------   --------------------   -------   ---------
    1     1          -6.6791865730        -181.7499094393      A1        A1 (1)
    2   154          -6.6791682437        -181.7494106745      T2        B2 (3)
    3     2          -6.6791682437        -181.7494106745      T2        A1 (1)
    4    87          -6.6791682437        -181.7494106745      T2        B1 (2)
    5     3          -4.2572774817        -115.8464115823      A1        A1 (1)
    6   155          -4.2567512009        -115.8320907531      T2        B2 (3)
    7     4          -4.2567512009        -115.8320907531      T2        A1 (1)
    8    88          -4.2567512009        -115.8320907531      T2        B1 (2)
    9     5          -4.2551667580        -115.7889758693       E        A1 (1)
   10   221          -4.2551667580        -115.7889758693       E        A2 (4)
   11    89          -4.2551521508        -115.7885783869      T2        B1 (2)
   12     6          -4.2551521508        -115.7885783869      T2        A1 (1)
   13   156          -4.2551521508        -115.7885783868      T2        B2 (3)
   14   157          -4.2549686047        -115.7835838419      T1        B2 (3)
   15   222          -4.2549686047        -115.7835838419      T1        A2 (4)
   16    90          -4.2549686047        -115.7835838418      T1        B1 (2)
   17     7          -1.3250927965         -36.0576086824      A1        A1 (1)
   18    91          -1.3189865331         -35.8914488044      T2        B1 (2)
   19     8          -1.3189865331         -35.8914488044      T2        A1 (1)
   20   158          -1.3189865331         -35.8914488044      T2        B2 (3)
   21     9          -1.3183748703         -35.8748046147       E        A1 (1)
   22   223          -1.3183748703         -35.8748046147       E        A2 (4)
   23    92          -1.3095809603         -35.6355101545      T2        B1 (2)
   24    10          -1.3095809603         -35.6355101545      T2        A1 (1)
   25   159          -1.3095809603         -35.6355101545      T2        B2 (3)
   26   160          -1.3050659851         -35.5126514295      T2        B2 (3)
   27    11          -1.3050659851         -35.5126514294      T2        A1 (1)
   28    93          -1.3050659851         -35.5126514294      T2        B1 (2)
   29    94          -1.3048146815         -35.5058131115      T1        B1 (2)
   30   224          -1.3048146815         -35.5058131115      T1        A2 (4)
   31   161          -1.3048146815         -35.5058131114      T1        B2 (3)
   32   225          -1.3045281698         -35.4980167328       E        A2 (4)
   33    12          -1.3045281698         -35.4980167328       E        A1 (1)
   34   162          -1.2996594218         -35.3655313625      T1        B2 (3)
   35   226          -1.2996594218         -35.3655313625      T1        A2 (4)
   36    95          -1.2996594218         -35.3655313625      T1        B1 (2)
   37    13          -0.8494813174         -23.1155621758      A1        A1 (1)
   38    14          -0.6651598460         -18.0999198716      T2        A1 (1)
   39    96          -0.6651598460         -18.0999198716      T2        B1 (2)
   40   163          -0.6651598460         -18.0999198716      T2        B2 (3)
   41    15          -0.3481894347          -9.4747163505      A1        A1 (1)
   42   164          -0.3047384725          -8.2923555401      T2        B2 (3)
   43    16          -0.3047384725          -8.2923555400      T2        A1 (1)
   44    97          -0.3047384725          -8.2923555399      T2        B1 (2)
   45    17          -0.2665631332          -7.2535517293       E        A1 (1)
   46   227          -0.2665631332          -7.2535517292       E        A2 (4)
  +++++++++++++++++++++++++++++++++++++++++++++++++++++++++++++++++++++++++++++
   47   165           0.0339849652           0.9247779311      T2        B2 (3)
   48    18           0.0339849652           0.9247779311      T2        A1 (1)
   49    98           0.0339849652           0.9247779311      T2        B1 (2)
   50   166           0.0411594535           1.1200056866      T1        B2 (3)
   51   228           0.0411594535           1.1200056866      T1        A2 (4)
   52    99           0.0411594535           1.1200056866      T1        B1 (2)
   53    19           0.1119051713           3.0450945675      A1        A1 (1)
   54   100           0.1408155816           3.8317868386      T2        B1 (2)
   55   167           0.1408155816           3.8317868386      T2        B2 (3)
   56    20           0.1408155816           3.8317868386      T2        A1 (1)
   57    21           0.1619540528           4.4069938924       E        A1 (1)
   58   229           0.1619540528           4.4069938924       E        A2 (4)
   59    22           0.1637370153           4.4555107675      A1        A1 (1)
   60   101           0.1766916750           4.8080249850      T2        B1 (2)
   61   168           0.1766916750           4.8080249850      T2        B2 (3)
   62    23           0.1766916750           4.8080249850      T2        A1 (1)
   63   230           0.2124228959           5.7803209514      T1        A2 (4)
   64   102           0.2124228959           5.7803209514      T1        B1 (2)
   65   169           0.2124228959           5.7803209514      T1        B2 (3)
   66   103           0.2151755095           5.8552233764      T2        B1 (2)
   67    24           0.2151755095           5.8552233765      T2        A1 (1)
   68   170           0.2151755095           5.8552233765      T2        B2 (3)
   69   104           0.3038697621           8.2687167284      T2        B1 (2)
   70    25           0.3038697621           8.2687167285      T2        A1 (1)
   71   171           0.3038697621           8.2687167285      T2        B2 (3)
   72   231           0.3281612404           8.9297214660       E        A2 (4)
   73    26           0.3281612404           8.9297214660       E        A1 (1)
   74   105           0.3548262082           9.6553121406      T1        B1 (2)
   75   232           0.3548262082           9.6553121406      T1        A2 (4)
   76   172           0.3548262082           9.6553121406      T1        B2 (3)
   77    27           0.3786052178          10.3023718976      A1        A1 (1)
   78   106           0.4115435768          11.1986702278      T2        B1 (2)
   79   173           0.4115435768          11.1986702278      T2        B2 (3)
   80    28           0.4115435768          11.1986702278      T2        A1 (1)
   81   233           0.4238769035          11.5342771123       E        A2 (4)
   82    29           0.4238769035          11.5342771123       E        A1 (1)
   83   107           0.4294383512          11.6856118023      T2        B1 (2)
   84   174           0.4294383512          11.6856118025      T2        B2 (3)
   85    30           0.4294383512          11.6856118026      T2        A1 (1)
   86   234           0.4785168655          13.0211060914      T1        A2 (4)
   87   108           0.4785168655          13.0211060914      T1        B1 (2)
   88   175           0.4785168655          13.0211060914      T1        B2 (3)
   89    31           0.5102373642          13.8842647560      A1        A1 (1)
   90   109           0.5825557741          15.8521487666      T2        B1 (2)
   91    32           0.5825557741          15.8521487666      T2        A1 (1)
   92   176           0.5825557741          15.8521487666      T2        B2 (3)
   93    33           0.6121881746          16.6584873902      A1        A1 (1)
   94    34           0.6708720028          18.2553555612       E        A1 (1)
   95   235           0.6708720028          18.2553555612       E        A2 (4)
   96   110           0.6873732032          18.7043760599      T2        B1 (2)
   97    35           0.6873732032          18.7043760599      T2        A1 (1)
   98   177           0.6873732032          18.7043760600      T2        B2 (3)
   99   111           0.6876112567          18.7108538251      T1        B1 (2)
  100   236           0.6876112567          18.7108538251      T1        A2 (4)
  101   178           0.6876112567          18.7108538251      T1        B2 (3)
  102   112           0.7735540560          21.0494763243      T2        B1 (2)
  103    36           0.7735540560          21.0494763243      T2        A1 (1)
  104   179           0.7735540560          21.0494763243      T2        B2 (3)
  105   237           0.8082134038          21.9926051390       E        A2 (4)
  106    37           0.8082134038          21.9926051390       E        A1 (1)
  107    38           0.8343465915          22.7037253388      A1        A1 (1)
  108   180           0.8583970318          23.3581711006      T2        B2 (3)
  109    39           0.8583970318          23.3581711006      T2        A1 (1)
  110   113           0.8583970318          23.3581711006      T2        B1 (2)
  111   238           0.8661587726          23.5693788092      A2        A2 (4)
  112   114           0.8678763323          23.6161159858      T1        B1 (2)
  113   239           0.8678763323          23.6161159859      T1        A2 (4)
  114   181           0.8678763323          23.6161159859      T1        B2 (3)
  115   182           0.9060695282          24.6554057001      T2        B2 (3)
  116    40           0.9060695282          24.6554057001      T2        A1 (1)
  117   115           0.9060695282          24.6554057001      T2        B1 (2)
  118   183           0.9334811851          25.4013148171      T2        B2 (3)
  119   116           0.9334811851          25.4013148171      T2        B1 (2)
  120    41           0.9334811851          25.4013148171      T2        A1 (1)
  121   117           0.9465964163          25.7581984066      T1        B1 (2)
  122   240           0.9465964163          25.7581984066      T1        A2 (4)
  123   184           0.9465964163          25.7581984066      T1        B2 (3)
  124    42           0.9511074714          25.8809504587      A1        A1 (1)
  125   241           0.9596903929          26.1145036292       E        A2 (4)
  126    43           0.9596903929          26.1145036292       E        A1 (1)
  127   185           0.9672524712          26.3202782441      T2        B2 (3)
  128   118           0.9672524712          26.3202782442      T2        B1 (2)
  129    44           0.9672524712          26.3202782445      T2        A1 (1)
  130   119           0.9732552754          26.4836228520      T1        B1 (2)
  131   242           0.9732552754          26.4836228520      T1        A2 (4)
  132   186           0.9732552754          26.4836228522      T1        B2 (3)
  133   120           1.0167597576          27.6674400157      T2        B1 (2)
  134   187           1.0167597576          27.6674400157      T2        B2 (3)
  135    45           1.0167597576          27.6674400157      T2        A1 (1)
  136   243           1.0284491385          27.9855242479       E        A2 (4)
  137    46           1.0284491385          27.9855242479       E        A1 (1)
  138   121           1.0381487806          28.2494649310      T1        B1 (2)
  139   244           1.0381487806          28.2494649310      T1        A2 (4)
  140   188           1.0381487806          28.2494649310      T1        B2 (3)
  141    47           1.0986751065          29.8964700167       E        A1 (1)
  142   245           1.0986751065          29.8964700167       E        A2 (4)
  143   122           1.1234972402          30.5719146247      T2        B1 (2)
  144    48           1.1234972403          30.5719146248      T2        A1 (1)
  145   189           1.1234972403          30.5719146248      T2        B2 (3)
  146    49           1.1889417352          32.3527498943      A1        A1 (1)
  147   123           1.4652170770          39.8705842602      T1        B1 (2)
  148   246           1.4652170770          39.8705842603      T1        A2 (4)
  149   190           1.4652170770          39.8705842604      T1        B2 (3)
  150   191           1.4946122962          40.6704688526      T2        B2 (3)
  151    50           1.4946122962          40.6704688531      T2        A1 (1)
  152   124           1.4946122962          40.6704688539      T2        B1 (2)
  153   192           1.5226858756          41.4343897964      T2        B2 (3)
  154    51           1.5226858756          41.4343897965      T2        A1 (1)
  155   125           1.5226858756          41.4343897967      T2        B1 (2)
  156    52           1.5258173061          41.5196003558      A1        A1 (1)
  157   126           1.5799836790          42.9935423188      T1        B1 (2)
  158   247           1.5799836790          42.9935423188      T1        A2 (4)
  159   193           1.5799836790          42.9935423189      T1        B2 (3)
  160    53           1.5833953709          43.0863791758       E        A1 (1)
  161   248           1.5833953709          43.0863791758       E        A2 (4)
  162   194           1.6091234487          43.7864757754      T2        B2 (3)
  163    54           1.6091234487          43.7864757755      T2        A1 (1)
  164   127           1.6091234487          43.7864757756      T2        B1 (2)
  165   249           1.6177911582          44.0223361446      A2        A2 (4)
  166    55           1.6198081291          44.0772207141      A1        A1 (1)
  167   128           1.6341409464          44.4672365066      T2        B1 (2)
  168   195           1.6341409464          44.4672365067      T2        B2 (3)
  169    56           1.6341409464          44.4672365067      T2        A1 (1)
  170   250           1.6449327081          44.7608952777       E        A2 (4)
  171    57           1.6449327081          44.7608952777       E        A1 (1)
  172   129           1.6739501923          45.5505011772      T1        B1 (2)
  173   251           1.6739501923          45.5505011772      T1        A2 (4)
  174   196           1.6739501923          45.5505011772      T1        B2 (3)
  175   197           1.7089263238          46.5022501169      T2        B2 (3)
  176   130           1.7089263238          46.5022501169      T2        B1 (2)
  177    58           1.7089263238          46.5022501169      T2        A1 (1)
  178   131           1.7361189914          47.2422002317      T1        B1 (2)
  179   252           1.7361189914          47.2422002317      T1        A2 (4)
  180   198           1.7361189914          47.2422002318      T1        B2 (3)
  181   132           1.8065801215          49.1595450882      T1        B1 (2)
  182   253           1.8065801215          49.1595450883      T1        A2 (4)
  183   199           1.8065801215          49.1595450883      T1        B2 (3)
  184    59           1.8296363282          49.7869363767      A1        A1 (1)
  185   133           1.8678581777          50.8270057952      T2        B1 (2)
  186    60           1.8678581777          50.8270057952      T2        A1 (1)
  187   200           1.8678581777          50.8270057953      T2        B2 (3)
  188   254           1.8887926693          51.3966622811       E        A2 (4)
  189    61           1.8887926693          51.3966622811       E        A1 (1)
  190   201           1.9339443648          52.6253023976      T2        B2 (3)
  191    62           1.9339443649          52.6253023978      T2        A1 (1)
  192   134           1.9339443649          52.6253023979      T2        B1 (2)
  193    63           1.9382735686          52.7431060224      A1        A1 (1)
  194   135           2.0211433656          54.9981078761      T1        B1 (2)
  195   255           2.0211433656          54.9981078761      T1        A2 (4)
  196   202           2.0211433656          54.9981078761      T1        B2 (3)
  197   136           2.0809547309          56.6256578937      T2        B1 (2)
  198    64           2.0809547309          56.6256578937      T2        A1 (1)
  199   203           2.0809547309          56.6256578937      T2        B2 (3)
  200   256           2.1302042249          57.9658047769       E        A2 (4)
  201    65           2.1302042249          57.9658047769       E        A1 (1)
  202   204           2.1566361884          58.6850550812      T2        B2 (3)
  203    66           2.1566361884          58.6850550816      T2        A1 (1)
  204   137           2.1566361884          58.6850550822      T2        B1 (2)
  205   257           2.2643724751          61.6167085296      A2        A2 (4)
  206   258           2.2801335924          62.0455903431       E        A2 (4)
  207    67           2.2801335924          62.0455903431       E        A1 (1)
  208   205           2.3410668923          63.7036697529      T2        B2 (3)
  209    68           2.3410668923          63.7036697529      T2        A1 (1)
  210   138           2.3410668923          63.7036697529      T2        B1 (2)
  211   139           2.3462151460          63.8437608617      T1        B1 (2)
  212   259           2.3462151460          63.8437608618      T1        A2 (4)
  213   206           2.3462151460          63.8437608618      T1        B2 (3)
  214   260           2.3993718320          65.2902278469      T1        A2 (4)
  215   140           2.3993718320          65.2902278469      T1        B1 (2)
  216   207           2.3993718320          65.2902278470      T1        B2 (3)
  217   141           2.6845457847          73.0502057275      T2        B1 (2)
  218    69           2.6845457847          73.0502057275      T2        A1 (1)
  219   208           2.6845457847          73.0502057275      T2        B2 (3)
  220    70           2.7341531631          74.4000911413      A1        A1 (1)
  221   261           2.7629338184          75.1832526019       E        A2 (4)
  222    71           2.7629338185          75.1832526020       E        A1 (1)
  223   209           2.8254808951          76.8852451110      T2        B2 (3)
  224    72           2.8254808951          76.8852451110      T2        A1 (1)
  225   142           2.8254808951          76.8852451112      T2        B1 (2)
  226   262           2.8604624608          77.8371419216      T1        A2 (4)
  227   210           2.8604624608          77.8371419216      T1        B2 (3)
  228   143           2.8604624608          77.8371419217      T1        B1 (2)
  229   263           2.8821372589          78.4269431732       E        A2 (4)
  230    73           2.8821372589          78.4269431733       E        A1 (1)
  231   211           2.9011171837          78.9434131914      T1        B2 (3)
  232   264           2.9011171837          78.9434131914      T1        A2 (4)
  233   144           2.9011171837          78.9434131915      T1        B1 (2)
  234   145           2.9077458785          79.1237891508      T2        B1 (2)
  235    74           2.9077458785          79.1237891509      T2        A1 (1)
  236   212           2.9077458785          79.1237891509      T2        B2 (3)
  237    75           2.9901341772          81.3656887671      A1        A1 (1)
  238   213           3.0466333357          82.9031090543      T2        B2 (3)
  239    76           3.0466333357          82.9031090544      T2        A1 (1)
  240   146           3.0466333357          82.9031090553      T2        B1 (2)
  241    77           3.1111448099          84.6585555414       E        A1 (1)
  242   265           3.1111448099          84.6585555414       E        A2 (4)
  243    78           3.3850908724          92.1130069918      A1        A1 (1)
  244   214           3.4507054947          93.8984716652      T2        B2 (3)
  245    79           3.4507054947          93.8984716652      T2        A1 (1)
  246   147           3.4507054948          93.8984716676      T2        B1 (2)
  247   266           3.6518281727          99.3712980501      T1        A2 (4)
  248   148           3.6518281727          99.3712980501      T1        B1 (2)
  249   215           3.6518281727          99.3712980502      T1        B2 (3)
  250   216           3.7449904810         101.9063733797      T2        B2 (3)
  251    80           3.7449904811         101.9063733811      T2        A1 (1)
  252   149           3.7449904812         101.9063733844      T2        B1 (2)
  253   267          35.9674460742         978.7239801341       E        A2 (4)
  254    81          35.9674460742         978.7239801363       E        A1 (1)
  255   150          35.9689601419         978.7651800118      T2        B1 (2)
  256   217          35.9689601419         978.7651800133      T2        B2 (3)
  257    82          35.9689601421         978.7651800186      T2        A1 (1)
  258   218          36.0272113407         980.3502757415      T1        B2 (3)
  259   268          36.0272113408         980.3502757446      T1        A2 (4)
  260   151          36.0272113410         980.3502757495      T1        B1 (2)
  261    83          36.0818308381         981.8365478480      A1        A1 (1)
  262   219          36.1514241832         983.7302790743      T2        B2 (3)
  263   152          36.1514241834         983.7302790792      T2        B1 (2)
  264    84          36.1514241835         983.7302790810      T2        A1 (1)
  265    85          60.1495015566        1636.7511734128      A1        A1 (1)
  266   220          60.4093810349        1643.8228536440      T2        B2 (3)
  267    86          60.4093810349        1643.8228536442      T2        A1 (1)
  268   153          60.4093810349        1643.8228536447      T2        B1 (2)


  VSCF finished.

  @CHECKOUT-I, Total execution time (CPU/WALL):       18.87/      19.22 seconds.
--executable xvscf finished with status     0 in       19.74 seconds (walltime).
 --invoking executable--
/opt/vulcan/opt/vulcan/linux-x86_64/intel-16.0.1/cfour-2.0-hjkzrfqmrmfvexnyvlji4zmpovcjpspy/bin/xvtran
 @GETMEM-I,  Allocated   13351 MB of main memory.
  Partial RHF integral transformation
 ! shown number of AO integrals not right ! (in parallel version)
  Transformation of IIII integrals :
  1 pass through the AO integral file was required.
     2966477 AO integrals were read.
     7045440 MO integrals were written to HF2.
  Transformation of IIJJ integrals :
  1 pass through the AO integral file was required.
     7420925 AO integrals were read.
    16906849 MO integrals were written to HF2.
  Transformation of IJIJ integrals :
  1 pass through the AO integral file was required.
    14467039 AO integrals were read.
    33021628 MO integrals were written to HF2.
  Transformation of IJKL integrals :
  1 pass through the AO integral file was required.
    13008448 AO integrals were read.
    28974684 MO integrals were written to HF2.
  Summary of active molecular orbitals: 
------------------------------------------------------------------------
 
  Index      Eigenvalue    Symmetry    Index      Eigenvalue    Symmetry
------------------------------------------------------------------------
     1        -6.6791866        1       135         0.9465964        2
     2        -6.6791682        1       136         0.9672525        2
     3        -4.2572775        1       137         0.9732553        2
     4        -4.2567512        1       138         1.0167598        2
     5        -4.2551668        1       139         1.0381488        2
     6        -4.2551522        1       140         1.1234972        2
     7        -1.3250928        1       141         1.4652171        2
     8        -1.3189865        1       142         1.4946123        2
     9        -1.3183749        1       143         1.5226859        2
    10        -1.3095810        1       144         1.5799837        2
    11        -1.3050660        1       145         1.6091234        2
    12        -1.3045282        1       146         1.6341409        2
    13        -0.8494813        1       147         1.6739502        2
    14        -0.6651598        1       148         1.7089263        2
    15        -0.3481894        1       149         1.7361190        2
    16        -0.3047385        1       150         1.8065801        2
    17        -0.2665631        1       151         1.8678582        2
    18        -6.6791682        2       152         1.9339444        2
    19        -4.2567512        2       153         2.0211434        2
    20        -4.2551522        2       154         2.0809547        2
    21        -4.2549686        2       155         2.1566362        2
[...]
                         BI#2 z     0.1444757998


 BI#1 1    -0.0587999765            0.0835443856           -0.0722378999
 BI#1 2     0.0587999765           -0.0835443856           -0.0722378999
 BI#2 1    -0.0835443693           -0.0587999287            0.0722378999
 BI#2 2     0.0835443693            0.0587999287            0.0722378999



                Electronic contributions to dipole moment
                -----------------------------------------

                               au             Debye

                    z     -0.00000001     -0.00000002

  Conversion factor used: 1 a.u. =   2.54174691 Debye 


  Evaluation of 1e integral derivatives required   13.07 seconds.
  Evaluation of 2el integral derivatives

                      Two-electron integral gradient
                      ------------------------------

                         BI#1 x   -40.1697211598
                         BI#1 y    57.0741026099
                         BI#1 z   -49.3506901149
                         BI#2 x   -57.0741028263
                         BI#2 y   -40.1697219125
                         BI#2 z    49.3506901149


 BI#1 1   -20.0848605799           28.5370513050          -24.6753450575
 BI#1 2    20.0848605799          -28.5370513050          -24.6753450575
 BI#2 1   -28.5370514132          -20.0848609563           24.6753450575
 BI#2 2    28.5370514132           20.0848609563           24.6753450575


  Evaluation of 2e integral derivatives required  905.23 seconds.

                            Molecular gradient
                            ------------------

                         BI#1 x     0.0000009244
                         BI#1 y    -0.0000013134
                         BI#1 z    -0.0000022715
                         BI#2 x     0.0000013135
                         BI#2 y     0.0000009244
                         BI#2 z     0.0000022715


 BI#1 1     0.0000004622           -0.0000006567           -0.0000011358
 BI#1 2    -0.0000004622            0.0000006567           -0.0000011358
 BI#2 1     0.0000006567            0.0000004622            0.0000011358
 BI#2 2    -0.0000006567           -0.0000004622            0.0000011358


  Molecular gradient norm 0.393E-05

                           Total dipole moment
                           -------------------

                               au             Debye

                    z     -0.00000000     -0.00000000

  Conversion factor used: 1 a.u. =   2.54174691 Debye 


  @CHECKOUT-I, Total execution time (CPU/WALL):      918.29/     944.15 seconds.
--executable xvdint finished with status     0 in      974.64 seconds (walltime).
 --invoking executable--
/opt/vulcan/opt/vulcan/linux-x86_64/intel-16.0.1/cfour-2.0-hjkzrfqmrmfvexnyvlji4zmpovcjpspy/bin/xsymcor
 @GETMEM-I,  Allocated   13351 MB of main memory.
  current energy   -855.933034814355     
  read starts 
  0.000000000000000E+000
   208.980374000000     
   208.980374000000     
   208.980374000000     
   208.980374000000     
  read completed 
Largest asymmetry in FCM    0.000000000000000
 @GRAD2FCM-W, This is potentially concerning.  
  Vibrational frequencies  (cm-1) :
      1  178.68378     0.00000
Largest asymmetry in FCM    0.000000000000000
 @GRAD2FCM-W, This is potentially concerning.  
  Vibrational frequencies  (cm-1) :
      1    0.00000     0.00000
Largest asymmetry in FCM    0.000000000000000
 @GRAD2FCM-W, This is potentially concerning.  
  Vibrational frequencies  (cm-1) :
      1  131.49079     0.21212
Largest asymmetry in FCM    0.000000000000000
 @GRAD2FCM-W, This is potentially concerning.  
  Vibrational frequencies  (cm-1) :
      1  100.85033     0.00000
  @CHECKOUT-I, Total execution time (CPU/WALL):        0.00/       0.00 seconds.
--executable xsymcor finished with status     0 in        0.11 seconds (walltime).
 --invoking executable--
/opt/vulcan/opt/vulcan/linux-x86_64/intel-16.0.1/cfour-2.0-hjkzrfqmrmfvexnyvlji4zmpovcjpspy/bin/xjoda
 @GETREC: requested length of vector OCCUPYA0 is longer than actual
 Actual --                      2  Requested --                      8
  1  X          0     0.00000
  2  BI        83   208.98037
  3  BI        83   208.98037
  4  BI        83   208.98037
  5  BI        83   208.98037
   Rotational constants (in cm-1): 
          0.0092477492             0.0092477492             0.0092477492
   Rotational constants (in MHz): 
        277.2405864201           277.2405864201           277.2405864202
********************************************************************************
   The full molecular point group is T d .
   The largest Abelian subgroup of the full molecular point group is C2v .
   The computational point group is C2v .
********************************************************************************
 @GEOPT-W, Archive file not created for single-point calculation.
  igrd and ihes are                      0                     1
  fetching hessian                    225
  @PROJFCM-I, Projecting force constant matrix onto totally symmetric subspace.
  order is                     24
  Largest difference between matrix elements of symmetrized
  and unsymmetrized FCM :    -0.9216420115E-01.
  @PROJDPD-W, The input DPD was not totally symmetric.
  masses used (in AMU) in vibrational analysis: 
 208.980374000    208.980374000    208.980374000
 208.980374000
                     0
  Mass-weighted Hessian in unresolved coordinates:

                 COLUMN   1       COLUMN   2
 ROW   1      0.00038489944   -0.00000000000
 ROW   2     -0.00000000000    0.00038489944
  corresponding frequencies 
   100.850464623484     
   100.850464623484     
  Degenerate modes before resolution: 
    0.48855736118101    0.06140495320914    0.08683971762526
   -0.48855736118101   -0.06140495320914    0.08683971762526
   -0.06140495320915   -0.48855736118101   -0.08683971762526
    0.06140495320915    0.48855736118101   -0.08683971762526
  normalization    1.00000000000000     
 
    0.10635649879463   -0.28206872399243   -0.39890541499136
   -0.10635649879463    0.28206872399243   -0.39890541499136
    0.28206872399243   -0.10635649879463    0.39890541499136
   -0.28206872399243    0.10635649879463    0.39890541499136
  normalization    1.00000000000000     
 
 number of irreducible representations                     4
  Degenerate modes after resolution and renormalization: 
  first nonzero guy is                      2
  After resolution 
    0.00000000000000    0.28867513459481    0.40824829046386
    0.00000000000000   -0.28867513459481    0.40824829046386
   -0.28867513459481    0.00000000000000   -0.40824829046386
    0.28867513459481    0.00000000000000   -0.40824829046386
  first nonzero guy is                      1
  After resolution 
    0.50000000000000    0.00000000000000    0.00000000000000
   -0.50000000000000    0.00000000000000    0.00000000000000
    0.00000000000000   -0.50000000000000    0.00000000000000
    0.00000000000000    0.50000000000000    0.00000000000000
  reducible representations match to within    1.52880344954551     

                 COLUMN   1       COLUMN   2
 ROW   1      0.00038489944   -0.00000000000
 ROW   2     -0.00000000000    0.00038489944
  Mass-weighted Hessian in resolved coordinates:

                 COLUMN   1       COLUMN   2
 ROW   1      0.00038489944   -0.00000000000
 ROW   2     -0.00000000000    0.00038489944
                     0
  Mass-weighted Hessian in unresolved coordinates:

                 COLUMN   1       COLUMN   2       COLUMN   3
 ROW   1      0.00065430960   -0.00000000000   -0.00000000000
 ROW   2     -0.00000000000    0.00065430960    0.00000000000
 ROW   3     -0.00000000000    0.00000000000    0.00065430960
  corresponding frequencies 
   131.490964509270     
   131.490964509270     
   131.490964509270     
  Degenerate modes before resolution: 
    0.05884200046062   -0.56153866775506    0.11670708953682
    0.05884200046063    0.39648991890700   -0.11670708953682
   -0.53785629379166    0.08252437442403    0.08321515508858
    0.42017229287041    0.08252437442403   -0.08321515508858
  normalization    1.00000000000000     
 
    0.34862126808896    0.09419007376929   -0.01842844117249
    0.34862126808896   -0.06812832232976    0.01842844117249
   -0.26746207003944   -0.01303087571977    0.49302492546311
   -0.42978046613849   -0.01303087571977   -0.49302492546312
  normalization    1.00000000000000     
 
    0.00091127264681    0.22539422046539   -0.48583932303571
    0.00091127264681    0.46168633930587    0.48583932303571
   -0.11905733206705   -0.34354027988563    0.00128873413614
    0.11723478677343   -0.34354027988563   -0.00128873413614
  normalization    1.00000000000000     
 
 number of irreducible representations                     4
  Degenerate modes after resolution and renormalization: 
  first nonzero guy is                      2
  After resolution 
    0.00000000000000    0.50000000000000   -0.00000000000000
    0.00000000000000   -0.50000000000000   -0.00000000000000
    0.50000000000000    0.00000000000000    0.00000000000000
   -0.50000000000000   -0.00000000000000    0.00000000000000
  first nonzero guy is                      2
  After resolution 
    0.00000000000000    0.35355339059327   -0.50000000000000
   -0.00000000000000    0.35355339059327    0.50000000000000
    0.00000000000000   -0.35355339059327    0.00000000000000
   -0.00000000000000   -0.35355339059327    0.00000000000000
  first nonzero guy is                      1
  After resolution 
    0.35355339059327    0.00000000000000    0.00000000000000
    0.35355339059327    0.00000000000000    0.00000000000000
   -0.35355339059327    0.00000000000000    0.50000000000000
   -0.35355339059327    0.00000000000000   -0.50000000000000
  reducible representations match to within    2.06400461880698     

                 COLUMN   1       COLUMN   2       COLUMN   3
 ROW   1      0.00065430960    0.00000000000    0.00000000000
 ROW   2      0.00000000000    0.00065430960    0.00000000000
 ROW   3      0.00000000000    0.00000000000    0.00065430960
  Mass-weighted Hessian in resolved coordinates:

                 COLUMN   1       COLUMN   2       COLUMN   3
 ROW   1      0.00065430960    0.00000000000    0.00000000000
 ROW   2      0.00000000000    0.00065430960    0.00000000000
 ROW   3      0.00000000000    0.00000000000    0.00065430960
                     Normal Coordinate Analysis
  ----------------------------------------------------------------
    Irreducible         Harmonic       Infrared        Type 
   Representation       Frequency      Intensity 
  ----------------------------------------------------------------
                       (cm-1)         (km/mol)
  ----------------------------------------------------------------
      ----                 0.0000i        0.0000      TRANSLATION
      ----                 0.0000i        0.0000      TRANSLATION
      ----                 0.0000         0.0000       ROTATION  
      ----                 0.0000         0.0000      TRANSLATION
      ----                 0.0000         0.0000       ROTATION  
      ----                 0.0000         0.0000       ROTATION  
         E               100.8505         0.0000       VIBRATION 
         E               100.8505         0.0000       VIBRATION 
        T2               131.4910         0.2121       VIBRATION 
        T2               131.4910         0.2121       VIBRATION 
        T2               131.4910         0.2121       VIBRATION 
        A1               178.6840         0.0000       VIBRATION 
  ----------------------------------------------------------------
 
 
                                   Normal Coordinates 

                 E                         E                        T2
               100.85                    100.85                    131.49 
             VIBRATION                 VIBRATION                 VIBRATION 
 BI     0.000 0.2887  0.4082    0.5000  0.0000  0.0000    0.0000  0.5000 -0.0000
 BI     0.000-0.2887  0.4082   -0.5000  0.0000  0.0000    0.0000 -0.5000 -0.0000
 BI    -0.288 0.0000 -0.4082    0.0000 -0.5000  0.0000    0.5000  0.0000  0.0000
 BI     0.288 0.0000 -0.4082    0.0000  0.5000  0.0000   -0.5000 -0.0000  0.0000

                T2                        T2                        A1
               131.49                    131.49                    178.68 
             VIBRATION                 VIBRATION                 VIBRATION 
 BI     0.000 0.3536 -0.5000    0.3536  0.0000  0.0000    0.0000  0.4082 -0.2887
 BI    -0.000 0.3536  0.5000    0.3536  0.0000  0.0000    0.0000 -0.4082 -0.2887
 BI     0.000-0.3536  0.0000   -0.3536  0.0000  0.5000   -0.4082  0.0000  0.2887
 BI    -0.000-0.3536  0.0000   -0.3536  0.0000 -0.5000    0.4082 -0.0000  0.2887
 
                      Normal modes in internal coordinates 
---------------------------------------------------------------------------
              0.000         0.000         0.000         0.000         0.000
---------------------------------------------------------------------------
R          0.017490     -0.020444      0.009161      0.013838      0.000843
R          0.012416      0.004125     -0.009899     -0.028385      0.010246
TDA       -0.012375      0.006753      0.000305      0.006020     -0.004588
R         -0.014920      0.020601     -0.011249      0.015094      0.006666
TDA       -0.001063     -0.000065      0.000864     -0.011971     -0.003107
D120      -0.006960     -0.008435      0.011433      0.003091     -0.013283
R         -0.014986     -0.004282      0.011987     -0.000546     -0.017754
TDA       -0.001036      0.010231     -0.008751     -0.005500      0.006998
D120       0.013870     -0.002045     -0.005203     -0.018071      0.008002
---------------------------------------------------------------------------
              0.000       100.850       100.850       131.491       131.491
---------------------------------------------------------------------------
R          0.014012     -0.000000     -0.000000     -0.471811     -0.679492
R         -0.004050     -0.000000      0.000000     -0.471811      0.679492
TDA       -0.004122     -0.712697      0.000000     -0.195228     -0.000000
R          0.012268      0.000000      0.000000      0.471811      0.000000
TDA       -0.010874      0.356348     -0.648886     -0.000000     -0.140581
D120      -0.013348      0.218218      0.397360     -0.119552      0.086088
R         -0.022230      0.000000      0.000000      0.471811     -0.000000
TDA        0.003400      0.356348      0.648886     -0.000000     -0.140581
D120       0.000471     -0.436436      0.000000      0.239104     -0.172176
---------------------------------------------------------------------------
            131.491       178.684
---------------------------------------------------------------------------
R         -0.000000     -0.500000
R         -0.000000     -0.500000
TDA        0.000000      0.000000
R         -0.669639     -0.500000
TDA       -0.138543      0.000000
D120      -0.254519      0.000000
R          0.669639     -0.500000
TDA        0.138543     -0.000000
D120      -0.000000      0.000000
---------------------------------------------------------------------------
 
  ----------------------------------------------------------------
                    Dipole Moment Function
                   (Normal Coordinate Basis)
  ----------------------------------------------------------------
    Mode     Symmetry    d(Mu(x))/dQ   d(Mu(y))/dQ   d(Mu(z))/dQ
  ----------------------------------------------------------------
     Q7           E        0.000000     -0.000000      0.000000
     Q8           E       -0.000000      0.000000      0.000000
     Q9          T2        0.000000      0.000000      0.014751
     Q10         T2        0.000000     -0.014751      0.000000
     Q11         T2        0.014751     -0.000000      0.000000
     Q12         A1        0.000000     -0.000000     -0.000000
  ----------------------------------------------------------------
---------------------------------------------------------------------------
------------------------------------------------------------
        Parameter                (MHz)                 (CM-1)
------------------------------------------------------------
 
           R6                -.179985E-06           -.600366E-11
           R5                -.839931E-06           -.280171E-10
           SI                            0.100000E+81
 
  A-reduced centrifugal distortion parameters (Ir representation) 
 
           DJ                0.424894E-05           0.141729E-09
           DK                -.839931E-06           -.280171E-10
           DJK               0.719941E-06           0.240146E-10
           DELJ              0.460891E-05           0.153737E-09
           DELK              0.959921E-06           0.320195E-10
           DELJK             -.143988E-05           -.480293E-10
           delJ              -.239980E-06           -.800488E-11
           delK              0.719941E+74           0.240146E+70
 
  S-reduced centrifugal distortion parameters (Ir representation) 
 
           DJ                0.424894E-05           0.141729E-09
           DK                -.839931E-06           -.280171E-10
           DJK               0.719941E-06           0.240146E-10
           D1                0.239980E-06           0.800488E-11
           D2                -.179985E-06           -.600366E-11
------------------------------------------------------------
  ierr and ierr2                      1                     1
   Vibrational frequencies after rotational projection  of 
   Cartesian force constants: 
            1               0.0000i
            2               0.0000i
            3               0.0000i
            4               0.0000 
            5               0.0000 
            6               0.0000 
            7             100.8505 
            8             100.8505 
            9             131.4910 
           10             131.4910 
           11             131.4910 
           12             178.6840 
  Zero-point energy:    1.1077 kcal/mol =    4.6347 kJ/mol =     387.429 cm-1 
 
  Finite temperature thermodynamic corrections:
=======================================================
Temperature     Entropy       Enthalpy     Gibbs Energy
    (K)        (J/(mol K))    (kJ/mol)      (kJ/mol) 
=======================================================
    298.15      389.5441       20.6520      -95.4906
    100.00      304.6538        5.0792      -25.3862
    200.00      357.3351       12.7283      -58.7387
    300.00      390.0483       20.8028      -96.2117
    400.00      413.6110       28.9950     -136.4494
    500.00      431.9980       37.2356     -178.7634
    600.00      447.0664       45.5006     -222.7392
    700.00      459.8285       53.7797     -268.1002
    800.00      470.8953       62.0676     -314.6487
    900.00      480.6639       70.3614     -362.2362
   1000.00      489.4066       78.6593     -410.7473
   1100.00      497.3182       86.9602     -460.0898
   1200.00      504.5429       95.2634     -510.1881
   1300.00      511.1904      103.5683     -560.9792
   1400.00      517.3460      111.8746     -612.4098
   1500.00      523.0775      120.1820     -664.4343
   1600.00      528.4395      128.4902     -717.0130
   1700.00      533.4768      136.7992     -770.1114
   1800.00      538.2264      145.1088     -823.6988
   1900.00      542.7195      153.4189     -877.7481
   2000.00      546.9822      161.7294     -932.2350
=======================================================
  @CHECKOUT-I, Total execution time (CPU/WALL):        0.19/       0.52 seconds.
--executable xjoda finished with status     0 in        0.64 seconds (walltime).
  The final electronic energy is      -855.933034814355324 a.u. 
  This computation required                       193156.69 seconds (walltime).
