
 Primary working directories    : /tmp/601555.107.gen4.q
 Secondary working directories  : /tmp/601555.107.gen4.q
 Wavefunction directory         : /home/vulcan/mel64643/wfu/
 Main file repository           : /tmp/601555.107.gen4.q/

 ARCHNAME  : Linux/x86_64
 FC        : /opt/intel/compilers_and_libraries_2016.1.150/linux/bin/intel64/ifort
 FCVERSION : 16.0.1
 BLASLIB   : -mkl
 id        : ccgc

 Nodes     nprocs
 n065         1
 ga_uses_ma=false, calling ma_init with nominal heap.
 GA-space will be limited to   8.0 MW (determined by -G option)

 Using customized tuning parameters: mindgm=10; mindgv=16; mindgc=4; mindgr=1; noblas=0; mincuda=1000; minvec=7
 default implementation of scratch files=df  

 ***,Optimization of min3
 memory,1000,m
 gthresh,energy=1.0d-12,orbital=1.0d-10,oneint=1.0d-16,twoint=1.0d-16,optgrad=1.0d-6,compress=1.0d-13
 geomtyp=xyz
 
  bohr
  geometry = {
  6
  arbitrary comment
  C   -1.3747053613   -0.0228595412    0.0000003285
  O    1.3004919865    0.1188751000    0.0000002947
  H   -2.0769202889    1.9043015607   -0.0000795416
  H   -2.1078243271   -0.9765688245    1.6873531645
  H   -2.1078172302   -0.9767007376   -1.6872813341
  H    1.9430510609   -1.5771796773   -0.0000013220
 }
 
 basis=cc-pvdz
 {rhf;maxit,200}
 {ccsd(t);maxit,200}

 Variables initialized (661), CPU time= 0.00 sec
 Commands  initialized (458), CPU time= 0.00 sec, 486 directives.
 Default parameters read. Elapsed time= 0.05 sec

 Checking input...
 Passed
1


                                         ***  PROGRAM SYSTEM MOLPRO  ***
                         Copyright, University College Cardiff Consultants Limited, 2008

                                    Version 2010.1 linked May 16 2016 07:17:05


 **********************************************************************************************************************************
 LABEL *   Optimization of min3                                                          
 Linux-4.4.3/n065(x86_64) 64 bit mpp version                                             DATE: 06-Nov-21          TIME: 15:40:01  
 **********************************************************************************************************************************

 SHA1:             9e8077add272b0f3cad6f7df79ec5211205f459d
 **********************************************************************************************************************************

 THRESHOLDS:

 ZERO    =  1.00D-12  ONEINT  =  1.00D-16  TWOINT  =  1.00D-16  PREFAC  =  1.00D-14  LOCALI  =  1.00D-09  EORDER  =  1.00D-04
 ENERGY  =  1.00D-12  ETEST   =  0.00D+00  EDENS   =  0.00D+00  THRDEDEF=  1.00D-06  GRADIENT=  1.00D-02  STEP    =  1.00D-03
 ORBITAL =  1.00D-10  CIVEC   =  1.00D-05  COEFF   =  1.00D-04  PRINTCI =  5.00D-02  PUNCHCI =  9.90D+01  OPTGRAD =  1.00D-06
 OPTENERG=  1.00D-06  OPTSTEP =  3.00D-04  THRGRAD =  1.00D-10  COMPRESS=  1.00D-13  VARMIN  =  1.00D-07  VARMAX  =  1.00D-03
 THRDOUB =  0.00D+00  THRDIV  =  1.00D-05  THRRED  =  1.00D-07  THRPSP  =  1.00D+00  THRDC   =  1.00D-10  THRCS   =  1.00D-10
 THRNRM  =  1.00D-08  THREQ   =  0.00D+00  THRDE   =  1.00D+00  THRREF  =  1.00D-05  SPARFAC =  1.00D+00  THRDLP  =  1.00D-07
 THRDIA  =  1.00D-10  THRDLS  =  1.00D-07  THRGPS  =  0.00D+00  THRKEX  =  0.00D+00  THRDIS  =  2.00D-01  THRVAR  =  1.00D-10
 THRLOC  =  1.00D-06  THRGAP  =  1.00D-06  THRLOCT = -1.00D+00  THRGAPT = -1.00D+00  THRORB  =  1.00D-06  THRMLTP =  0.00D+00
 THRCPQCI=  1.00D-10  KEXTA   =  0.00D+00  THRCOARS=  0.00D+00  SYMTOL  =  1.00D-06  GRADTOL =  1.00D-06  THROVL  =  1.00D-08
 THRORTH =  1.00D-08  GRID    =  1.00D-06  GRIDMAX =  1.00D-03  DTMAX   =  0.00D+00

 SETTING GEOMTYP        =    XYZ
 ZUNIT=BOHR
 

 Variable memory set to 1000000000 words,  buffer space   230000 words

 SETTING BASIS          =    CC-PVDZ


 Recomputing integrals since basis changed


 Using spherical harmonics

 Library entry C      S cc-pVDZ              selected for orbital group  1
 Library entry C      P cc-pVDZ              selected for orbital group  1
 Library entry C      D cc-pVDZ              selected for orbital group  1
 Library entry O      S cc-pVDZ              selected for orbital group  2
 Library entry O      P cc-pVDZ              selected for orbital group  2
 Library entry O      D cc-pVDZ              selected for orbital group  2
 Library entry H      S cc-pVDZ              selected for orbital group  3
 Library entry H      P cc-pVDZ              selected for orbital group  3

1PROGRAM * SEWARD (Integral evaluation for generally contracted gaussian basis sets)     Author: Roland Lindh, 1990

 Geometry written to block  1 of record 700


 Point group  C1  



 ATOMIC COORDINATES

 NR  ATOM    CHARGE       X              Y              Z

   1  C       6.00   -1.374705361   -0.022859541    0.000000329
   2  O       8.00    1.300491986    0.118875100    0.000000295
   3  H       1.00   -2.076920289    1.904301561   -0.000079542
   4  H       1.00   -2.107824327   -0.976568825    1.687353164
   5  H       1.00   -2.107817230   -0.976700738   -1.687281334
   6  H       1.00    1.943051061   -1.577179677   -0.000001322

 Bond lengths in Bohr (Angstrom)

 1-2  2.678949338  1-3  2.051110851  1-4  2.072241397  1-5  2.072241648  2-6  1.813693461
     ( 1.417638934)     ( 1.085401116)     ( 1.096582919)     ( 1.096583052)     ( 0.959765244)

 Bond angles

  1-2-6  107.71669814   2-1-3  106.98787041   2-1-4  112.18723743   2-1-5  112.18723010

  3-1-4  108.13944445   3-1-5  108.13929562   4-1-5  109.02602663

 NUCLEAR CHARGE:                   18
 NUMBER OF PRIMITIVE AOS:          82
 NUMBER OF SYMMETRY AOS:           80
 NUMBER OF CONTRACTIONS:           48   (  48A   )
 NUMBER OF CORE ORBITALS:           2   (   2A   )
 NUMBER OF VALENCE ORBITALS:       12   (  12A   )


 NUCLEAR REPULSION ENERGY   40.35379820


 Eigenvalues of metric

         1 0.965E-02 0.176E-01 0.367E-01 0.376E-01 0.380E-01 0.474E-01 0.480E-01 0.515E-01


 Contracted 2-electron integrals neglected if value below      1.0D-16
 AO integral compression algorithm  1   Integral accuracy      1.0D-16

     6.291 MB (compressed) written to integral file ( 98.2%)

     Node minimum: 6.291 MB, node maximum: 6.291 MB


 NUMBER OF SORTED TWO-ELECTRON INTEGRALS:     692076.     BUFFER LENGTH:  32768
 NUMBER OF SEGMENTS:   1  SEGMENT LENGTH:     692076      RECORD LENGTH: 524288

 Memory used in sort:       1.25 MW

 SORT1 READ      832256. AND WROTE      682147. INTEGRALS IN      2 RECORDS. CPU TIME:     0.01 SEC, REAL TIME:     0.01 SEC
 SORT2 READ      682147. AND WROTE      692076. INTEGRALS IN     24 RECORDS. CPU TIME:     0.01 SEC, REAL TIME:     0.03 SEC

 FILE SIZES:   FILE 1:     8.0 MBYTE,  FILE 4:     8.4 MBYTE,   TOTAL:     16.4 MBYTE

 OPERATOR DM      FOR CENTER  0  COORDINATES:    0.000000    0.000000    0.000000


 **********************************************************************************************************************************
 DATASETS  * FILE   NREC   LENGTH (MB)   RECORD NAMES
              1      19        8.03       500      610      700      900      950      970     1000      129      960     1100   
                                          VAR    BASINP    GEOM    SYMINP    ZMAT    AOBASIS   BASIS     P2S    ABASIS      S 
                                         1400     1410     1200     1210     1080     1600     1650     1300     1700   
                                           T        V       H0       H01     AOSYM     SMH    MOLCAS    ERIS     OPER   

 PROGRAMS   *        TOTAL       INT
 CPU TIMES  *         0.22      0.17
 REAL TIME  *         0.40 SEC
 DISK USED  *        23.34 MB      
 GA USED    *         0.00 MB       (max)       0.00 MB       (current)
 **********************************************************************************************************************************

1PROGRAM * RHF-SCF (CLOSED SHELL)       Authors: W. Meyer, H.-J. Werner


 NUMBER OF ELECTRONS:       9+    9-    SPACE SYMMETRY=1    SPIN SYMMETRY: Singlet 
 CONVERGENCE THRESHOLDS:    1.00E-10 (Density)    1.00E-13 (Energy)
 MAX. NUMBER OF ITERATIONS:      200
 INTERPOLATION TYPE:            DIIS
 INTERPOLATION STEPS:              2 (START)      1 (STEP)
 LEVEL SHIFTS:                  0.00 (CLOSED)  0.00 (OPEN) 



 Orbital guess generated from atomic densities. Full valence occupancy:   14

 Molecular orbital dump at record        2100.2

 ITERATION    DDIFF          GRAD             ENERGY        2-EL.EN.            DIPOLE MOMENTS         DIIS
    1      0.000D+00      0.000D+00      -115.01434250    164.482999   -0.48578   -0.89935   -0.00000    0
    2      0.000D+00      0.110D-01      -115.04270832    162.255909   -0.31027   -0.53377   -0.00000    1
    3      0.205D-01      0.529D-02      -115.04871118    163.283309   -0.39332   -0.60815   -0.00000    2
    4      0.638D-02      0.112D-02      -115.04917400    163.126624   -0.38345   -0.59677   -0.00000    3
    5      0.204D-02      0.202D-03      -115.04919487    163.133085   -0.38631   -0.59238   -0.00000    4
    6      0.432D-03      0.353D-04      -115.04919566    163.133268   -0.38663   -0.59214   -0.00000    5
    7      0.928D-04      0.734D-05      -115.04919569    163.132077   -0.38677   -0.59197   -0.00000    6
    8      0.150D-04      0.237D-05      -115.04919569    163.132458   -0.38680   -0.59194   -0.00000    7
    9      0.505D-05      0.490D-06      -115.04919569    163.132418   -0.38682   -0.59194   -0.00000    6
   10      0.141D-05      0.882D-07      -115.04919569    163.132417   -0.38682   -0.59194   -0.00000    6
   11      0.236D-06      0.329D-07      -115.04919569    163.132422   -0.38682   -0.59194   -0.00000    6
   12      0.599D-07      0.138D-07      -115.04919569    163.132420   -0.38682   -0.59194   -0.00000    7
   13      0.256D-07      0.306D-08      -115.04919569    163.132421   -0.38682   -0.59194   -0.00000    7
   14      0.760D-08      0.643D-09      -115.04919569    163.132421   -0.38682   -0.59194   -0.00000    7
   15      0.163D-08      0.149D-09      -115.04919569    163.132421   -0.38682   -0.59194   -0.00000    7
   16      0.331D-09      0.447D-10      -115.04919569    163.132421   -0.38682   -0.59194   -0.00000    7
   17      0.854D-10      0.161D-10      -115.04919569    163.132421   -0.38682   -0.59194   -0.00000    7
   18      0.412D-10      0.268D-11      -115.04919569    163.132421   -0.38682   -0.59194   -0.00000    0

 Final occupancy:   9

 !RHF STATE 1.1 Energy               -115.049195692100
 Nuclear energy                        40.35379820
 One-electron energy                 -236.96920415
 Two-electron energy                   81.56621026
 Virial quotient                       -1.00088041
 !RHF STATE 1.1 Dipole moment          -0.38681874    -0.59194099    -0.00000283
 Dipole moment /Debye                  -0.98313078    -1.50446538    -0.00000719

 Orbital energies:

         1.1          2.1          3.1          4.1          5.1          6.1          7.1          8.1          9.1         10.1
    -20.549719   -11.274452    -1.350704    -0.921232    -0.682991    -0.614005    -0.586342    -0.496343    -0.442602     0.184615

        11.1
      0.224397


 **********************************************************************************************************************************
 DATASETS  * FILE   NREC   LENGTH (MB)   RECORD NAMES
              1      19        8.03       500      610      700      900      950      970     1000      129      960     1100   
                                          VAR    BASINP    GEOM    SYMINP    ZMAT    AOBASIS   BASIS     P2S    ABASIS      S 
                                         1400     1410     1200     1210     1080     1600     1650     1300     1700   
                                           T        V       H0       H01     AOSYM     SMH    MOLCAS    ERIS     OPER   

              2       3        0.39       700     1000     2100   
                                         GEOM     BASIS     RHF  

 PROGRAMS   *        TOTAL       RHF       INT
 CPU TIMES  *         0.32      0.09      0.17
 REAL TIME  *         0.52 SEC
 DISK USED  *        23.34 MB      
 GA USED    *         0.00 MB       (max)       0.00 MB       (current)
 **********************************************************************************************************************************


1PROGRAM * CCSD (Closed-shell coupled cluster)     Authors: C. Hampel, H.-J. Werner, 1991, M. Deegan, P.J. Knowles, 1992


 Convergence thresholds:  THRVAR = 1.00D-08  THRDEN = 1.00D-12

 CCSD(T)     terms to be evaluated (factor= 1.000)


 Number of core orbitals:           2 (   2 )
 Number of closed-shell orbitals:   7 (   7 )
 Number of external orbitals:      39 (  39 )

 Molecular orbitals read from record     2100.2  Type=RHF/CANONICAL (state 1.1)

 Number of N-1 electron functions:               7
 Number of N-2 electron functions:              28
 Number of singly external CSFs:               273
 Number of doubly external CSFs:             37401
 Total number of CSFs:                       37675

 Length of J-op  integral file:               0.00 MB
 Length of K-op  integral file:               0.19 MB
 Length of 3-ext integral record:             0.00 MB

 Memory could be reduced to 0.96 Mwords without degradation in triples

 Integral transformation finished. Total CPU:   0.01 sec, npass=  1  Memory used:   0.66 MW

 Reference energy:                   -115.04919569

 MP2 singlet pair energy:              -0.21856042
 MP2 triplet pair energy:              -0.11980780
 MP2 correlation energy:               -0.33836822
 MP2 total energy:                   -115.38756391

 SCS-MP2 correlation energy:           -0.33681958   (PS=  1.200000  PT=  0.333333)
 SCS-MP2 total energy:               -115.38601527

 ITER.      SQ.NORM     CORR.ENERGY   TOTAL ENERGY   ENERGY CHANGE        DEN1      VAR(S)    VAR(P)  DIIS     TIME
   1      1.10723594    -0.36117551  -115.41037120    -0.02280729    -0.01414147  0.91D-03  0.17D-02  1  1     0.05
   2      1.11574704    -0.36311900  -115.41231469    -0.00194349    -0.00924012  0.20D-04  0.16D-03  2  2     0.09
   3      1.11761949    -0.36324568  -115.41244137    -0.00012668    -0.00119925  0.94D-05  0.86D-05  3  3     0.13
   4      1.11813194    -0.36324439  -115.41244008     0.00000129    -0.00025384  0.33D-06  0.67D-06  4  4     0.17
   5      1.11822950    -0.36324480  -115.41244049    -0.00000041    -0.00003585  0.99D-07  0.49D-07  5  5     0.21
   6      1.11824849    -0.36324346  -115.41243915     0.00000134    -0.00000436  0.16D-07  0.41D-08  6  6     0.25
   7      1.11825324    -0.36324304  -115.41243873     0.00000042    -0.00000035  0.20D-08  0.72D-09  6  1     0.28
   8      1.11825451    -0.36324314  -115.41243883    -0.00000010     0.00000075  0.26D-09  0.72D-10  6  3     0.32
   9      1.11825557    -0.36324302  -115.41243871     0.00000012    -0.00000038  0.13D-10  0.10D-10  6  2     0.36
  10      1.11825562    -0.36324302  -115.41243871     0.00000000     0.00000000  0.13D-11  0.12D-11  6  4     0.40
  11      1.11825558    -0.36324302  -115.41243871     0.00000000     0.00000003  0.33D-12  0.84D-13  6  5     0.44
  12      1.11825553    -0.36324302  -115.41243871    -0.00000000     0.00000003  0.33D-13  0.13D-13  6  6     0.48
  13      1.11825552    -0.36324302  -115.41243871    -0.00000000     0.00000001  0.38D-14  0.15D-14  6  3     0.52
  14      1.11825551    -0.36324302  -115.41243871    -0.00000000     0.00000000  0.29D-15  0.14D-15  6  1     0.55
  15      1.11825551    -0.36324302  -115.41243871     0.00000000    -0.00000000  0.36D-16  0.31D-16  6  2     0.59
  16      1.11825551    -0.36324302  -115.41243871     0.00000000    -0.00000000  0.31D-17  0.16D-17  6  5     0.63
  17      1.11825551    -0.36324302  -115.41243871    -0.00000000     0.00000000  0.13D-18  0.12D-18  6  4     0.67
  18      1.11825551    -0.36324302  -115.41243871     0.00000000    -0.00000000  0.27D-19  0.12D-19  6  3     0.71
  19      1.11825551    -0.36324302  -115.41243871     0.00000000    -0.00000000  0.26D-20  0.10D-20  6  6     0.75
  20      1.11825551    -0.36324302  -115.41243871     0.00000000    -0.00000000  0.42D-21  0.17D-21  6  1     0.79

 Norm of t1 vector:      0.04155084      S-energy:     0.00000000      T1 diagnostic:  0.00785237
                                                                       D1 diagnostic:  0.01737809


 Total CPU time for triples:      0.21 sec


 RESULTS
 =======

  Reference energy                   -115.049195692100
  CCSD singlet pair energy             -0.254492072778
  CCSD triplet pair energy             -0.108750949139
  CCSD correlation energy              -0.363243021918

  Triples (T) contribution             -0.007722560696
  Total correlation energy             -0.370965582614

  CCSD total energy                  -115.412438714018
  CCSD[T] energy                     -115.420449756590
  CCSD-T energy                      -115.420012060480
 !CCSD(T) total energy               -115.420161274714

 Timing summary (sec):

 STEP                 CPU(USER)    SYS     CPU(TOT)    WALL
 Transformation          0.02      0.01      0.03      0.02
 CCSD iterations         0.77      0.04      0.81      0.85
 Triples                 0.21      0.00      0.21      0.21

 Program statistics:

 Available memory in ccsd:               999999704
 Min. memory needed in ccsd:                136801
 Max. memory used in ccsd:                  163198
 Max. memory used in cckext:                182024 (20 integral passes)



 **********************************************************************************************************************************
 DATASETS  * FILE   NREC   LENGTH (MB)   RECORD NAMES
              1      20       10.56       500      610      700      900      950      970     1000      129      960     1100   
                                          VAR    BASINP    GEOM    SYMINP    ZMAT    AOBASIS   BASIS     P2S    ABASIS      S 
                                         1400     1410     1200     1210     1080     1600     1650     1300     1700     1380   
                                           T        V       H0       H01     AOSYM     SMH    MOLCAS    ERIS     OPER     JKOP   

              2       3        0.39       700     1000     2100   
                                         GEOM     BASIS     RHF  

 PROGRAMS   *        TOTAL   CCSD(T)       RHF       INT
 CPU TIMES  *         1.33      1.01      0.09      0.17
 REAL TIME  *         1.62 SEC
 DISK USED  *        24.76 MB      
 GA USED    *         0.00 MB       (max)       0.00 MB       (current)
 **********************************************************************************************************************************

        CCSD(T)         RHF-SCF 
   -115.42016127   -115.04919569
 **********************************************************************************************************************************
 Variable memory released
