
 Primary working directories    : /tmp/601555.128.gen4.q
 Secondary working directories  : /tmp/601555.128.gen4.q
 Wavefunction directory         : /home/vulcan/mel64643/wfu/
 Main file repository           : /tmp/601555.128.gen4.q/

 ARCHNAME  : Linux/x86_64
 FC        : /opt/intel/compilers_and_libraries_2016.1.150/linux/bin/intel64/ifort
 FCVERSION : 16.0.1
 BLASLIB   : -mkl
 id        : ccgc

 Nodes     nprocs
 n058         1
 ga_uses_ma=false, calling ma_init with nominal heap.
 GA-space will be limited to   8.0 MW (determined by -G option)

 Using customized tuning parameters: mindgm=10; mindgv=16; mindgc=4; mindgr=1; noblas=0; mincuda=1000; minvec=7
 default implementation of scratch files=df  

 ***,Optimization of min3
 memory,1000,m
 gthresh,energy=1.0d-12,orbital=1.0d-10,oneint=1.0d-16,twoint=1.0d-16,optgrad=1.0d-6,compress=1.0d-13
 geomtyp=xyz
 
  bohr
  geometry = {
  6
  arbitrary comment
  C   -1.3748525751   -0.0257921639    0.0000003787
  O    1.3049789101    0.1203305944    0.0000003065
  H   -2.0783178940    1.9156475409   -0.0000802451
  H   -2.1084094464   -0.9813366981    1.6780911733
  H   -2.1084024181   -0.9814674541   -1.6780187183
  H    1.9412792636   -1.5775139393   -0.0000013052
 }
 
 basis=cc-pvdz
 {rhf;maxit,200}
 {ccsd(t);maxit,200}

 Variables initialized (661), CPU time= 0.00 sec
 Commands  initialized (458), CPU time= 0.00 sec, 486 directives.
 Default parameters read. Elapsed time= 0.05 sec

 Checking input...
 Passed
1


                                         ***  PROGRAM SYSTEM MOLPRO  ***
                         Copyright, University College Cardiff Consultants Limited, 2008

                                    Version 2010.1 linked May 16 2016 07:17:05


 **********************************************************************************************************************************
 LABEL *   Optimization of min3                                                          
 Linux-4.4.3/n058(x86_64) 64 bit mpp version                                             DATE: 06-Nov-21          TIME: 15:40:16  
 **********************************************************************************************************************************

 SHA1:             9e8077add272b0f3cad6f7df79ec5211205f459d
 **********************************************************************************************************************************

 THRESHOLDS:

 ZERO    =  1.00D-12  ONEINT  =  1.00D-16  TWOINT  =  1.00D-16  PREFAC  =  1.00D-14  LOCALI  =  1.00D-09  EORDER  =  1.00D-04
 ENERGY  =  1.00D-12  ETEST   =  0.00D+00  EDENS   =  0.00D+00  THRDEDEF=  1.00D-06  GRADIENT=  1.00D-02  STEP    =  1.00D-03
 ORBITAL =  1.00D-10  CIVEC   =  1.00D-05  COEFF   =  1.00D-04  PRINTCI =  5.00D-02  PUNCHCI =  9.90D+01  OPTGRAD =  1.00D-06
 OPTENERG=  1.00D-06  OPTSTEP =  3.00D-04  THRGRAD =  1.00D-10  COMPRESS=  1.00D-13  VARMIN  =  1.00D-07  VARMAX  =  1.00D-03
 THRDOUB =  0.00D+00  THRDIV  =  1.00D-05  THRRED  =  1.00D-07  THRPSP  =  1.00D+00  THRDC   =  1.00D-10  THRCS   =  1.00D-10
 THRNRM  =  1.00D-08  THREQ   =  0.00D+00  THRDE   =  1.00D+00  THRREF  =  1.00D-05  SPARFAC =  1.00D+00  THRDLP  =  1.00D-07
 THRDIA  =  1.00D-10  THRDLS  =  1.00D-07  THRGPS  =  0.00D+00  THRKEX  =  0.00D+00  THRDIS  =  2.00D-01  THRVAR  =  1.00D-10
 THRLOC  =  1.00D-06  THRGAP  =  1.00D-06  THRLOCT = -1.00D+00  THRGAPT = -1.00D+00  THRORB  =  1.00D-06  THRMLTP =  0.00D+00
 THRCPQCI=  1.00D-10  KEXTA   =  0.00D+00  THRCOARS=  0.00D+00  SYMTOL  =  1.00D-06  GRADTOL =  1.00D-06  THROVL  =  1.00D-08
 THRORTH =  1.00D-08  GRID    =  1.00D-06  GRIDMAX =  1.00D-03  DTMAX   =  0.00D+00

 SETTING GEOMTYP        =    XYZ
 ZUNIT=BOHR
 

 Variable memory set to 1000000000 words,  buffer space   230000 words

 SETTING BASIS          =    CC-PVDZ


 Recomputing integrals since basis changed


 Using spherical harmonics

 Library entry C      S cc-pVDZ              selected for orbital group  1
 Library entry C      P cc-pVDZ              selected for orbital group  1
 Library entry C      D cc-pVDZ              selected for orbital group  1
 Library entry O      S cc-pVDZ              selected for orbital group  2
 Library entry O      P cc-pVDZ              selected for orbital group  2
 Library entry O      D cc-pVDZ              selected for orbital group  2
 Library entry H      S cc-pVDZ              selected for orbital group  3
 Library entry H      P cc-pVDZ              selected for orbital group  3

1PROGRAM * SEWARD (Integral evaluation for generally contracted gaussian basis sets)     Author: Roland Lindh, 1990

 Geometry written to block  1 of record 700


 Point group  C1  



 ATOMIC COORDINATES

 NR  ATOM    CHARGE       X              Y              Z

   1  C       6.00   -1.374852575   -0.025792164    0.000000379
   2  O       8.00    1.304978910    0.120330594    0.000000306
   3  H       1.00   -2.078317894    1.915647541   -0.000080245
   4  H       1.00   -2.108409446   -0.981336698    1.678091173
   5  H       1.00   -2.108402418   -0.981467454   -1.678018718
   6  H       1.00    1.941279264   -1.577513939   -0.000001305

 Bond lengths in Bohr (Angstrom)

 1-2  2.683812335  1-3  2.064958011  1-4  2.065710472  1-5  2.065710222  2-6  1.813161383
     ( 1.420212321)     ( 1.092728717)     ( 1.093126902)     ( 1.093126770)     ( 0.959483680)

 Bond angles

  1-2-6  107.42339865   2-1-3  106.79651603   2-1-4  112.31942242   2-1-5  112.31942560

  3-1-4  108.29812775   3-1-5  108.29796334   4-1-5  108.64998056

 NUCLEAR CHARGE:                   18
 NUMBER OF PRIMITIVE AOS:          82
 NUMBER OF SYMMETRY AOS:           80
 NUMBER OF CONTRACTIONS:           48   (  48A   )
 NUMBER OF CORE ORBITALS:           2   (   2A   )
 NUMBER OF VALENCE ORBITALS:       12   (  12A   )


 NUCLEAR REPULSION ENERGY   40.31514220


 Eigenvalues of metric

         1 0.966E-02 0.176E-01 0.370E-01 0.372E-01 0.383E-01 0.473E-01 0.477E-01 0.520E-01


 Contracted 2-electron integrals neglected if value below      1.0D-16
 AO integral compression algorithm  1   Integral accuracy      1.0D-16

     6.291 MB (compressed) written to integral file ( 98.4%)

     Node minimum: 6.291 MB, node maximum: 6.291 MB


 NUMBER OF SORTED TWO-ELECTRON INTEGRALS:     692076.     BUFFER LENGTH:  32768
 NUMBER OF SEGMENTS:   1  SEGMENT LENGTH:     692076      RECORD LENGTH: 524288

 Memory used in sort:       1.25 MW

 SORT1 READ      832256. AND WROTE      682148. INTEGRALS IN      2 RECORDS. CPU TIME:     0.01 SEC, REAL TIME:     0.01 SEC
 SORT2 READ      682148. AND WROTE      692076. INTEGRALS IN     24 RECORDS. CPU TIME:     0.02 SEC, REAL TIME:     0.02 SEC

 FILE SIZES:   FILE 1:     8.0 MBYTE,  FILE 4:     8.4 MBYTE,   TOTAL:     16.4 MBYTE

 OPERATOR DM      FOR CENTER  0  COORDINATES:    0.000000    0.000000    0.000000


 **********************************************************************************************************************************
 DATASETS  * FILE   NREC   LENGTH (MB)   RECORD NAMES
              1      19        8.03       500      610      700      900      950      970     1000      129      960     1100   
                                          VAR    BASINP    GEOM    SYMINP    ZMAT    AOBASIS   BASIS     P2S    ABASIS      S 
                                         1400     1410     1200     1210     1080     1600     1650     1300     1700   
                                           T        V       H0       H01     AOSYM     SMH    MOLCAS    ERIS     OPER   

 PROGRAMS   *        TOTAL       INT
 CPU TIMES  *         0.23      0.18
 REAL TIME  *         0.41 SEC
 DISK USED  *        23.34 MB      
 GA USED    *         0.00 MB       (max)       0.00 MB       (current)
 **********************************************************************************************************************************

1PROGRAM * RHF-SCF (CLOSED SHELL)       Authors: W. Meyer, H.-J. Werner


 NUMBER OF ELECTRONS:       9+    9-    SPACE SYMMETRY=1    SPIN SYMMETRY: Singlet 
 CONVERGENCE THRESHOLDS:    1.00E-10 (Density)    1.00E-13 (Energy)
 MAX. NUMBER OF ITERATIONS:      200
 INTERPOLATION TYPE:            DIIS
 INTERPOLATION STEPS:              2 (START)      1 (STEP)
 LEVEL SHIFTS:                  0.00 (CLOSED)  0.00 (OPEN) 



 Orbital guess generated from atomic densities. Full valence occupancy:   14

 Molecular orbital dump at record        2100.2

 ITERATION    DDIFF          GRAD             ENERGY        2-EL.EN.            DIPOLE MOMENTS         DIIS
    1      0.000D+00      0.000D+00      -115.01425206    164.402288   -0.49313   -0.90026   -0.00000    0
    2      0.000D+00      0.110D-01      -115.04260187    162.184082   -0.31509   -0.53689   -0.00000    1
    3      0.205D-01      0.530D-02      -115.04862836    163.208427   -0.39867   -0.61243   -0.00000    2
    4      0.639D-02      0.112D-02      -115.04909194    163.052280   -0.38860   -0.60157   -0.00000    3
    5      0.204D-02      0.202D-03      -115.04911295    163.058696   -0.39144   -0.59739   -0.00000    4
    6      0.433D-03      0.355D-04      -115.04911374    163.058838   -0.39175   -0.59720   -0.00000    5
    7      0.930D-04      0.737D-05      -115.04911378    163.057652   -0.39189   -0.59704   -0.00000    6
    8      0.151D-04      0.238D-05      -115.04911378    163.058035   -0.39192   -0.59702   -0.00000    7
    9      0.506D-05      0.492D-06      -115.04911378    163.057993   -0.39194   -0.59702   -0.00000    6
   10      0.142D-05      0.879D-07      -115.04911378    163.057992   -0.39194   -0.59702   -0.00000    6
   11      0.236D-06      0.329D-07      -115.04911378    163.057998   -0.39194   -0.59702   -0.00000    6
   12      0.596D-07      0.137D-07      -115.04911378    163.057996   -0.39194   -0.59702   -0.00000    7
   13      0.255D-07      0.305D-08      -115.04911378    163.057996   -0.39194   -0.59702   -0.00000    7
   14      0.760D-08      0.649D-09      -115.04911378    163.057996   -0.39194   -0.59702   -0.00000    7
   15      0.166D-08      0.150D-09      -115.04911378    163.057996   -0.39194   -0.59702   -0.00000    7
   16      0.334D-09      0.449D-10      -115.04911378    163.057996   -0.39194   -0.59702   -0.00000    7
   17      0.867D-10      0.148D-10      -115.04911378    163.057996   -0.39194   -0.59702   -0.00000    0

 Final occupancy:   9

 !RHF STATE 1.1 Energy               -115.049113778434
 Nuclear energy                        40.31514220
 One-electron energy                 -236.89325405
 Two-electron energy                   81.52899808
 Virial quotient                       -1.00092235
 !RHF STATE 1.1 Dipole moment          -0.39194020    -0.59701670    -0.00000276
 Dipole moment /Debye                  -0.99614737    -1.51736571    -0.00000701

 Orbital energies:

         1.1          2.1          3.1          4.1          5.1          6.1          7.1          8.1          9.1         10.1
    -20.549943   -11.274706    -1.350110    -0.921145    -0.683189    -0.614003    -0.584424    -0.496952    -0.443157     0.184550

        11.1
      0.224389


 **********************************************************************************************************************************
 DATASETS  * FILE   NREC   LENGTH (MB)   RECORD NAMES
              1      19        8.03       500      610      700      900      950      970     1000      129      960     1100   
                                          VAR    BASINP    GEOM    SYMINP    ZMAT    AOBASIS   BASIS     P2S    ABASIS      S 
                                         1400     1410     1200     1210     1080     1600     1650     1300     1700   
                                           T        V       H0       H01     AOSYM     SMH    MOLCAS    ERIS     OPER   

              2       3        0.39       700     1000     2100   
                                         GEOM     BASIS     RHF  

 PROGRAMS   *        TOTAL       RHF       INT
 CPU TIMES  *         0.31      0.08      0.18
 REAL TIME  *         0.52 SEC
 DISK USED  *        23.34 MB      
 GA USED    *         0.00 MB       (max)       0.00 MB       (current)
 **********************************************************************************************************************************


1PROGRAM * CCSD (Closed-shell coupled cluster)     Authors: C. Hampel, H.-J. Werner, 1991, M. Deegan, P.J. Knowles, 1992


 Convergence thresholds:  THRVAR = 1.00D-08  THRDEN = 1.00D-12

 CCSD(T)     terms to be evaluated (factor= 1.000)


 Number of core orbitals:           2 (   2 )
 Number of closed-shell orbitals:   7 (   7 )
 Number of external orbitals:      39 (  39 )

 Molecular orbitals read from record     2100.2  Type=RHF/CANONICAL (state 1.1)

 Number of N-1 electron functions:               7
 Number of N-2 electron functions:              28
 Number of singly external CSFs:               273
 Number of doubly external CSFs:             37401
 Total number of CSFs:                       37675

 Length of J-op  integral file:               0.00 MB
 Length of K-op  integral file:               0.19 MB
 Length of 3-ext integral record:             0.00 MB

 Memory could be reduced to 0.96 Mwords without degradation in triples

 Integral transformation finished. Total CPU:   0.02 sec, npass=  1  Memory used:   0.66 MW

 Reference energy:                   -115.04911378

 MP2 singlet pair energy:              -0.21864373
 MP2 triplet pair energy:              -0.11983597
 MP2 correlation energy:               -0.33847969
 MP2 total energy:                   -115.38759347

 SCS-MP2 correlation energy:           -0.33693707   (PS=  1.200000  PT=  0.333333)
 SCS-MP2 total energy:               -115.38605085

 ITER.      SQ.NORM     CORR.ENERGY   TOTAL ENERGY   ENERGY CHANGE        DEN1      VAR(S)    VAR(P)  DIIS     TIME
   1      1.10733183    -0.36128150  -115.41039528    -0.02280180    -0.01412211  0.91D-03  0.17D-02  1  1     0.05
   2      1.11585846    -0.36322709  -115.41234087    -0.00194559    -0.00925052  0.20D-04  0.16D-03  2  2     0.09
   3      1.11774024    -0.36335449  -115.41246827    -0.00012740    -0.00120430  0.95D-05  0.86D-05  3  3     0.13
   4      1.11825540    -0.36335319  -115.41246697     0.00000130    -0.00025488  0.33D-06  0.67D-06  4  4     0.17
   5      1.11835350    -0.36335360  -115.41246738    -0.00000042    -0.00003603  0.99D-07  0.49D-07  5  5     0.21
   6      1.11837253    -0.36335225  -115.41246603     0.00000135    -0.00000436  0.16D-07  0.41D-08  6  6     0.24
   7      1.11837728    -0.36335183  -115.41246561     0.00000042    -0.00000035  0.20D-08  0.72D-09  6  1     0.28
   8      1.11837855    -0.36335193  -115.41246571    -0.00000010     0.00000075  0.26D-09  0.72D-10  6  3     0.32
   9      1.11837961    -0.36335181  -115.41246559     0.00000012    -0.00000038  0.13D-10  0.10D-10  6  2     0.36
  10      1.11837953    -0.36335181  -115.41246559    -0.00000000     0.00000007  0.11D-11  0.88D-12  6  5     0.39
  11      1.11837956    -0.36335181  -115.41246559     0.00000000    -0.00000000  0.19D-12  0.50D-13  6  4     0.43
  12      1.11837955    -0.36335181  -115.41246559    -0.00000000     0.00000001  0.19D-13  0.10D-13  6  1     0.47
  13      1.11837955    -0.36335181  -115.41246559    -0.00000000    -0.00000000  0.23D-14  0.94D-15  6  6     0.51
  14      1.11837955    -0.36335181  -115.41246559     0.00000000    -0.00000000  0.22D-15  0.12D-15  6  3     0.55
  15      1.11837955    -0.36335181  -115.41246559    -0.00000000    -0.00000000  0.25D-16  0.16D-16  6  2     0.58
  16      1.11837955    -0.36335181  -115.41246559    -0.00000000    -0.00000000  0.55D-17  0.16D-17  6  5     0.62
  17      1.11837955    -0.36335181  -115.41246559    -0.00000000    -0.00000000  0.53D-18  0.25D-18  6  4     0.66
  18      1.11837955    -0.36335181  -115.41246559     0.00000000    -0.00000000  0.82D-19  0.42D-19  6  1     0.70
  19      1.11837955    -0.36335181  -115.41246559    -0.00000000    -0.00000000  0.93D-20  0.42D-20  6  6     0.74
  20      1.11837955    -0.36335181  -115.41246559     0.00000000     0.00000000  0.13D-20  0.55D-21  6  3     0.77

 Norm of t1 vector:      0.04164295      S-energy:    -0.00000000      T1 diagnostic:  0.00786978
                                                                       D1 diagnostic:  0.01750078


 Total CPU time for triples:      0.21 sec


 RESULTS
 =======

  Reference energy                   -115.049113778434
  CCSD singlet pair energy             -0.254599407595
  CCSD triplet pair energy             -0.108752404843
  CCSD correlation energy              -0.363351812439

  Triples (T) contribution             -0.007736690057
  Total correlation energy             -0.371088502496

  CCSD total energy                  -115.412465590872
  CCSD[T] energy                     -115.420492090047
  CCSD-T energy                      -115.420052401227
 !CCSD(T) total energy               -115.420202280929

 Timing summary (sec):

 STEP                 CPU(USER)    SYS     CPU(TOT)    WALL
 Transformation          0.02      0.01      0.03      0.03
 CCSD iterations         0.75      0.05      0.80      0.83
 Triples                 0.21      0.00      0.21      0.22

 Program statistics:

 Available memory in ccsd:               999999704
 Min. memory needed in ccsd:                136801
 Max. memory used in ccsd:                  163198
 Max. memory used in cckext:                182024 (20 integral passes)



 **********************************************************************************************************************************
 DATASETS  * FILE   NREC   LENGTH (MB)   RECORD NAMES
              1      20       10.56       500      610      700      900      950      970     1000      129      960     1100   
                                          VAR    BASINP    GEOM    SYMINP    ZMAT    AOBASIS   BASIS     P2S    ABASIS      S 
                                         1400     1410     1200     1210     1080     1600     1650     1300     1700     1380   
                                           T        V       H0       H01     AOSYM     SMH    MOLCAS    ERIS     OPER     JKOP   

              2       3        0.39       700     1000     2100   
                                         GEOM     BASIS     RHF  

 PROGRAMS   *        TOTAL   CCSD(T)       RHF       INT
 CPU TIMES  *         1.31      0.99      0.08      0.18
 REAL TIME  *         1.63 SEC
 DISK USED  *        24.77 MB      
 GA USED    *         0.00 MB       (max)       0.00 MB       (current)
 **********************************************************************************************************************************

        CCSD(T)         RHF-SCF 
   -115.42020228   -115.04911378
 **********************************************************************************************************************************
 Variable memory released
