
 Primary working directories    : /tmp/1225781.2.gen4.q
 Secondary working directories  : /tmp/1225781.2.gen4.q
 Wavefunction directory         : /home/vulcan/nlk36701/wfu/
 Main file repository           : /tmp/1225781.2.gen4.q/

 ARCHNAME  : Linux/x86_64
 FC        : /opt/intel/compilers_and_libraries_2016.1.150/linux/bin/intel64/ifort
 FCVERSION : 16.0.1
 BLASLIB   : -mkl
 id        : ccgc

 Nodes     nprocs
 n061         1
 ga_uses_ma=false, calling ma_init with nominal heap.
 GA-space will be limited to   8.0 MW (determined by -G option)

 Using customized tuning parameters: mindgm=10; mindgv=16; mindgc=4; mindgr=1; noblas=0; mincuda=1000; minvec=7
 default implementation of scratch files=df  

 ***,Optimization of min3
 memory,1000,m
 gthresh,energy=1.0d-12,orbital=1.0d-10,oneint=1.0d-16,twoint=1.0d-16,optgrad=1.0d-6,compress=1.0d-13
 geomtyp=xyz
 
  bohr
  geometry = {
  N   -0.0000000000   -0.0000000000    0.1301051034
  H    0.8816604301   -1.5270806608   -0.6165361211
  H    0.8816604301    1.5270806608   -0.6165361211
  H   -1.7633208702    0.0000000000   -0.6165361211
 }
 
 basis=cc-pvdz
 {rhf;maxit,200}
 {ccsd(t);maxit,200}

 Variables initialized (661), CPU time= 0.01 sec
 Commands  initialized (458), CPU time= 0.00 sec, 486 directives.
 Default parameters read. Elapsed time= 0.04 sec

 Checking input...
 Passed
1


                                         ***  PROGRAM SYSTEM MOLPRO  ***
                         Copyright, University College Cardiff Consultants Limited, 2008

                                    Version 2010.1 linked May 16 2016 07:17:05


 **********************************************************************************************************************************
 LABEL *   Optimization of min3                                                          
 Linux-4.4.3/n061(x86_64) 64 bit mpp version                                             DATE: 26-Mar-25          TIME: 14:44:22  
 **********************************************************************************************************************************

 SHA1:             9e8077add272b0f3cad6f7df79ec5211205f459d
 **********************************************************************************************************************************

 THRESHOLDS:

 ZERO    =  1.00D-12  ONEINT  =  1.00D-16  TWOINT  =  1.00D-16  PREFAC  =  1.00D-14  LOCALI  =  1.00D-09  EORDER  =  1.00D-04
 ENERGY  =  1.00D-12  ETEST   =  0.00D+00  EDENS   =  0.00D+00  THRDEDEF=  1.00D-06  GRADIENT=  1.00D-02  STEP    =  1.00D-03
 ORBITAL =  1.00D-10  CIVEC   =  1.00D-05  COEFF   =  1.00D-04  PRINTCI =  5.00D-02  PUNCHCI =  9.90D+01  OPTGRAD =  1.00D-06
 OPTENERG=  1.00D-06  OPTSTEP =  3.00D-04  THRGRAD =  1.00D-10  COMPRESS=  1.00D-13  VARMIN  =  1.00D-07  VARMAX  =  1.00D-03
 THRDOUB =  0.00D+00  THRDIV  =  1.00D-05  THRRED  =  1.00D-07  THRPSP  =  1.00D+00  THRDC   =  1.00D-10  THRCS   =  1.00D-10
 THRNRM  =  1.00D-08  THREQ   =  0.00D+00  THRDE   =  1.00D+00  THRREF  =  1.00D-05  SPARFAC =  1.00D+00  THRDLP  =  1.00D-07
 THRDIA  =  1.00D-10  THRDLS  =  1.00D-07  THRGPS  =  0.00D+00  THRKEX  =  0.00D+00  THRDIS  =  2.00D-01  THRVAR  =  1.00D-10
 THRLOC  =  1.00D-06  THRGAP  =  1.00D-06  THRLOCT = -1.00D+00  THRGAPT = -1.00D+00  THRORB  =  1.00D-06  THRMLTP =  0.00D+00
 THRCPQCI=  1.00D-10  KEXTA   =  0.00D+00  THRCOARS=  0.00D+00  SYMTOL  =  1.00D-06  GRADTOL =  1.00D-06  THROVL  =  1.00D-08
 THRORTH =  1.00D-08  GRID    =  1.00D-06  GRIDMAX =  1.00D-03  DTMAX   =  0.00D+00

 SETTING GEOMTYP        =    XYZ
 ZUNIT=BOHR
 

 Variable memory set to 1000000000 words,  buffer space   230000 words

 SETTING BASIS          =    CC-PVDZ


 Recomputing integrals since basis changed


 Using spherical harmonics

 Library entry N      S cc-pVDZ              selected for orbital group  1
 Library entry N      P cc-pVDZ              selected for orbital group  1
 Library entry N      D cc-pVDZ              selected for orbital group  1
 Library entry H      S cc-pVDZ              selected for orbital group  2
 Library entry H      P cc-pVDZ              selected for orbital group  2

1PROGRAM * SEWARD (Integral evaluation for generally contracted gaussian basis sets)     Author: Roland Lindh, 1990

 Geometry written to block  1 of record 700


 Point group  Cs  



 ATOMIC COORDINATES

 NR  ATOM    CHARGE       X              Y              Z

   1  N       7.00    0.000000000    0.000000000    0.130105103
   2  H       1.00    0.881660430   -1.527080661   -0.616536121
   3  H       1.00    0.881660430    1.527080661   -0.616536121
   4  H       1.00   -1.763320870    0.000000000   -0.616536121

 Bond lengths in Bohr (Angstrom)

 1-2  1.914882131  1-3  1.914882131  1-4  1.914882140
     ( 1.013311982)     ( 1.013311982)     ( 1.013311986)

 Bond angles

  2-1-3  105.78030437   2-1-4  105.78030440   3-1-4  105.78030440

 NUCLEAR CHARGE:                   10
 NUMBER OF PRIMITIVE AOS:          48
 NUMBER OF SYMMETRY AOS:           47
 NUMBER OF CONTRACTIONS:           29   (  19A'  +  10A"  )
 NUMBER OF CORE ORBITALS:           1   (   1A'  +   0A"  )
 NUMBER OF VALENCE ORBITALS:        7   (   5A'  +   2A"  )


 NUCLEAR REPULSION ENERGY   11.94899881


 Eigenvalues of metric

         1 0.159E-01 0.408E-01 0.451E-01 0.773E-01 0.149E+00 0.151E+00 0.185E+00 0.410E+00
         2 0.408E-01 0.773E-01 0.149E+00 0.410E+00 0.620E+00 0.852E+00 0.109E+01 0.124E+01


 Contracted 2-electron integrals neglected if value below      1.0D-16
 AO integral compression algorithm  1   Integral accuracy      1.0D-16

     0.786 MB (compressed) written to integral file ( 98.0%)

     Node minimum: 0.786 MB, node maximum: 0.786 MB


 NUMBER OF SORTED TWO-ELECTRON INTEGRALS:      51035.     BUFFER LENGTH:  32768
 NUMBER OF SEGMENTS:   1  SEGMENT LENGTH:      51035      RECORD LENGTH: 524288

 Memory used in sort:       0.61 MW

 SORT1 READ       68121. AND WROTE       46775. INTEGRALS IN      1 RECORDS. CPU TIME:     0.00 SEC, REAL TIME:     0.00 SEC
 SORT2 READ       46775. AND WROTE       51035. INTEGRALS IN      3 RECORDS. CPU TIME:     0.00 SEC, REAL TIME:     0.00 SEC

 FILE SIZES:   FILE 1:     3.0 MBYTE,  FILE 4:     4.2 MBYTE,   TOTAL:      7.2 MBYTE

 OPERATOR DM      FOR CENTER  0  COORDINATES:    0.000000    0.000000    0.000000


 **********************************************************************************************************************************
 DATASETS  * FILE   NREC   LENGTH (MB)   RECORD NAMES
              1      19        3.00       500      610      700      900      950      970     1000      129      960     1100   
                                          VAR    BASINP    GEOM    SYMINP    ZMAT    AOBASIS   BASIS     P2S    ABASIS      S 
                                         1400     1410     1200     1210     1080     1600     1650     1300     1700   
                                           T        V       H0       H01     AOSYM     SMH    MOLCAS    ERIS     OPER   

 PROGRAMS   *        TOTAL       INT
 CPU TIMES  *         0.13      0.09
 REAL TIME  *         0.56 SEC
 DISK USED  *         8.56 MB      
 GA USED    *         0.00 MB       (max)       0.00 MB       (current)
 **********************************************************************************************************************************

1PROGRAM * RHF-SCF (CLOSED SHELL)       Authors: W. Meyer, H.-J. Werner


 NUMBER OF ELECTRONS:       5+    5-
 CONVERGENCE THRESHOLDS:    1.00E-10 (Density)    1.00E-13 (Energy)
 MAX. NUMBER OF ITERATIONS:      200
 INTERPOLATION TYPE:            DIIS
 INTERPOLATION STEPS:              2 (START)      1 (STEP)
 LEVEL SHIFTS:                  0.00 (CLOSED)  0.00 (OPEN) 



 Orbital guess generated from atomic densities. Full valence occupancy:    6   2

 Molecular orbital dump at record        2100.2

 Initial alpha occupancy:   4   1
 Initial beta  occupancy:   4   1
 Wave function symmetry:    1

 ITERATION    DDIFF          GRAD             ENERGY        2-EL.EN.            DIPOLE MOMENTS         DIIS
    1      0.000D+00      0.000D+00       -56.16940213     64.285961   -0.00000    0.00000   -0.93437    0
    2      0.000D+00      0.205D-01       -56.19127618     62.256102   -0.00000    0.00000   -0.63367    1
    3      0.400D-01      0.907D-02       -56.19542314     63.079224   -0.00000    0.00000   -0.69114    2
    4      0.132D-01      0.153D-02       -56.19564299     62.987821   -0.00000    0.00000   -0.68445    3
    5      0.332D-02      0.318D-03       -56.19565269     62.999308   -0.00000    0.00000   -0.68311    4
    6      0.744D-03      0.497D-04       -56.19565304     62.999684   -0.00000    0.00000   -0.68313    5
    7      0.123D-03      0.108D-04       -56.19565307     62.999640   -0.00000    0.00000   -0.68319    6
    8      0.347D-04      0.196D-05       -56.19565307     62.999631   -0.00000    0.00000   -0.68323    6
    9      0.583D-05      0.507D-06       -56.19565307     62.999632   -0.00000    0.00000   -0.68324    6
   10      0.175D-05      0.665D-07       -56.19565307     62.999631   -0.00000    0.00000   -0.68324    5
   11      0.209D-06      0.911D-08       -56.19565307     62.999632   -0.00000    0.00000   -0.68324    5
   12      0.206D-07      0.258D-08       -56.19565307     62.999632   -0.00000    0.00000   -0.68324    6
   13      0.556D-08      0.409D-09       -56.19565307     62.999632   -0.00000    0.00000   -0.68324    6
   14      0.892D-09      0.408D-10       -56.19565307     62.999632   -0.00000    0.00000   -0.68324    5
   15      0.961D-10      0.769D-11       -56.19565307     62.999632   -0.00000    0.00000   -0.68324    0

 Final occupancy:   4   1

 !RHF STATE 1.1 Energy                -56.195653070128
 Nuclear energy                        11.94899881
 One-electron energy                  -99.64446765
 Two-electron energy                   31.49981577
 Virial quotient                       -1.00152898
 !RHF STATE 1.1 Dipole moment          -0.00000000     0.00000000    -0.68324434
 Dipole moment /Debye                  -0.00000000     0.00000000    -1.73652014

 Orbital energies:

         1.1          2.1          3.1          4.1          5.1          6.1
    -15.537438    -1.133267    -0.614923    -0.421867     0.186589     0.270363

         1.2          2.2          3.2
     -0.614923     0.270363     0.729158


 **********************************************************************************************************************************
 DATASETS  * FILE   NREC   LENGTH (MB)   RECORD NAMES
              1      19        3.00       500      610      700      900      950      970     1000      129      960     1100   
                                          VAR    BASINP    GEOM    SYMINP    ZMAT    AOBASIS   BASIS     P2S    ABASIS      S 
                                         1400     1410     1200     1210     1080     1600     1650     1300     1700   
                                           T        V       H0       H01     AOSYM     SMH    MOLCAS    ERIS     OPER   

              2       3        0.31       700     1000     2100   
                                         GEOM     BASIS     RHF  

 PROGRAMS   *        TOTAL       RHF       INT
 CPU TIMES  *         0.14      0.00      0.09
 REAL TIME  *         0.85 SEC
 DISK USED  *         8.56 MB      
 GA USED    *         0.00 MB       (max)       0.00 MB       (current)
 **********************************************************************************************************************************


1PROGRAM * CCSD (Closed-shell coupled cluster)     Authors: C. Hampel, H.-J. Werner, 1991, M. Deegan, P.J. Knowles, 1992


 Convergence thresholds:  THRVAR = 1.00D-08  THRDEN = 1.00D-12

 CCSD(T)     terms to be evaluated (factor= 1.000)


 Number of core orbitals:           1 (   1   0 )
 Number of closed-shell orbitals:   4 (   3   1 )
 Number of external orbitals:      24 (  15   9 )

 Molecular orbitals read from record     2100.2  Type=RHF/CANONICAL (state 1.1)

 Number of N-1 electron functions:               4
 Number of N-2 electron functions:              10
 Number of singly external CSFs:                54
 Number of doubly external CSFs:              2388
 Total number of CSFs:                        2443

 Length of J-op  integral file:               0.00 MB
 Length of K-op  integral file:               0.06 MB
 Length of 3-ext integral record:             0.00 MB

 Memory could be reduced to 0.34 Mwords without degradation in triples

 Integral transformation finished. Total CPU:   0.00 sec, npass=  1  Memory used:   0.09 MW

 Reference energy:                    -56.19565307

 MP2 singlet pair energy:              -0.12279376
 MP2 triplet pair energy:              -0.06371608
 MP2 correlation energy:               -0.18650984
 MP2 total energy:                    -56.38216291

 SCS-MP2 correlation energy:           -0.18699807   (PS=  1.200000  PT=  0.333333)
 SCS-MP2 total energy:                -56.38265114

 ITER.      SQ.NORM     CORR.ENERGY   TOTAL ENERGY   ENERGY CHANGE        DEN1      VAR(S)    VAR(P)  DIIS     TIME
   1      1.06214430    -0.20148066   -56.39713373    -0.01497082    -0.01059071  0.24D-03  0.89D-03  1  1     0.00
   2      1.06665380    -0.20264574   -56.39829881    -0.00116508    -0.00498565  0.13D-04  0.52D-04  2  2     0.00
   3      1.06753183    -0.20274375   -56.39839682    -0.00009802    -0.00055466  0.13D-05  0.27D-05  3  3     0.00
   4      1.06772786    -0.20275092   -56.39840399    -0.00000717    -0.00009522  0.15D-06  0.15D-06  4  4     0.01
   5      1.06775800    -0.20274958   -56.39840266     0.00000133    -0.00001292  0.42D-07  0.98D-08  5  5     0.01
   6      1.06776320    -0.20274985   -56.39840292    -0.00000026    -0.00000017  0.89D-08  0.14D-08  6  6     0.01
   7      1.06776678    -0.20274980   -56.39840287     0.00000005    -0.00000032  0.65D-09  0.20D-09  6  1     0.01
   8      1.06776794    -0.20274969   -56.39840276     0.00000011    -0.00000023  0.98D-11  0.13D-10  6  4     0.01
   9      1.06776809    -0.20274970   -56.39840277    -0.00000000     0.00000001  0.37D-12  0.64D-12  6  2     0.02
  10      1.06776810    -0.20274970   -56.39840277    -0.00000001     0.00000001  0.82D-14  0.26D-13  6  3     0.02
  11      1.06776811    -0.20274970   -56.39840277     0.00000000    -0.00000000  0.10D-14  0.20D-14  6  5     0.02
  12      1.06776811    -0.20274970   -56.39840277     0.00000000    -0.00000000  0.47D-16  0.21D-15  6  6     0.02
  13      1.06776811    -0.20274970   -56.39840277     0.00000000    -0.00000000  0.17D-16  0.11D-16  6  1     0.03
  14      1.06776811    -0.20274970   -56.39840277     0.00000000    -0.00000000  0.38D-18  0.61D-18  6  3     0.03
  15      1.06776811    -0.20274970   -56.39840277     0.00000000    -0.00000000  0.87D-20  0.32D-19  6  4     0.03

 Norm of t1 vector:      0.02188730      S-energy:    -0.00000000      T1 diagnostic:  0.00547183
                                                                       D1 diagnostic:  0.00868477


 Total CPU time for triples:      0.00 sec


 RESULTS
 =======

  Reference energy                    -56.195653070128
  CCSD singlet pair energy             -0.144395029245
  CCSD triplet pair energy             -0.058354670834
  CCSD correlation energy              -0.202749700080

  Triples (T) contribution             -0.003822190237
  Total correlation energy             -0.206571890317

  CCSD total energy                   -56.398402770208
  CCSD[T] energy                      -56.402305841202
  CCSD-T energy                       -56.402171200656
 !CCSD(T) total energy                -56.402224960445

 Timing summary (sec):

 STEP                 CPU(USER)    SYS     CPU(TOT)    WALL
 CCSD iterations         0.03      0.00      0.03      0.41

 Program statistics:

 Available memory in ccsd:               999999836
 Min. memory needed in ccsd:                 13677
 Max. memory used in ccsd:                   14871
 Max. memory used in cckext:                 48591 (15 integral passes)



 **********************************************************************************************************************************
 DATASETS  * FILE   NREC   LENGTH (MB)   RECORD NAMES
              1      20        3.19       500      610      700      900      950      970     1000      129      960     1100   
                                          VAR    BASINP    GEOM    SYMINP    ZMAT    AOBASIS   BASIS     P2S    ABASIS      S 
                                         1400     1410     1200     1210     1080     1600     1650     1300     1700     1380   
                                           T        V       H0       H01     AOSYM     SMH    MOLCAS    ERIS     OPER     JKOP   

              2       3        0.31       700     1000     2100   
                                         GEOM     BASIS     RHF  

 PROGRAMS   *        TOTAL   CCSD(T)       RHF       INT
 CPU TIMES  *         0.18      0.04      0.00      0.09
 REAL TIME  *         1.43 SEC
 DISK USED  *         8.56 MB      
 GA USED    *         0.00 MB       (max)       0.00 MB       (current)
 **********************************************************************************************************************************

        CCSD(T)         RHF-SCF 
    -56.40222496    -56.19565307
 **********************************************************************************************************************************
 Variable memory released
