
 Primary working directories    : /tmp/601555.87.gen4.q
 Secondary working directories  : /tmp/601555.87.gen4.q
 Wavefunction directory         : /home/vulcan/mel64643/wfu/
 Main file repository           : /tmp/601555.87.gen4.q/

 ARCHNAME  : Linux/x86_64
 FC        : /opt/intel/compilers_and_libraries_2016.1.150/linux/bin/intel64/ifort
 FCVERSION : 16.0.1
 BLASLIB   : -mkl
 id        : ccgc

 Nodes     nprocs
 n040         1
 ga_uses_ma=false, calling ma_init with nominal heap.
 GA-space will be limited to   8.0 MW (determined by -G option)

 Using customized tuning parameters: mindgm=10; mindgv=16; mindgc=4; mindgr=1; noblas=0; mincuda=1000; minvec=7
 default implementation of scratch files=df  

 ***,Optimization of min3
 memory,1000,m
 gthresh,energy=1.0d-12,orbital=1.0d-10,oneint=1.0d-16,twoint=1.0d-16,optgrad=1.0d-6,compress=1.0d-13
 geomtyp=xyz
 
  bohr
  geometry = {
  6
  arbitrary comment
  C   -1.3751154945   -0.0253424424    0.0000003540
  O    1.3077465371    0.1160882279    0.0000003047
  H   -2.0792252512    1.9099399226   -0.0000798909
  H   -2.1086591918   -0.9784583348    1.6820920573
  H   -2.1086520841   -0.9785896083   -1.6820199212
  H    1.9401813246   -1.5737698850   -0.0000013140
 }
 
 basis=cc-pvdz
 {rhf;maxit,200}
 {ccsd(t);maxit,200}

 Variables initialized (661), CPU time= 0.00 sec
 Commands  initialized (458), CPU time= 0.00 sec, 486 directives.
 Default parameters read. Elapsed time= 0.06 sec

 Checking input...
 Passed
1


                                         ***  PROGRAM SYSTEM MOLPRO  ***
                         Copyright, University College Cardiff Consultants Limited, 2008

                                    Version 2010.1 linked May 16 2016 07:17:05


 **********************************************************************************************************************************
 LABEL *   Optimization of min3                                                          
 Linux-4.4.3/n040(x86_64) 64 bit mpp version                                             DATE: 06-Nov-21          TIME: 15:39:46  
 **********************************************************************************************************************************

 SHA1:             9e8077add272b0f3cad6f7df79ec5211205f459d
 **********************************************************************************************************************************

 THRESHOLDS:

 ZERO    =  1.00D-12  ONEINT  =  1.00D-16  TWOINT  =  1.00D-16  PREFAC  =  1.00D-14  LOCALI  =  1.00D-09  EORDER  =  1.00D-04
 ENERGY  =  1.00D-12  ETEST   =  0.00D+00  EDENS   =  0.00D+00  THRDEDEF=  1.00D-06  GRADIENT=  1.00D-02  STEP    =  1.00D-03
 ORBITAL =  1.00D-10  CIVEC   =  1.00D-05  COEFF   =  1.00D-04  PRINTCI =  5.00D-02  PUNCHCI =  9.90D+01  OPTGRAD =  1.00D-06
 OPTENERG=  1.00D-06  OPTSTEP =  3.00D-04  THRGRAD =  1.00D-10  COMPRESS=  1.00D-13  VARMIN  =  1.00D-07  VARMAX  =  1.00D-03
 THRDOUB =  0.00D+00  THRDIV  =  1.00D-05  THRRED  =  1.00D-07  THRPSP  =  1.00D+00  THRDC   =  1.00D-10  THRCS   =  1.00D-10
 THRNRM  =  1.00D-08  THREQ   =  0.00D+00  THRDE   =  1.00D+00  THRREF  =  1.00D-05  SPARFAC =  1.00D+00  THRDLP  =  1.00D-07
 THRDIA  =  1.00D-10  THRDLS  =  1.00D-07  THRGPS  =  0.00D+00  THRKEX  =  0.00D+00  THRDIS  =  2.00D-01  THRVAR  =  1.00D-10
 THRLOC  =  1.00D-06  THRGAP  =  1.00D-06  THRLOCT = -1.00D+00  THRGAPT = -1.00D+00  THRORB  =  1.00D-06  THRMLTP =  0.00D+00
 THRCPQCI=  1.00D-10  KEXTA   =  0.00D+00  THRCOARS=  0.00D+00  SYMTOL  =  1.00D-06  GRADTOL =  1.00D-06  THROVL  =  1.00D-08
 THRORTH =  1.00D-08  GRID    =  1.00D-06  GRIDMAX =  1.00D-03  DTMAX   =  0.00D+00

 SETTING GEOMTYP        =    XYZ
 ZUNIT=BOHR
 

 Variable memory set to 1000000000 words,  buffer space   230000 words

 SETTING BASIS          =    CC-PVDZ


 Recomputing integrals since basis changed


 Using spherical harmonics

 Library entry C      S cc-pVDZ              selected for orbital group  1
 Library entry C      P cc-pVDZ              selected for orbital group  1
 Library entry C      D cc-pVDZ              selected for orbital group  1
 Library entry O      S cc-pVDZ              selected for orbital group  2
 Library entry O      P cc-pVDZ              selected for orbital group  2
 Library entry O      D cc-pVDZ              selected for orbital group  2
 Library entry H      S cc-pVDZ              selected for orbital group  3
 Library entry H      P cc-pVDZ              selected for orbital group  3

1PROGRAM * SEWARD (Integral evaluation for generally contracted gaussian basis sets)     Author: Roland Lindh, 1990

 Geometry written to block  1 of record 700


 Point group  C1  



 ATOMIC COORDINATES

 NR  ATOM    CHARGE       X              Y              Z

   1  C       6.00   -1.375115494   -0.025342442    0.000000354
   2  O       8.00    1.307746537    0.116088228    0.000000305
   3  H       1.00   -2.079225251    1.909939923   -0.000079891
   4  H       1.00   -2.108659192   -0.978458335    1.682092057
   5  H       1.00   -2.108652084   -0.978589608   -1.682019921
   6  H       1.00    1.940181325   -1.573769885   -0.000001314

 Bond lengths in Bohr (Angstrom)

 1-2  2.686587299  1-3  2.059390295  1-4  2.067836734  1-5  2.067836622  2-6  1.804326523
     ( 1.421680769)     ( 1.089782409)     ( 1.094252072)     ( 1.094252012)     ( 0.954808474)

 Bond angles

  1-2-6  107.50089167   2-1-3  106.97516888   2-1-4  112.24156324   2-1-5  112.24155706

  3-1-4  108.17330714   3-1-5  108.17315385   4-1-5  108.86632310

 NUCLEAR CHARGE:                   18
 NUMBER OF PRIMITIVE AOS:          82
 NUMBER OF SYMMETRY AOS:           80
 NUMBER OF CONTRACTIONS:           48   (  48A   )
 NUMBER OF CORE ORBITALS:           2   (   2A   )
 NUMBER OF VALENCE ORBITALS:       12   (  12A   )


 NUCLEAR REPULSION ENERGY   40.31777295


 Eigenvalues of metric

         1 0.966E-02 0.176E-01 0.368E-01 0.374E-01 0.379E-01 0.473E-01 0.478E-01 0.516E-01


 Contracted 2-electron integrals neglected if value below      1.0D-16
 AO integral compression algorithm  1   Integral accuracy      1.0D-16

     6.291 MB (compressed) written to integral file ( 98.3%)

     Node minimum: 6.291 MB, node maximum: 6.291 MB


 NUMBER OF SORTED TWO-ELECTRON INTEGRALS:     692076.     BUFFER LENGTH:  32768
 NUMBER OF SEGMENTS:   1  SEGMENT LENGTH:     692076      RECORD LENGTH: 524288

 Memory used in sort:       1.25 MW

 SORT1 READ      832256. AND WROTE      682148. INTEGRALS IN      2 RECORDS. CPU TIME:     0.01 SEC, REAL TIME:     0.01 SEC
 SORT2 READ      682148. AND WROTE      692076. INTEGRALS IN     24 RECORDS. CPU TIME:     0.02 SEC, REAL TIME:     0.03 SEC

 FILE SIZES:   FILE 1:     8.0 MBYTE,  FILE 4:     8.4 MBYTE,   TOTAL:     16.4 MBYTE

 OPERATOR DM      FOR CENTER  0  COORDINATES:    0.000000    0.000000    0.000000


 **********************************************************************************************************************************
 DATASETS  * FILE   NREC   LENGTH (MB)   RECORD NAMES
              1      19        8.03       500      610      700      900      950      970     1000      129      960     1100   
                                          VAR    BASINP    GEOM    SYMINP    ZMAT    AOBASIS   BASIS     P2S    ABASIS      S 
                                         1400     1410     1200     1210     1080     1600     1650     1300     1700   
                                           T        V       H0       H01     AOSYM     SMH    MOLCAS    ERIS     OPER   

 PROGRAMS   *        TOTAL       INT
 CPU TIMES  *         0.34      0.29
 REAL TIME  *         0.52 SEC
 DISK USED  *        23.34 MB      
 GA USED    *         0.00 MB       (max)       0.00 MB       (current)
 **********************************************************************************************************************************

1PROGRAM * RHF-SCF (CLOSED SHELL)       Authors: W. Meyer, H.-J. Werner


 NUMBER OF ELECTRONS:       9+    9-    SPACE SYMMETRY=1    SPIN SYMMETRY: Singlet 
 CONVERGENCE THRESHOLDS:    1.00E-10 (Density)    1.00E-13 (Energy)
 MAX. NUMBER OF ITERATIONS:      200
 INTERPOLATION TYPE:            DIIS
 INTERPOLATION STEPS:              2 (START)      1 (STEP)
 LEVEL SHIFTS:                  0.00 (CLOSED)  0.00 (OPEN) 



 Orbital guess generated from atomic densities. Full valence occupancy:   14

 Molecular orbital dump at record        2100.2

 ITERATION    DDIFF          GRAD             ENERGY        2-EL.EN.            DIPOLE MOMENTS         DIIS
    1      0.000D+00      0.000D+00      -115.01441755    164.394793   -0.50043   -0.89377   -0.00000    0
    2      0.000D+00      0.110D-01      -115.04272012    162.186527   -0.31939   -0.53394   -0.00000    1
    3      0.205D-01      0.529D-02      -115.04872814    163.205907   -0.40297   -0.60828   -0.00000    2
    4      0.638D-02      0.112D-02      -115.04918815    163.050918   -0.39246   -0.59765   -0.00000    3
    5      0.204D-02      0.200D-03      -115.04920871    163.057219   -0.39512   -0.59349   -0.00000    4
    6      0.430D-03      0.349D-04      -115.04920948    163.057355   -0.39537   -0.59331   -0.00000    5
    7      0.918D-04      0.719D-05      -115.04920951    163.056182   -0.39549   -0.59315   -0.00000    6
    8      0.146D-04      0.231D-05      -115.04920951    163.056553   -0.39552   -0.59313   -0.00000    7
    9      0.491D-05      0.477D-06      -115.04920951    163.056513   -0.39553   -0.59313   -0.00000    6
   10      0.137D-05      0.823D-07      -115.04920951    163.056511   -0.39553   -0.59313   -0.00000    6
   11      0.224D-06      0.308D-07      -115.04920951    163.056517   -0.39553   -0.59313   -0.00000    6
   12      0.556D-07      0.124D-07      -115.04920951    163.056515   -0.39553   -0.59313   -0.00000    7
   13      0.228D-07      0.281D-08      -115.04920951    163.056515   -0.39553   -0.59313   -0.00000    7
   14      0.694D-08      0.619D-09      -115.04920951    163.056515   -0.39553   -0.59313   -0.00000    7
   15      0.159D-08      0.140D-09      -115.04920951    163.056515   -0.39553   -0.59313   -0.00000    7
   16      0.310D-09      0.417D-10      -115.04920951    163.056515   -0.39553   -0.59313   -0.00000    7
   17      0.808D-10      0.149D-10      -115.04920951    163.056515   -0.39553   -0.59313   -0.00000    7
   18      0.381D-10      0.249D-11      -115.04920951    163.056515   -0.39553   -0.59313   -0.00000    0

 Final occupancy:   9

 !RHF STATE 1.1 Energy               -115.049209510646
 Nuclear energy                        40.31777295
 One-electron energy                 -236.89524007
 Two-electron energy                   81.52825761
 Virial quotient                       -1.00086646
 !RHF STATE 1.1 Dipole moment          -0.39553360    -0.59312824    -0.00000278
 Dipole moment /Debye                  -1.00528029    -1.50748288    -0.00000707

 Orbital energies:

         1.1          2.1          3.1          4.1          5.1          6.1          7.1          8.1          9.1         10.1
    -20.549437   -11.274835    -1.350554    -0.921812    -0.683420    -0.613858    -0.584900    -0.497187    -0.443358     0.184900

        11.1
      0.224744


 **********************************************************************************************************************************
 DATASETS  * FILE   NREC   LENGTH (MB)   RECORD NAMES
              1      19        8.03       500      610      700      900      950      970     1000      129      960     1100   
                                          VAR    BASINP    GEOM    SYMINP    ZMAT    AOBASIS   BASIS     P2S    ABASIS      S 
                                         1400     1410     1200     1210     1080     1600     1650     1300     1700   
                                           T        V       H0       H01     AOSYM     SMH    MOLCAS    ERIS     OPER   

              2       3        0.39       700     1000     2100   
                                         GEOM     BASIS     RHF  

 PROGRAMS   *        TOTAL       RHF       INT
 CPU TIMES  *         0.45      0.11      0.29
 REAL TIME  *         0.66 SEC
 DISK USED  *        23.34 MB      
 GA USED    *         0.00 MB       (max)       0.00 MB       (current)
 **********************************************************************************************************************************


1PROGRAM * CCSD (Closed-shell coupled cluster)     Authors: C. Hampel, H.-J. Werner, 1991, M. Deegan, P.J. Knowles, 1992


 Convergence thresholds:  THRVAR = 1.00D-08  THRDEN = 1.00D-12

 CCSD(T)     terms to be evaluated (factor= 1.000)


 Number of core orbitals:           2 (   2 )
 Number of closed-shell orbitals:   7 (   7 )
 Number of external orbitals:      39 (  39 )

 Molecular orbitals read from record     2100.2  Type=RHF/CANONICAL (state 1.1)

 Number of N-1 electron functions:               7
 Number of N-2 electron functions:              28
 Number of singly external CSFs:               273
 Number of doubly external CSFs:             37401
 Total number of CSFs:                       37675

 Length of J-op  integral file:               0.00 MB
 Length of K-op  integral file:               0.19 MB
 Length of 3-ext integral record:             0.00 MB

 Memory could be reduced to 0.96 Mwords without degradation in triples

 Integral transformation finished. Total CPU:   0.03 sec, npass=  1  Memory used:   0.66 MW

 Reference energy:                   -115.04920951

 MP2 singlet pair energy:              -0.21852554
 MP2 triplet pair energy:              -0.11977413
 MP2 correlation energy:               -0.33829967
 MP2 total energy:                   -115.38750918

 SCS-MP2 correlation energy:           -0.33675677   (PS=  1.200000  PT=  0.333333)
 SCS-MP2 total energy:               -115.38596628

 ITER.      SQ.NORM     CORR.ENERGY   TOTAL ENERGY   ENERGY CHANGE        DEN1      VAR(S)    VAR(P)  DIIS     TIME
   1      1.10721637    -0.36111559  -115.41032510    -0.02281592    -0.01415197  0.91D-03  0.17D-02  1  1     0.07
   2      1.11572210    -0.36305566  -115.41226517    -0.00194008    -0.00923573  0.20D-04  0.16D-03  2  2     0.12
   3      1.11759343    -0.36318260  -115.41239211    -0.00012694    -0.00119845  0.94D-05  0.86D-05  3  3     0.17
   4      1.11810570    -0.36318113  -115.41239064     0.00000147    -0.00025378  0.33D-06  0.67D-06  4  4     0.22
   5      1.11820322    -0.36318152  -115.41239103    -0.00000039    -0.00003590  0.98D-07  0.49D-07  5  5     0.27
   6      1.11822207    -0.36318018  -115.41238969     0.00000134    -0.00000433  0.16D-07  0.41D-08  6  6     0.32
   7      1.11822674    -0.36317976  -115.41238927     0.00000042    -0.00000035  0.20D-08  0.71D-09  6  1     0.37
   8      1.11822799    -0.36317986  -115.41238937    -0.00000010     0.00000074  0.25D-09  0.71D-10  6  3     0.42
   9      1.11822904    -0.36317974  -115.41238925     0.00000012    -0.00000038  0.12D-10  0.10D-10  6  2     0.47
  10      1.11822896    -0.36317974  -115.41238925    -0.00000000     0.00000007  0.11D-11  0.86D-12  6  5     0.52
  11      1.11822900    -0.36317974  -115.41238925     0.00000000    -0.00000000  0.18D-12  0.49D-13  6  4     0.57
  12      1.11822898    -0.36317974  -115.41238925    -0.00000000     0.00000001  0.18D-13  0.98D-14  6  1     0.62
  13      1.11822898    -0.36317974  -115.41238925    -0.00000000    -0.00000000  0.23D-14  0.91D-15  6  6     0.67
  14      1.11822898    -0.36317974  -115.41238925     0.00000000    -0.00000000  0.22D-15  0.12D-15  6  3     0.72
  15      1.11822898    -0.36317974  -115.41238925    -0.00000000    -0.00000000  0.24D-16  0.16D-16  6  2     0.77
  16      1.11822898    -0.36317974  -115.41238925    -0.00000000    -0.00000000  0.54D-17  0.16D-17  6  5     0.82
  17      1.11822898    -0.36317974  -115.41238925    -0.00000000    -0.00000000  0.52D-18  0.24D-18  6  4     0.87
  18      1.11822898    -0.36317974  -115.41238925     0.00000000    -0.00000000  0.80D-19  0.41D-19  6  1     0.92
  19      1.11822898    -0.36317974  -115.41238925    -0.00000000    -0.00000000  0.89D-20  0.42D-20  6  6     0.97
  20      1.11822898    -0.36317974  -115.41238925     0.00000000     0.00000000  0.13D-20  0.54D-21  6  3     1.02

 Norm of t1 vector:      0.04156173      S-energy:    -0.00000000      T1 diagnostic:  0.00785443
                                                                       D1 diagnostic:  0.01751596


 Total CPU time for triples:      0.24 sec


 RESULTS
 =======

  Reference energy                   -115.049209510646
  CCSD singlet pair energy             -0.254451038042
  CCSD triplet pair energy             -0.108728702229
  CCSD correlation energy              -0.363179740271

  Triples (T) contribution             -0.007724974689
  Total correlation energy             -0.370904714960

  CCSD total energy                  -115.412389250917
  CCSD[T] energy                     -115.420403490688
  CCSD-T energy                      -115.419964566057
 !CCSD(T) total energy               -115.420114225606

 Timing summary (sec):

 STEP                 CPU(USER)    SYS     CPU(TOT)    WALL
 Transformation          0.03      0.00      0.03      0.04
 CCSD iterations         0.99      0.06      1.05      1.08
 Triples                 0.24      0.00      0.24      0.25

 Program statistics:

 Available memory in ccsd:               999999704
 Min. memory needed in ccsd:                136801
 Max. memory used in ccsd:                  163198
 Max. memory used in cckext:                182024 (20 integral passes)



 **********************************************************************************************************************************
 DATASETS  * FILE   NREC   LENGTH (MB)   RECORD NAMES
              1      20       10.56       500      610      700      900      950      970     1000      129      960     1100   
                                          VAR    BASINP    GEOM    SYMINP    ZMAT    AOBASIS   BASIS     P2S    ABASIS      S 
                                         1400     1410     1200     1210     1080     1600     1650     1300     1700     1380   
                                           T        V       H0       H01     AOSYM     SMH    MOLCAS    ERIS     OPER     JKOP   

              2       3        0.39       700     1000     2100   
                                         GEOM     BASIS     RHF  

 PROGRAMS   *        TOTAL   CCSD(T)       RHF       INT
 CPU TIMES  *         1.72      1.27      0.11      0.29
 REAL TIME  *         2.05 SEC
 DISK USED  *        24.77 MB      
 GA USED    *         0.00 MB       (max)       0.00 MB       (current)
 **********************************************************************************************************************************

        CCSD(T)         RHF-SCF 
   -115.42011423   -115.04920951
 **********************************************************************************************************************************
 Variable memory released
