
    -----------------------------------------------------------------------
          Psi4: An Open-Source Ab Initio Electronic Structure Package
                               Psi4 1.4a2.dev629 

                         Git: Rev {master} 2938fc2 dirty


    D. G. A. Smith, L. A. Burns, A. C. Simmonett, R. M. Parrish,
    M. C. Schieber, R. Galvelis, P. Kraus, H. Kruse, R. Di Remigio,
    A. Alenaizan, A. M. James, S. Lehtola, J. P. Misiewicz, M. Scheurer,
    R. A. Shaw, J. B. Schriber, Y. Xie, Z. L. Glick, D. A. Sirianni,
    J. S. O'Brien, J. M. Waldrop, A. Kumar, E. G. Hohenstein,
    B. P. Pritchard, B. R. Brooks, H. F. Schaefer III, A. Yu. Sokolov,
    K. Patkowski, A. E. DePrince III, U. Bozkaya, R. A. King,
    F. A. Evangelista, J. M. Turney, T. D. Crawford, C. D. Sherrill,
    J. Chem. Phys. 152(18) 184108 (2020). https://doi.org/10.1063/5.0006002

                            Additional Code Authors
    E. T. Seidl, C. L. Janssen, E. F. Valeev, M. L. Leininger,
    J. F. Gonthier, R. M. Richard, H. R. McAlexander, M. Saitow, X. Wang,
    P. Verma, and M. H. Lechner

             Previous Authors, Complete List of Code Contributors,
                       and Citations for Specific Modules
    https://github.com/psi4/psi4/blob/master/codemeta.json
    https://github.com/psi4/psi4/graphs/contributors
    http://psicode.org/psi4manual/master/introduction.html#citing-psifour

    -----------------------------------------------------------------------


    Psi4 started on: Saturday, 19 September 2020 05:49PM

    Process ID: 7419
    Host:       n022
    PSIDATADIR: /opt/psi/4/master/share/psi4
    Memory:     500.0 MiB
    Threads:    1
    
  ==> Input File <==

--------------------------------------------------------------------------
# o-Benzyne preliminary computations

memory 14 gb

molecule {
  0 1
  C   -1.3645240461   -0.0249326537    0.0000059087
  O    1.3065568481    0.1195101096    0.0000045642
  H   -2.0780672624    1.8982291920   -0.0009211612
  H   -2.1081602590   -0.9712423541    1.6746104586
  H   -2.1080847611   -0.9727458039   -1.6737821555
  H    1.9454152405   -1.5739569498   -0.0000106048
  units bohr
}

set {
  basis=cc-pVTZ
  reference rhf
  e_convergence 10 
  d_convergence 10
  r_convergence 8
  maxiter 300
}

energy('ccsd(t)')
--------------------------------------------------------------------------

  Memory set to  13.039 GiB by Python driver.

Scratch directory: /tmp/

*** tstart() called on n022
*** at Sat Sep 19 17:49:54 2020

   => Loading Basis Set <=

    Name: CC-PVTZ
    Role: ORBITAL
    Keyword: BASIS
    atoms 1   entry C          line   186 file /opt/psi/4/master/share/psi4/basis/cc-pvtz.gbs 
    atoms 2   entry O          line   262 file /opt/psi/4/master/share/psi4/basis/cc-pvtz.gbs 
    atoms 3-6 entry H          line    23 file /opt/psi/4/master/share/psi4/basis/cc-pvtz.gbs 


         ---------------------------------------------------------
                                   SCF
               by Justin Turney, Rob Parrish, Andy Simmonett
                          and Daniel G. A. Smith
                              RHF Reference
                        1 Threads,  13351 MiB Core
         ---------------------------------------------------------

  ==> Geometry <==

    Molecular point group: c1
    Full point group: C1

    Geometry (in Bohr), charge = 0, multiplicity = 1:

       Center              X                  Y                   Z               Mass       
    ------------   -----------------  -----------------  -----------------  -----------------
         C           -1.368928231152    -0.024307288187     0.000004671092    12.000000000000
         O            1.302152663048     0.120135475113     0.000003326592    15.994914619570
         H           -2.082471447452     1.898854557513    -0.000922398808     1.007825032230
         H           -2.112564444052    -0.970616988587     1.674609220992     1.007825032230
         H           -2.112488946152    -0.972120438387    -1.673783393108     1.007825032230
         H            1.941011055448    -1.573331584287    -0.000011842408     1.007825032230

  Running in c1 symmetry.

  Rotational constants: A =      4.32527  B =      0.83124  C =      0.80223 [cm^-1]
  Rotational constants: A = 129668.20574  B =  24920.02339  C =  24050.38649 [MHz]
  Nuclear repulsion =   40.426495811539148

  Charge       = 0
  Multiplicity = 1
  Electrons    = 18
  Nalpha       = 9
  Nbeta        = 9

  ==> Algorithm <==

  SCF Algorithm Type is PK.
  DIIS enabled.
  MOM disabled.
  Fractional occupation disabled.
  Guess Type is SAD.
  Energy threshold   = 1.00e-10
  Density threshold  = 1.00e-10
  Integral threshold = 0.00e+00

  ==> Primary Basis <==

  Basis Set: CC-PVTZ
    Blend: CC-PVTZ
    Number of shells: 44
    Number of basis function: 116
    Number of Cartesian functions: 130
    Spherical Harmonics?: true
    Max angular momentum: 3

  ==> Integral Setup <==

  Using in-core PK algorithm.
   Calculation information:
      Number of atoms:                   6
      Number of AO shells:              44
      Number of primitives:             84
      Number of atomic orbitals:       130
      Number of basis functions:       116

      Integral cutoff                 1.00e-12
      Number of threads:                 1

  Performing in-core PK
  Using 46056582 doubles for integral storage.
  We computed 490489 shell quartets total.
  Whereas there are 490545 unique shell quartets.

  ==> DiskJK: Disk-Based J/K Matrices <==

    J tasked:                  Yes
    K tasked:                  Yes
    wK tasked:                  No
    Memory [MiB]:            10013
    Schwarz Cutoff:          1E-12

    OpenMP threads:              1

  Minimum eigenvalue in the overlap matrix is 1.8284164461E-03.
  Reciprocal condition number of the overlap matrix is 2.7565656053E-04.
    Using symmetric orthogonalization.

  ==> Pre-Iterations <==

  SCF Guess: Superposition of Atomic Densities via on-the-fly atomic UHF (no occupation information).

   -------------------------
    Irrep   Nso     Nmo    
   -------------------------
     A        116     116 
   -------------------------
    Total     116     116
   -------------------------

  ==> Iterations <==

                        Total Energy        Delta E     RMS |[F,P]|

   @RHF iter SAD:  -114.42905421834608   -1.14429e+02   0.00000e+00 
   @RHF iter   1:  -115.01467925254566   -5.85625e-01   3.41559e-03 DIIS
   @RHF iter   2:  -115.07171349926959   -5.70342e-02   1.94661e-03 DIIS
   @RHF iter   3:  -115.08841887461230   -1.67054e-02   3.01022e-04 DIIS
   @RHF iter   4:  -115.08930065648725   -8.81782e-04   8.77074e-05 DIIS
   @RHF iter   5:  -115.08937374563831   -7.30892e-05   2.13631e-05 DIIS
   @RHF iter   6:  -115.08937856219916   -4.81656e-06   4.70932e-06 DIIS
   @RHF iter   7:  -115.08937892532184   -3.63123e-07   1.09182e-06 DIIS
   @RHF iter   8:  -115.08937894661042   -2.12886e-08   2.26153e-07 DIIS
   @RHF iter   9:  -115.08937894751439   -9.03967e-10   4.20181e-08 DIIS
   @RHF iter  10:  -115.08937894754419   -2.98002e-11   1.07217e-08 DIIS
   @RHF iter  11:  -115.08937894754611   -1.91847e-12   2.17726e-09 DIIS
   @RHF iter  12:  -115.08937894754614   -2.84217e-14   3.90444e-10 DIIS
   @RHF iter  13:  -115.08937894754609    4.26326e-14   7.19877e-11 DIIS
  Energy and wave function converged.


  ==> Post-Iterations <==

    Orbital Energies [Eh]
    ---------------------

    Doubly Occupied:                                                      

       1A    -20.552738     2A    -11.267930     3A     -1.356344  
       4A     -0.924509     5A     -0.689686     6A     -0.618747  
       7A     -0.592135     8A     -0.501706     9A     -0.449162  

    Virtual:                                                              

      10A      0.138610    11A      0.178540    12A      0.220827  
      13A      0.224445    14A      0.291486    15A      0.386931  
      16A      0.404883    17A      0.546103    18A      0.584793  
      19A      0.623857    20A      0.625299    21A      0.639598  
      22A      0.690555    23A      0.705831    24A      0.721241  
      25A      0.832664    26A      0.865096    27A      0.871874  
      28A      0.927210    29A      1.071469    30A      1.100522  
      31A      1.179727    32A      1.191910    33A      1.262421  
      34A      1.271373    35A      1.283062    36A      1.368726  
      37A      1.446889    38A      1.488302    39A      1.524370  
      40A      1.546450    41A      1.583149    42A      1.621939  
      43A      1.778108    44A      2.094732    45A      2.182328  
      46A      2.203924    47A      2.303351    48A      2.324566  
      49A      2.486490    50A      2.507803    51A      2.575640  
      52A      2.804263    53A      2.951735    54A      3.060352  
      55A      3.110313    56A      3.121513    57A      3.142745  
      58A      3.223994    59A      3.244160    60A      3.315330  
      61A      3.315535    62A      3.342012    63A      3.385838  
      64A      3.502363    65A      3.619594    66A      3.634186  
      67A      3.702544    68A      3.711638    69A      3.748214  
      70A      3.763015    71A      3.818286    72A      3.844178  
      73A      3.904387    74A      4.004284    75A      4.022465  
      76A      4.120578    77A      4.162289    78A      4.174026  
      79A      4.250041    80A      4.257239    81A      4.290406  
      82A      4.410867    83A      4.440920    84A      4.471871  
      85A      4.564670    86A      4.586646    87A      4.716250  
      88A      4.787831    89A      4.997104    90A      5.039289  
      91A      5.057991    92A      5.206805    93A      5.275385  
      94A      5.320726    95A      5.374804    96A      5.423038  
      97A      5.551385    98A      5.554924    99A      5.570004  
     100A      5.792917   101A      5.945734   102A      6.200361  
     103A      6.216113   104A      6.255314   105A      6.443775  
     106A      6.644916   107A      6.999988   108A      7.126932  
     109A      7.185062   110A      7.236447   111A      7.357194  
     112A      7.436981   113A      7.594271   114A      7.915904  
     115A     12.162600   116A     13.754606  

    Final Occupation by Irrep:
              A 
    DOCC [     9 ]

  @RHF Final Energy:  -115.08937894754609

   => Energetics <=

    Nuclear Repulsion Energy =             40.4264958115391480
    One-Electron Energy =                -237.1258386804450708
    Two-Electron Energy =                  81.6099639213598209
    Total Energy =                       -115.0893789475460949

Computation Completed


Properties will be evaluated at   0.000000,   0.000000,   0.000000 [a0]

Properties computed using the SCF density matrix

  Nuclear Dipole Moment: [e a0]
     X:    -2.1629      Y:    -0.8020      Z:    -0.0001

  Electronic Dipole Moment: [e a0]
     X:     1.7824      Y:     0.2145      Z:     0.0000

  Dipole Moment: [e a0]
     X:    -0.3805      Y:    -0.5875      Z:    -0.0000     Total:     0.6999

  Dipole Moment: [D]
     X:    -0.9671      Y:    -1.4932      Z:    -0.0001     Total:     1.7790


*** tstop() called on n022 at Sat Sep 19 17:49:58 2020
Module time:
	user time   =       3.52 seconds =       0.06 minutes
	system time =       0.01 seconds =       0.00 minutes
	total time  =          4 seconds =       0.07 minutes
Total time:
	user time   =       3.52 seconds =       0.06 minutes
	system time =       0.01 seconds =       0.00 minutes
	total time  =          4 seconds =       0.07 minutes
 MINTS: Wrapper to libmints.
   by Justin Turney

   Calculation information:
      Number of threads:                 1
      Number of atoms:                   6
      Number of AO shells:              44
      Number of SO shells:              44
      Number of primitives:             84
      Number of atomic orbitals:       130
      Number of basis functions:       116

      Number of irreps:                  1
      Integral cutoff                 0.00e+00
      Number of functions per irrep: [ 116 ]

 OEINTS: Overlap, kinetic, potential, dipole, and quadrupole integrals
         stored in file 35.

      Computing two-electron integrals...done
      Computed 22877215 non-zero two-electron integrals.
        Stored in file 33.


*** tstart() called on n022
*** at Sat Sep 19 17:50:00 2020


	Wfn Parameters:
	--------------------
	Wavefunction         = CCSD_T
	Number of irreps     = 1
	Number of MOs        = 116
	Number of active MOs = 116
	AO-Basis             = NONE
	Semicanonical        = false
	Reference            = RHF
	Print Level          = 1

	IRREP	# MOs	# FZDC	# DOCC	# SOCC	# VIRT	# FZVR
	-----	-----	------	------	------	------	------
	 A	   116	    0	    9	    0	    107	    0
	Transforming integrals...
	IWL integrals will be deleted.
	(OO|OO)...
	Presorting SO-basis two-electron integrals.
	Sorting File: SO Ints (nn|nn) nbuckets = 1
	Transforming the one-electron integrals and constructing Fock matrices
	Starting first half-transformation.
	Sorting half-transformed integrals.
	First half integral transformation complete.
	Starting second half-transformation.
	Two-electron integral transformation complete.
	(OO|OV)...
	Starting second half-transformation.
	Two-electron integral transformation complete.
	(OO|VV)...
	Starting second half-transformation.
	Two-electron integral transformation complete.
	(OV|OO)...
	Starting first half-transformation.
	Sorting half-transformed integrals.
	First half integral transformation complete.
	Starting second half-transformation.
	Two-electron integral transformation complete.
	(OV|OV)...
	Starting second half-transformation.
	Two-electron integral transformation complete.
	(OV|VV)...
	Starting second half-transformation.
	Two-electron integral transformation complete.
	(VV|OO)...
	Starting first half-transformation.
	Sorting half-transformed integrals.
	First half integral transformation complete.
	Starting second half-transformation.
	Two-electron integral transformation complete.
	(VV|OV)...
	Starting second half-transformation.
	Two-electron integral transformation complete.
	(VV|VV)...
	Starting second half-transformation.
	Two-electron integral transformation complete.
	Frozen core energy     =      0.00000000000000

	Size of irrep 0 of <ab|cd> integrals:    131.080 (MW) /   1048.637 (MB)
	Total:                                   131.080 (MW) /   1048.637 (MB)

	Size of irrep 0 of <ia|bc> integrals:     11.025 (MW) /     88.203 (MB)
	Total:                                    11.025 (MW) /     88.203 (MB)

	Size of irrep 0 of tijab amplitudes:       0.927 (MW) /      7.419 (MB)
	Total:                                     0.927 (MW) /      7.419 (MB)

	Nuclear Rep. energy          =     40.42649581153915
	SCF energy                   =   -115.08937894754609
	One-electron energy          =   -237.12583871221267
	Two-electron energy          =     81.60996395312758
	Reference energy             =   -115.08937894754592

*** tstop() called on n022 at Sat Sep 19 17:50:13 2020
Module time:
	user time   =      10.27 seconds =       0.17 minutes
	system time =       2.75 seconds =       0.05 minutes
	total time  =         13 seconds =       0.22 minutes
Total time:
	user time   =      15.51 seconds =       0.26 minutes
	system time =       2.98 seconds =       0.05 minutes
	total time  =         19 seconds =       0.32 minutes
            **************************
            *                        *
            *        CCENERGY        *
            *                        *
            **************************

    Nuclear Rep. energy (wfn)     =   40.426495811539148
    SCF energy          (wfn)     = -115.089378947546095
    Reference energy    (file100) = -115.089378947545924

    Input parameters:
    -----------------
    Wave function   =     CCSD_T
    Reference wfn   =     RHF
    Brueckner       =     No
    Memory (Mbytes) =     14000.0
    Maxiter         =    300
    R_Convergence   =     1.0e-08
    E_Convergence   =     1.0e-10
    Restart         =     Yes
    DIIS            =     Yes
    AO Basis        =     NONE
    ABCD            =     NEW
    Cache Level     =     2
    Cache Type      =     LOW
    Print Level     =     1
    Num. of threads =     1
    # Amps to Print =     10
    Print MP2 Amps? =     No
    Analyze T2 Amps =     No
    Print Pair Ener =     No
    Local CC        =     No
    SCS-MP2         =     False
    SCSN-MP2        =     False
    SCS-CCSD        =     False

MP2 correlation energy -0.4574461442094083
                Solving CC Amplitude Equations
                ------------------------------
  Iter             Energy              RMS        T1Diag      D1Diag    New D1Diag    D2Diag
  ----     ---------------------    ---------   ----------  ----------  ----------   --------
     0        -0.457446144209408    0.000e+00    0.000000    0.000000    0.000000    0.127975
     1        -0.464976417391756    4.762e-02    0.006484    0.014744    0.014744    0.129093
     2        -0.474924305273499    1.561e-02    0.006592    0.014690    0.014690    0.134776
     3        -0.476395880343319    5.474e-03    0.007387    0.016815    0.016815    0.136201
     4        -0.476292477086476    1.202e-03    0.007439    0.016884    0.016884    0.136421
     5        -0.476332039185325    4.333e-04    0.007471    0.017010    0.017010    0.136515
     6        -0.476340627400747    1.217e-04    0.007481    0.017059    0.017059    0.136522
     7        -0.476338474654203    4.506e-05    0.007482    0.017073    0.017073    0.136519
     8        -0.476338338699744    1.672e-05    0.007484    0.017081    0.017081    0.136519
     9        -0.476338449143750    4.876e-06    0.007484    0.017083    0.017083    0.136519
    10        -0.476338203714865    1.556e-06    0.007484    0.017083    0.017083    0.136519
    11        -0.476338270559578    4.773e-07    0.007484    0.017083    0.017083    0.136519
    12        -0.476338256189845    1.164e-07    0.007484    0.017083    0.017083    0.136519
    13        -0.476338259195346    4.160e-08    0.007484    0.017083    0.017083    0.136519
    14        -0.476338260342256    1.187e-08    0.007484    0.017083    0.017083    0.136519
    15        -0.476338260388551    4.930e-09    0.007484    0.017083    0.017083    0.136519
    16        -0.476338260417303    1.539e-09    0.007484    0.017083    0.017083    0.136519

    Iterations converged.


    Largest TIA Amplitudes:
              5   6        -0.0080605069
              5  14         0.0076224391
              5   9         0.0070343040
              8  14        -0.0063179356
              6   3        -0.0059605823
              6   7         0.0058817663
              7   8         0.0057869017
              5   2         0.0057677032
              8   6         0.0053683187
              6   5        -0.0051565019

    Largest TIjAb Amplitudes:
      5   5   9   9        -0.0229201133
      8   8  14  14        -0.0210335210
      6   6   7   7        -0.0207496369
      7   7  12  12        -0.0205459005
      4   4   7   7        -0.0192734495
      6   6   8   8        -0.0165039663
      5   5  14  14        -0.0152223604
      7   7   7   7        -0.0150760847
      5   5   2   9        -0.0148815421
      5   5   9   2        -0.0148815421

    SCF energy       (wfn)                    = -115.089378947546095
    Reference energy (file100)                = -115.089378947545924

    Opposite-spin MP2 correlation energy      =   -0.353850856672845
    Same-spin MP2 correlation energy          =   -0.103595287536563
    Singles MP2 correlation energy            =   -0.000000000000000
    MP2 correlation energy                    =   -0.457446144209408
      * MP2 total energy                      = -115.546825091755338

    Opposite-spin CCSD correlation energy     =   -0.381803864500340
    Same-spin CCSD correlation energy         =   -0.094534395916964
    Singles CCSD correlation energy           =    0.000000000000000
    CCSD correlation energy                   =   -0.476338260417303
      * CCSD total energy                     = -115.565717207963232

            **************************
            *                        *
            *        CCTRIPLES       *
            *                        *
            **************************


    Wave function   =    CCSD_T
    Reference wfn   =      RHF

    Nuclear Rep. energy (wfn)                =   40.426495811539148
    SCF energy          (wfn)                = -115.089378947546095
    Reference energy    (file100)            = -115.089378947545924
    CCSD energy         (file100)            =   -0.476338260417303
    Total CCSD energy   (file100)            = -115.565717207963232

    Number of ijk index combinations:              165
    Memory available in words        :      1750000000
    ~Words needed per explicit thread:         4900172
    Number of threads for explicit ijk threading:    1

    MKL num_threads set to 1 for explicit threading.

    (T) energy                                =   -0.015048000671716
      * CCSD(T) total energy                  = -115.580765208634944


    Psi4 stopped on: Saturday, 19 September 2020 05:51PM
    Psi4 wall time for execution: 0:01:20.23

*** Psi4 exiting successfully. Buy a developer a beer!
