
 Primary working directories    : /tmp/1231578.5.gen4.q
 Secondary working directories  : /tmp/1231578.5.gen4.q
 Wavefunction directory         : /home/vulcan/nlk36701/wfu/
 Main file repository           : /tmp/1231578.5.gen4.q/

 ARCHNAME  : Linux/x86_64
 FC        : /opt/intel/compilers_and_libraries_2016.1.150/linux/bin/intel64/ifort
 FCVERSION : 16.0.1
 BLASLIB   : -mkl
 id        : ccgc

 Nodes     nprocs
 n021         1
 ga_uses_ma=false, calling ma_init with nominal heap.
 GA-space will be limited to   8.0 MW (determined by -G option)

 Using customized tuning parameters: mindgm=10; mindgv=16; mindgc=4; mindgr=1; noblas=0; mincuda=1000; minvec=7
 default implementation of scratch files=df  

 ***,Optimization of min3
 memory,1000,m
 gthresh,energy=1.0d-12,orbital=1.0d-10,oneint=1.0d-16,twoint=1.0d-16,optgrad=1.0d-6,compress=1.0d-13
 geomtyp=xyz
 
  bohr
  geometry = {
  N    0.0000000000   -0.0000000000    0.1357050596
  H    0.8786511331   -1.5218684057   -0.6184027732
  H    0.8786511331    1.5218684057   -0.6184027732
  H   -1.7573022763    0.0000000000   -0.6184027732
 }
 
 basis=cc-pvdz
 {rhf;maxit,200}
 {ccsd(t);maxit,200}

 Variables initialized (661), CPU time= 0.00 sec
 Commands  initialized (458), CPU time= 0.00 sec, 486 directives.
 Default parameters read. Elapsed time= 0.07 sec

 Checking input...
 Passed
1


                                         ***  PROGRAM SYSTEM MOLPRO  ***
                         Copyright, University College Cardiff Consultants Limited, 2008

                                    Version 2010.1 linked May 16 2016 07:17:05


 **********************************************************************************************************************************
 LABEL *   Optimization of min3                                                          
 Linux-4.4.3/n021(x86_64) 64 bit mpp version                                             DATE: 16-Apr-25          TIME: 10:08:08  
 **********************************************************************************************************************************

 SHA1:             9e8077add272b0f3cad6f7df79ec5211205f459d
 **********************************************************************************************************************************

 THRESHOLDS:

 ZERO    =  1.00D-12  ONEINT  =  1.00D-16  TWOINT  =  1.00D-16  PREFAC  =  1.00D-14  LOCALI  =  1.00D-09  EORDER  =  1.00D-04
 ENERGY  =  1.00D-12  ETEST   =  0.00D+00  EDENS   =  0.00D+00  THRDEDEF=  1.00D-06  GRADIENT=  1.00D-02  STEP    =  1.00D-03
 ORBITAL =  1.00D-10  CIVEC   =  1.00D-05  COEFF   =  1.00D-04  PRINTCI =  5.00D-02  PUNCHCI =  9.90D+01  OPTGRAD =  1.00D-06
 OPTENERG=  1.00D-06  OPTSTEP =  3.00D-04  THRGRAD =  1.00D-10  COMPRESS=  1.00D-13  VARMIN  =  1.00D-07  VARMAX  =  1.00D-03
 THRDOUB =  0.00D+00  THRDIV  =  1.00D-05  THRRED  =  1.00D-07  THRPSP  =  1.00D+00  THRDC   =  1.00D-10  THRCS   =  1.00D-10
 THRNRM  =  1.00D-08  THREQ   =  0.00D+00  THRDE   =  1.00D+00  THRREF  =  1.00D-05  SPARFAC =  1.00D+00  THRDLP  =  1.00D-07
 THRDIA  =  1.00D-10  THRDLS  =  1.00D-07  THRGPS  =  0.00D+00  THRKEX  =  0.00D+00  THRDIS  =  2.00D-01  THRVAR  =  1.00D-10
 THRLOC  =  1.00D-06  THRGAP  =  1.00D-06  THRLOCT = -1.00D+00  THRGAPT = -1.00D+00  THRORB  =  1.00D-06  THRMLTP =  0.00D+00
 THRCPQCI=  1.00D-10  KEXTA   =  0.00D+00  THRCOARS=  0.00D+00  SYMTOL  =  1.00D-06  GRADTOL =  1.00D-06  THROVL  =  1.00D-08
 THRORTH =  1.00D-08  GRID    =  1.00D-06  GRIDMAX =  1.00D-03  DTMAX   =  0.00D+00

 SETTING GEOMTYP        =    XYZ
 ZUNIT=BOHR
 

 Variable memory set to 1000000000 words,  buffer space   230000 words

 SETTING BASIS          =    CC-PVDZ


 Recomputing integrals since basis changed


 Using spherical harmonics

 Library entry N      S cc-pVDZ              selected for orbital group  1
 Library entry N      P cc-pVDZ              selected for orbital group  1
 Library entry N      D cc-pVDZ              selected for orbital group  1
 Library entry H      S cc-pVDZ              selected for orbital group  2
 Library entry H      P cc-pVDZ              selected for orbital group  2

1PROGRAM * SEWARD (Integral evaluation for generally contracted gaussian basis sets)     Author: Roland Lindh, 1990

 Geometry written to block  1 of record 700


 Point group  Cs  



 ATOMIC COORDINATES

 NR  ATOM    CHARGE       X              Y              Z

   1  N       7.00    0.000000000    0.000000000    0.135705060
   2  H       1.00    0.878651133   -1.521868406   -0.618402773
   3  H       1.00    0.878651133    1.521868406   -0.618402773
   4  H       1.00   -1.757302276    0.000000000   -0.618402773

 Bond lengths in Bohr (Angstrom)

 1-2  1.912273485  1-3  1.912273485  1-4  1.912273493
     ( 1.011931546)     ( 1.011931546)     ( 1.011931550)

 Bond angles

  2-1-3  105.46979850   2-1-4  105.46979852   3-1-4  105.46979852

 NUCLEAR CHARGE:                   10
 NUMBER OF PRIMITIVE AOS:          48
 NUMBER OF SYMMETRY AOS:           47
 NUMBER OF CONTRACTIONS:           29   (  19A'  +  10A"  )
 NUMBER OF CORE ORBITALS:           1   (   1A'  +   0A"  )
 NUMBER OF VALENCE ORBITALS:        7   (   5A'  +   2A"  )


 NUCLEAR REPULSION ENERGY   11.96732336


 Eigenvalues of metric

         1 0.158E-01 0.406E-01 0.448E-01 0.773E-01 0.148E+00 0.150E+00 0.185E+00 0.410E+00
         2 0.406E-01 0.773E-01 0.148E+00 0.410E+00 0.620E+00 0.849E+00 0.109E+01 0.123E+01


 Contracted 2-electron integrals neglected if value below      1.0D-16
 AO integral compression algorithm  1   Integral accuracy      1.0D-16

     0.786 MB (compressed) written to integral file ( 98.0%)

     Node minimum: 0.786 MB, node maximum: 0.786 MB


 NUMBER OF SORTED TWO-ELECTRON INTEGRALS:      51035.     BUFFER LENGTH:  32768
 NUMBER OF SEGMENTS:   1  SEGMENT LENGTH:      51035      RECORD LENGTH: 524288

 Memory used in sort:       0.61 MW

 SORT1 READ       68121. AND WROTE       46775. INTEGRALS IN      1 RECORDS. CPU TIME:     0.00 SEC, REAL TIME:     0.00 SEC
 SORT2 READ       46775. AND WROTE       51035. INTEGRALS IN      3 RECORDS. CPU TIME:     0.00 SEC, REAL TIME:     0.01 SEC

 FILE SIZES:   FILE 1:     3.0 MBYTE,  FILE 4:     4.2 MBYTE,   TOTAL:      7.2 MBYTE

 OPERATOR DM      FOR CENTER  0  COORDINATES:    0.000000    0.000000    0.000000


 **********************************************************************************************************************************
 DATASETS  * FILE   NREC   LENGTH (MB)   RECORD NAMES
              1      19        3.00       500      610      700      900      950      970     1000      129      960     1100   
                                          VAR    BASINP    GEOM    SYMINP    ZMAT    AOBASIS   BASIS     P2S    ABASIS      S 
                                         1400     1410     1200     1210     1080     1600     1650     1300     1700   
                                           T        V       H0       H01     AOSYM     SMH    MOLCAS    ERIS     OPER   

 PROGRAMS   *        TOTAL       INT
 CPU TIMES  *         0.24      0.18
 REAL TIME  *         0.78 SEC
 DISK USED  *         8.56 MB      
 GA USED    *         0.00 MB       (max)       0.00 MB       (current)
 **********************************************************************************************************************************

1PROGRAM * RHF-SCF (CLOSED SHELL)       Authors: W. Meyer, H.-J. Werner


 NUMBER OF ELECTRONS:       5+    5-
 CONVERGENCE THRESHOLDS:    1.00E-10 (Density)    1.00E-13 (Energy)
 MAX. NUMBER OF ITERATIONS:      200
 INTERPOLATION TYPE:            DIIS
 INTERPOLATION STEPS:              2 (START)      1 (STEP)
 LEVEL SHIFTS:                  0.00 (CLOSED)  0.00 (OPEN) 



 Orbital guess generated from atomic densities. Full valence occupancy:    6   2

 Molecular orbital dump at record        2100.2

 Initial alpha occupancy:   4   1
 Initial beta  occupancy:   4   1
 Wave function symmetry:    1

 ITERATION    DDIFF          GRAD             ENERGY        2-EL.EN.            DIPOLE MOMENTS         DIIS
    1      0.000D+00      0.000D+00       -56.16931836     64.312720   -0.00000    0.00000   -0.94230    0
    2      0.000D+00      0.206D-01       -56.19129738     62.282451   -0.00000    0.00000   -0.63876    1
    3      0.401D-01      0.908D-02       -56.19545208     63.105525   -0.00000    0.00000   -0.69696    2
    4      0.132D-01      0.153D-02       -56.19567207     63.014166   -0.00000    0.00000   -0.69024    3
    5      0.332D-02      0.319D-03       -56.19568185     63.025729   -0.00000    0.00000   -0.68892    4
    6      0.748D-03      0.498D-04       -56.19568221     63.026105   -0.00000    0.00000   -0.68895    5
    7      0.123D-03      0.109D-04       -56.19568224     63.026060   -0.00000    0.00000   -0.68902    6
    8      0.352D-04      0.197D-05       -56.19568224     63.026052   -0.00000    0.00000   -0.68905    6
    9      0.588D-05      0.502D-06       -56.19568224     63.026053   -0.00000    0.00000   -0.68907    6
   10      0.173D-05      0.658D-07       -56.19568224     63.026051   -0.00000    0.00000   -0.68907    5
   11      0.206D-06      0.903D-08       -56.19568224     63.026052   -0.00000    0.00000   -0.68907    5
   12      0.204D-07      0.254D-08       -56.19568224     63.026052   -0.00000    0.00000   -0.68907    6
   13      0.547D-08      0.404D-09       -56.19568224     63.026052   -0.00000    0.00000   -0.68907    6
   14      0.881D-09      0.405D-10       -56.19568224     63.026052   -0.00000    0.00000   -0.68907    5
   15      0.949D-10      0.764D-11       -56.19568224     63.026052   -0.00000    0.00000   -0.68907    0

 Final occupancy:   4   1

 !RHF STATE 1.1 Energy                -56.195682240756
 Nuclear energy                        11.96732336
 One-electron energy                  -99.67603140
 Two-electron energy                   31.51302580
 Virial quotient                       -1.00137515
 !RHF STATE 1.1 Dipole moment          -0.00000000     0.00000000    -0.68906936
 Dipole moment /Debye                  -0.00000000     0.00000000    -1.75132491

 Orbital energies:

         1.1          2.1          3.1          4.1          5.1          6.1
    -15.537294    -1.134635    -0.615081    -0.422899     0.186655     0.270498

         1.2          2.2          3.2
     -0.615081     0.270498     0.728962


 **********************************************************************************************************************************
 DATASETS  * FILE   NREC   LENGTH (MB)   RECORD NAMES
              1      19        3.00       500      610      700      900      950      970     1000      129      960     1100   
                                          VAR    BASINP    GEOM    SYMINP    ZMAT    AOBASIS   BASIS     P2S    ABASIS      S 
                                         1400     1410     1200     1210     1080     1600     1650     1300     1700   
                                           T        V       H0       H01     AOSYM     SMH    MOLCAS    ERIS     OPER   

              2       3        0.31       700     1000     2100   
                                         GEOM     BASIS     RHF  

 PROGRAMS   *        TOTAL       RHF       INT
 CPU TIMES  *         0.26      0.02      0.18
 REAL TIME  *         1.03 SEC
 DISK USED  *         8.56 MB      
 GA USED    *         0.00 MB       (max)       0.00 MB       (current)
 **********************************************************************************************************************************


1PROGRAM * CCSD (Closed-shell coupled cluster)     Authors: C. Hampel, H.-J. Werner, 1991, M. Deegan, P.J. Knowles, 1992


 Convergence thresholds:  THRVAR = 1.00D-08  THRDEN = 1.00D-12

 CCSD(T)     terms to be evaluated (factor= 1.000)


 Number of core orbitals:           1 (   1   0 )
 Number of closed-shell orbitals:   4 (   3   1 )
 Number of external orbitals:      24 (  15   9 )

 Molecular orbitals read from record     2100.2  Type=RHF/CANONICAL (state 1.1)

 Number of N-1 electron functions:               4
 Number of N-2 electron functions:              10
 Number of singly external CSFs:                54
 Number of doubly external CSFs:              2388
 Total number of CSFs:                        2443

 Length of J-op  integral file:               0.00 MB
 Length of K-op  integral file:               0.06 MB
 Length of 3-ext integral record:             0.00 MB

 Memory could be reduced to 0.34 Mwords without degradation in triples

 Integral transformation finished. Total CPU:   0.00 sec, npass=  1  Memory used:   0.09 MW

 Reference energy:                    -56.19568224

 MP2 singlet pair energy:              -0.12274713
 MP2 triplet pair energy:              -0.06371475
 MP2 correlation energy:               -0.18646188
 MP2 total energy:                    -56.38214412

 SCS-MP2 correlation energy:           -0.18694129   (PS=  1.200000  PT=  0.333333)
 SCS-MP2 total energy:                -56.38262353

 ITER.      SQ.NORM     CORR.ENERGY   TOTAL ENERGY   ENERGY CHANGE        DEN1      VAR(S)    VAR(P)  DIIS     TIME
   1      1.06207514    -0.20142509   -56.39710733    -0.01496321    -0.01059163  0.24D-03  0.88D-03  1  1     0.01
   2      1.06656846    -0.20258535   -56.39826759    -0.00116027    -0.00497496  0.13D-04  0.51D-04  2  2     0.01
   3      1.06744146    -0.20268263   -56.39836487    -0.00009728    -0.00055189  0.13D-05  0.27D-05  3  3     0.01
   4      1.06763636    -0.20268977   -56.39837201    -0.00000714    -0.00009467  0.15D-06  0.15D-06  4  4     0.02
   5      1.06766633    -0.20268843   -56.39837067     0.00000134    -0.00001283  0.42D-07  0.96D-08  5  5     0.02
   6      1.06767151    -0.20268869   -56.39837093    -0.00000026    -0.00000016  0.87D-08  0.14D-08  6  6     0.02
   7      1.06767508    -0.20268864   -56.39837088     0.00000005    -0.00000032  0.63D-09  0.20D-09  6  1     0.02
   8      1.06767622    -0.20268854   -56.39837078     0.00000010    -0.00000022  0.93D-11  0.13D-10  6  4     0.03
   9      1.06767637    -0.20268854   -56.39837078    -0.00000000     0.00000001  0.36D-12  0.62D-12  6  2     0.03
  10      1.06767638    -0.20268855   -56.39837079    -0.00000001     0.00000001  0.79D-14  0.25D-13  6  3     0.03
  11      1.06767638    -0.20268855   -56.39837079     0.00000000    -0.00000000  0.10D-14  0.19D-14  6  5     0.03
  12      1.06767638    -0.20268854   -56.39837079     0.00000000    -0.00000000  0.46D-16  0.20D-15  6  6     0.04
  13      1.06767639    -0.20268854   -56.39837079     0.00000000    -0.00000000  0.17D-16  0.11D-16  6  1     0.04
  14      1.06767639    -0.20268854   -56.39837079     0.00000000    -0.00000000  0.37D-18  0.58D-18  6  3     0.04
  15      1.06767639    -0.20268854   -56.39837079     0.00000000    -0.00000000  0.82D-20  0.31D-19  6  4     0.04
  16      1.06767639    -0.20268854   -56.39837079     0.00000000     0.00000000  0.34D-21  0.86D-21  6  2     0.05

 Norm of t1 vector:      0.02186746      S-energy:     0.00000000      T1 diagnostic:  0.00546686
                                                                       D1 diagnostic:  0.00867223


 Total CPU time for triples:      0.00 sec


 RESULTS
 =======

  Reference energy                    -56.195682240756
  CCSD singlet pair energy             -0.144318343678
  CCSD triplet pair energy             -0.058370201176
  CCSD correlation energy              -0.202688544854

  Triples (T) contribution             -0.003822125724
  Total correlation energy             -0.206510670578

  CCSD total energy                   -56.398370785611
  CCSD[T] energy                      -56.402273521764
  CCSD-T energy                       -56.402139281661
 !CCSD(T) total energy                -56.402192911334

 Timing summary (sec):

 STEP                 CPU(USER)    SYS     CPU(TOT)    WALL
 CCSD iterations         0.05      0.01      0.06      0.26

 Program statistics:

 Available memory in ccsd:               999999836
 Min. memory needed in ccsd:                 13677
 Max. memory used in ccsd:                   14871
 Max. memory used in cckext:                 48591 (16 integral passes)



 **********************************************************************************************************************************
 DATASETS  * FILE   NREC   LENGTH (MB)   RECORD NAMES
              1      20        3.19       500      610      700      900      950      970     1000      129      960     1100   
                                          VAR    BASINP    GEOM    SYMINP    ZMAT    AOBASIS   BASIS     P2S    ABASIS      S 
                                         1400     1410     1200     1210     1080     1600     1650     1300     1700     1380   
                                           T        V       H0       H01     AOSYM     SMH    MOLCAS    ERIS     OPER     JKOP   

              2       3        0.31       700     1000     2100   
                                         GEOM     BASIS     RHF  

 PROGRAMS   *        TOTAL   CCSD(T)       RHF       INT
 CPU TIMES  *         0.33      0.06      0.02      0.18
 REAL TIME  *         1.42 SEC
 DISK USED  *         8.56 MB      
 GA USED    *         0.00 MB       (max)       0.00 MB       (current)
 **********************************************************************************************************************************

        CCSD(T)         RHF-SCF 
    -56.40219291    -56.19568224
 **********************************************************************************************************************************
 Variable memory released
