
 Primary working directories    : /tmp/333988.53.gen4.q
 Secondary working directories  : /tmp/333988.53.gen4.q
 Wavefunction directory         : /home/vulcan/mel64643/wfu/
 Main file repository           : /tmp/333988.53.gen4.q/

 ARCHNAME  : Linux/x86_64
 FC        : /opt/intel/compilers_and_libraries_2016.1.150/linux/bin/intel64/ifort
 FCVERSION : 16.0.1
 BLASLIB   : -mkl
 id        : ccgc

 Nodes     nprocs
 n066         3
 Number of processes for MPI-2 version of Molpro:   nprocs(total)=    4   nprocs(compute)=    3   nprocs(helper)=    1
 ga_uses_ma=false, calling ma_init with nominal heap.
 GA-space will be limited to   8.0 MW (determined by -G option)

 Using customized tuning parameters: mindgm=10; mindgv=16; mindgc=4; mindgr=1; noblas=0; mincuda=1000; minvec=7
 default implementation of scratch files=sf  

 ***,Optimization of min3
 memory,1000,m
 gthresh,energy=1.0d-10,orbital=1.0d-10,oneint=1.0d-16,twoint=1.0d-16,optgrad=1.0d-6,compress=1.0d-13
 geomtyp=xyz
 
  bohr
  geometry = {
  12
  arbitrary comment
  C         -3.1014674642          1.5862065076          0.0205987073
  C         -0.8634512639         -0.0709128003         -0.6589690713
  C         -1.1180564127         -2.7798073915          0.2466510773
  O          1.3114763795          1.1049398993          0.5889684131
  O          3.4492857579          0.1200790454         -0.2517990451
  H         -4.8056279367          0.8467754810         -0.8770295571
  H         -2.8060089335          3.5242563306         -0.6189688397
  H         -3.3921986362          1.5972766610          2.0581520711
  H         -0.4670203501         -0.0057027987         -2.6439596610
  H         -2.6992569855         -3.6934101523         -0.7187034459
  H         -1.4708685434         -2.8237652609          2.2750011586
  H          0.6063456707         -3.8310220758         -0.1614798451
 }
 
 basis=cc-pvtz
 {rhf;maxit,200}
 {uccsd(t);maxit,200}

 Variables initialized (661), CPU time= 0.01 sec
 Commands  initialized (458), CPU time= 0.00 sec, 486 directives.
 Default parameters read. Elapsed time= 0.07 sec

 Checking input...
 Passed
1


                                         ***  PROGRAM SYSTEM MOLPRO  ***
                         Copyright, University College Cardiff Consultants Limited, 2008

                                    Version 2010.1 linked May 16 2016 07:17:05


 **********************************************************************************************************************************
 LABEL *   Optimization of min3                                                          
 Linux-4.4.3/n066(x86_64) 64 bit mpp version                                             DATE: 15-Jul-20          TIME: 20:00:53  
 **********************************************************************************************************************************

 SHA1:             9e8077add272b0f3cad6f7df79ec5211205f459d
 **********************************************************************************************************************************

 THRESHOLDS:

 ZERO    =  1.00D-12  ONEINT  =  1.00D-16  TWOINT  =  1.00D-16  PREFAC  =  1.00D-14  LOCALI  =  1.00D-09  EORDER  =  1.00D-04
 ENERGY  =  1.00D-10  ETEST   =  0.00D+00  EDENS   =  0.00D+00  THRDEDEF=  1.00D-06  GRADIENT=  1.00D-02  STEP    =  1.00D-03
 ORBITAL =  1.00D-10  CIVEC   =  1.00D-05  COEFF   =  1.00D-04  PRINTCI =  5.00D-02  PUNCHCI =  9.90D+01  OPTGRAD =  1.00D-06
 OPTENERG=  1.00D-06  OPTSTEP =  3.00D-04  THRGRAD =  1.00D-10  COMPRESS=  1.00D-13  VARMIN  =  1.00D-07  VARMAX  =  1.00D-03
 THRDOUB =  0.00D+00  THRDIV  =  1.00D-05  THRRED  =  1.00D-07  THRPSP  =  1.00D+00  THRDC   =  1.00D-10  THRCS   =  1.00D-10
 THRNRM  =  1.00D-08  THREQ   =  0.00D+00  THRDE   =  1.00D+00  THRREF  =  1.00D-05  SPARFAC =  1.00D+00  THRDLP  =  1.00D-07
 THRDIA  =  1.00D-10  THRDLS  =  1.00D-07  THRGPS  =  0.00D+00  THRKEX  =  0.00D+00  THRDIS  =  2.00D-01  THRVAR  =  1.00D-10
 THRLOC  =  1.00D-06  THRGAP  =  1.00D-06  THRLOCT = -1.00D+00  THRGAPT = -1.00D+00  THRORB  =  1.00D-06  THRMLTP =  0.00D+00
 THRCPQCI=  1.00D-10  KEXTA   =  0.00D+00  THRCOARS=  0.00D+00  SYMTOL  =  1.00D-06  GRADTOL =  1.00D-06  THROVL  =  1.00D-08
 THRORTH =  1.00D-08  GRID    =  1.00D-06  GRIDMAX =  1.00D-03  DTMAX   =  0.00D+00

 SETTING GEOMTYP        =    XYZ
 ZUNIT=BOHR
 

 Variable memory set to 1000000000 words,  buffer space   230000 words

 SETTING BASIS          =    CC-PVTZ


 Recomputing integrals since basis changed


 Using spherical harmonics

 Library entry C      S cc-pVTZ              selected for orbital group  1
 Library entry C      P cc-pVTZ              selected for orbital group  1
 Library entry C      D cc-pVTZ              selected for orbital group  1
 Library entry C      F cc-pVTZ              selected for orbital group  1
 Library entry O      S cc-pVTZ              selected for orbital group  2
 Library entry O      P cc-pVTZ              selected for orbital group  2
 Library entry O      D cc-pVTZ              selected for orbital group  2
 Library entry O      F cc-pVTZ              selected for orbital group  2
 Library entry H      S cc-pVTZ              selected for orbital group  3
 Library entry H      P cc-pVTZ              selected for orbital group  3
 Library entry H      D cc-pVTZ              selected for orbital group  3

1PROGRAM * SEWARD (Integral evaluation for generally contracted gaussian basis sets)     Author: Roland Lindh, 1990

 Geometry written to block  1 of record 700


 Point group  C1  



 ATOMIC COORDINATES

 NR  ATOM    CHARGE       X              Y              Z

   1  C       6.00   -3.101467464    1.586206508    0.020598707
   2  C       6.00   -0.863451264   -0.070912800   -0.658969071
   3  C       6.00   -1.118056413   -2.779807391    0.246651077
   4  O       8.00    1.311476379    1.104939899    0.588968413
   5  O       8.00    3.449285758    0.120079045   -0.251799045
   6  H       1.00   -4.805627937    0.846775481   -0.877029557
   7  H       1.00   -2.806008933    3.524256331   -0.618968840
   8  H       1.00   -3.392198636    1.597276661    2.058152071
   9  H       1.00   -0.467020350   -0.005702799   -2.643959661
  10  H       1.00   -2.699256985   -3.693410152   -0.718703446
  11  H       1.00   -1.470868543   -2.823765261    2.275001159
  12  H       1.00    0.606345671   -3.831022076   -0.161479845

 Bond lengths in Bohr (Angstrom)

 1-2  2.866456572  1-6  2.063166901  1-7  2.062129847  1-8  2.058220317  2-3  2.867591593
     ( 1.516863488)     ( 1.091780902)     ( 1.091232117)     ( 1.089163283)     ( 1.517464115)

  2- 4  2.769528442   2- 9  2.025240098   3-10  2.065617247   3-11  2.059274811   3-12  2.060384845
       ( 1.465571331)       ( 1.071710903)       ( 1.093077570)       ( 1.089721297)       ( 1.090308701)

 4-5  2.499413883
     ( 1.322632863)

 Bond angles

  1-2-3  113.69832311   1-2-4  105.12138988   1-2-9  111.50485595   2-1-6  109.54612821

  2- 1- 7  110.97294861   2- 1- 8  110.37053710   2- 3-10  109.76637297   2- 3-11  110.27009993

  2- 3-12  110.18797903   2- 4- 5  110.66002319   3- 2- 4  109.17733708   3- 2- 9  110.93643817

  4-2-9  105.91733424   6-1-7  108.67747030   6-1-8  108.41862921   7-1-8  108.79714167

 10- 3-11  108.64692564  10- 3-12  108.80981145  11- 3-12  109.12373611

 NUCLEAR CHARGE:                   41
 NUMBER OF PRIMITIVE AOS:         354
 NUMBER OF SYMMETRY AOS:          322
 NUMBER OF CONTRACTIONS:          248   ( 248A   )
 NUMBER OF CORE ORBITALS:           5   (   5A   )
 NUMBER OF VALENCE ORBITALS:       27   (  27A   )


 NUCLEAR REPULSION ENERGY  186.71309693


 Eigenvalues of metric

         1 0.807E-03 0.947E-03 0.106E-02 0.123E-02 0.136E-02 0.150E-02 0.159E-02 0.163E-02


 Contracted 2-electron integrals neglected if value below      1.0D-16
 AO integral compression algorithm  1   Integral accuracy      1.0D-16

     3373.531 MB (compressed) written to integral file ( 82.1%)

     Node minimum: 1115.947 MB, node maximum: 1130.103 MB


 NUMBER OF SORTED TWO-ELECTRON INTEGRALS:  158903334.     BUFFER LENGTH:  32768
 NUMBER OF SEGMENTS:  10  SEGMENT LENGTH:   15997437      RECORD LENGTH: 524288

 Memory used in sort:      16.55 MW

 SORT1 READ   513525897. AND WROTE   152632541. INTEGRALS IN    442 RECORDS. CPU TIME:    17.73 SEC, REAL TIME:    19.01 SEC
 SORT2 READ   459394961. AND WROTE   476679126. INTEGRALS IN  12933 RECORDS. CPU TIME:     1.46 SEC, REAL TIME:    12.22 SEC

 Node minimum:   158882750.  Node maximum:   158903334. integrals

 OPERATOR DM      FOR CENTER  0  COORDINATES:    0.000000    0.000000    0.000000


 **********************************************************************************************************************************
 DATASETS  * FILE   NREC   LENGTH (MB)   RECORD NAMES
              1      18        5.04       500      610      700      900      950      970     1000      129      960     1100   
                                          VAR    BASINP    GEOM    SYMINP    ZMAT    AOBASIS   BASIS     P2S    ABASIS      S 
                                         1400     1410     1200     1210     1080     1600     1650     1700   
                                           T        V       H0       H01     AOSYM     SMH    MOLCAS    OPER   

 PROGRAMS   *        TOTAL       INT
 CPU TIMES  *        25.99     25.90
 REAL TIME  *        38.81 SEC
 DISK USED  *         8.83 GB      
 GA USED    *         0.01 MB       (max)       0.00 MB       (current)
 **********************************************************************************************************************************

1PROGRAM * RHF-SCF (OPEN SHELL)       Authors: W. Meyer, H.-J. Werner


 NUMBER OF ELECTRONS:      21+   20-    SPACE SYMMETRY=1    SPIN SYMMETRY: Doublet 
 CONVERGENCE THRESHOLDS:    1.00E-10 (Density)    1.00E-11 (Energy)
 MAX. NUMBER OF ITERATIONS:      200
 INTERPOLATION TYPE:            DIIS
 INTERPOLATION STEPS:              2 (START)      1 (STEP)
 LEVEL SHIFTS:                 -0.30 (CLOSED)  0.00 (OPEN) 



 Orbital guess generated from atomic densities. Full valence occupancy:   32

 Molecular orbital dump at record        2100.2

 ITERATION    DDIFF          GRAD             ENERGY        2-EL.EN.            DIPOLE MOMENTS         DIIS
    1      0.000D+00      0.000D+00      -267.26145506    559.965290   -1.77084   -0.06865   -0.09596    0
    2      0.000D+00      0.326D-02      -267.33475137    562.806854   -1.01605   -0.43080   -0.36137    1
    3      0.471D-02      0.229D-02      -267.36122367    561.762947   -1.18869   -0.24244   -0.21964    2
    4      0.211D-02      0.546D-03      -267.36943668    561.949575   -0.97741   -0.31523   -0.30098    3
    5      0.926D-03      0.483D-03      -267.37362846    561.992306   -0.92236   -0.31724   -0.30566    4
    6      0.580D-03      0.271D-03      -267.37554075    561.960789   -0.88105   -0.31075   -0.30412    5
    7      0.483D-03      0.133D-03      -267.37587917    561.946603   -0.89071   -0.29923   -0.29626    6
    8      0.259D-03      0.355D-04      -267.37590084    561.943936   -0.89044   -0.29589   -0.29478    7
    9      0.845D-04      0.189D-04      -267.37591179    561.944222   -0.89294   -0.29643   -0.29485    8
   10      0.447D-04      0.819D-05      -267.37591360    561.944128   -0.89408   -0.29580   -0.29457    9
   11      0.199D-04      0.321D-05      -267.37591384    561.944048   -0.89472   -0.29564   -0.29440    9
   12      0.782D-05      0.147D-05      -267.37591391    561.944274   -0.89487   -0.29573   -0.29444    9
   13      0.369D-05      0.524D-06      -267.37591391    561.944329   -0.89487   -0.29580   -0.29447    9
   14      0.148D-05      0.297D-06      -267.37591391    561.944325   -0.89487   -0.29581   -0.29448    9
   15      0.804D-06      0.142D-06      -267.37591392    561.944330   -0.89486   -0.29582   -0.29448    9
   16      0.407D-06      0.728D-07      -267.37591392    561.944333   -0.89486   -0.29582   -0.29448    9
   17      0.166D-06      0.334D-07      -267.37591392    561.944327   -0.89485   -0.29582   -0.29448    9
   18      0.112D-06      0.194D-07      -267.37591392    561.944325   -0.89486   -0.29582   -0.29448    9
   19      0.651D-07      0.115D-07      -267.37591392    561.944326   -0.89486   -0.29582   -0.29448    9
   20      0.519D-07      0.815D-08      -267.37591392    561.944325   -0.89486   -0.29582   -0.29448    9
   21      0.551D-07      0.686D-08      -267.37591392    561.944324   -0.89486   -0.29582   -0.29448    9
   22      0.686D-07      0.550D-08      -267.37591392    561.944324   -0.89486   -0.29582   -0.29448    9
   23      0.845D-07      0.365D-08      -267.37591392    561.944324   -0.89486   -0.29582   -0.29448    9
   24      0.780D-07      0.217D-08      -267.37591392    561.944323   -0.89486   -0.29582   -0.29448    9
   25      0.380D-07      0.855D-09      -267.37591392    561.944323   -0.89486   -0.29582   -0.29448    9
   26      0.797D-08      0.383D-09      -267.37591392    561.944323   -0.89486   -0.29582   -0.29448    9
   27      0.437D-08      0.168D-09      -267.37591392    561.944323   -0.89486   -0.29582   -0.29448    9
   28      0.500D-09      0.732D-10      -267.37591392    561.944323   -0.89486   -0.29582   -0.29448    9
   29      0.233D-09      0.352D-10      -267.37591392    561.944323   -0.89486   -0.29582   -0.29448    9
   30      0.126D-09      0.160D-10      -267.37591392    561.944323   -0.89486   -0.29582   -0.29448    9
   31      0.367D-10      0.119D-10      -267.37591392    561.944323   -0.89486   -0.29582   -0.29448    0

 Final alpha occupancy:  21
 Final beta  occupancy:  20

 !RHF STATE 1.1 Energy               -267.375913915434
 Nuclear energy                       186.71309693
 One-electron energy                 -735.06117248
 Two-electron energy                  280.97216164
 Virial quotient                       -1.00105436
 !RHF STATE 1.1 Dipole moment          -0.89485624    -0.29581677    -0.29447754
 Dipole moment /Debye                  -2.27434872    -0.75184198    -0.74843823

 Orbital energies:

         1.1          2.1          3.1          4.1          5.1          6.1          7.1          8.1          9.1         10.1
    -20.648519   -20.640126   -11.295237   -11.228822   -11.225250    -1.523390    -1.170906    -1.034751    -0.952701    -0.822005

        11.1         12.1         13.1         14.1         15.1         16.1         17.1         18.1         19.1         20.1
     -0.696821    -0.667780    -0.652155    -0.595530    -0.562857    -0.558180    -0.544104    -0.501567    -0.491393    -0.465014

        21.1         22.1         23.1
     -0.562635     0.137616     0.175398


 **********************************************************************************************************************************
 DATASETS  * FILE   NREC   LENGTH (MB)   RECORD NAMES
              1      18        5.04       500      610      700      900      950      970     1000      129      960     1100   
                                          VAR    BASINP    GEOM    SYMINP    ZMAT    AOBASIS   BASIS     P2S    ABASIS      S 
                                         1400     1410     1200     1210     1080     1600     1650     1700   
                                           T        V       H0       H01     AOSYM     SMH    MOLCAS    OPER   

              2       3        2.21       700     1000     2100   
                                         GEOM     BASIS     RHF  

 PROGRAMS   *        TOTAL       RHF       INT
 CPU TIMES  *        90.89     64.90     25.90
 REAL TIME  *       108.03 SEC
 DISK USED  *         8.87 GB      
 SF USED    *         0.25 MB      
 GA USED    *         0.01 MB       (max)       0.00 MB       (current)
 **********************************************************************************************************************************


1PROGRAM * CCSD (Unrestricted open-shell coupled cluster)     Authors: C. Hampel, H.-J. Werner, 1991, M. Deegan, P.J. Knowles, 1992


 Convergence thresholds:  THRVAR = 1.00D-08  THRDEN = 1.00D-10

 CCSD(T)     terms to be evaluated (factor= 1.000)


 Number of core orbitals:           5 (   5 )
 Number of closed-shell orbitals:  15 (  15 )
 Number of active  orbitals:        1 (   1 )
 Number of external orbitals:     227 ( 227 )

 Memory could be reduced to 332.02 Mwords without degradation in triples

 Number of N-1 electron functions:              31
 Number of N-2 electron functions:             465
 Number of singly external CSFs:              7068
 Number of doubly external CSFs:          18353430
 Total number of CSFs:                    18360498

 Molecular orbitals read from record     2100.2  Type=RHF/CANONICAL (state 1.1)

 Integral transformation finished. Total CPU:  32.69 sec, npass=  1  Memory used: 145.25 MW

 Starting RMP2 calculation

 ITER.      SQ.NORM     CORR.ENERGY   TOTAL ENERGY   ENERGY CHANGE        DEN1      VAR(S)    VAR(P)  DIIS     TIME
   1      1.26503741    -0.96744447  -268.34335839    -0.96744447    -0.00323032  0.27D-04  0.11D-02  1  1    37.96
   2      1.26781445    -0.97092734  -268.34684125    -0.00348286    -0.00000666  0.10D-05  0.23D-05  2  2    41.38
   3      1.26789423    -0.97098015  -268.34689407    -0.00005281    -0.00000008  0.53D-07  0.11D-07  3  3    45.63
   4      1.26789594    -0.97097996  -268.34689388     0.00000019    -0.00000000  0.16D-08  0.12D-09  4  4    50.41
   5      1.26789620    -0.97098005  -268.34689397    -0.00000009    -0.00000000  0.19D-10  0.45D-11  5  5    54.85
   6      1.26789625    -0.97098008  -268.34689400    -0.00000003    -0.00000000  0.49D-13  0.55D-13  6  6    59.46
   7      1.26789625    -0.97098008  -268.34689400     0.00000000    -0.00000000  0.14D-14  0.85D-15  6  1    64.07
   8      1.26789625    -0.97098008  -268.34689400     0.00000000    -0.00000000  0.15D-16  0.79D-17  6  2    68.82
   9      1.26789625    -0.97098008  -268.34689400    -0.00000000    -0.00000000  0.30D-18  0.10D-18  6  3    73.55

 Norm of t1 vector:      0.04591830      S-energy:    -0.00447042      T1 diagnostic:  0.00074449
 Norm of t2 vector:      0.51554608      P-energy:    -0.96650966
                                         Alpha-Beta:  -0.73693758
                                         Alpha-Alpha: -0.11896975
                                         Beta-Beta:   -0.11060233

 Spin contamination <S**2-Sz**2-Sz>     0.00145739
  Reference energy                   -267.375913915428
  RHF-RMP2 correlation energy          -0.970980082765
 !RHF-RMP2 energy                    -268.346893998192

 Starting UCCSD calculation

 ITER.      SQ.NORM     CORR.ENERGY   TOTAL ENERGY   ENERGY CHANGE        DEN1      VAR(S)    VAR(P)  DIIS     TIME
   1      1.27948192    -0.97914532  -268.35505924    -0.97914532    -0.02929228  0.65D-02  0.54D-02  1  1   187.44
   2      1.30581993    -1.00573049  -268.38164441    -0.02658517    -0.00362891  0.62D-03  0.96D-03  2  2   297.99
   3      1.32243200    -1.01253530  -268.38844922    -0.00680481    -0.00091192  0.75D-03  0.76D-04  3  3   406.41
   4      1.33366963    -1.01519204  -268.39110596    -0.00265674    -0.00038508  0.31D-03  0.33D-04  4  4   513.43
   5      1.34874529    -1.01718919  -268.39310310    -0.00199714    -0.00011771  0.10D-03  0.90D-05  5  5   608.34
   6      1.36024650    -1.01821018  -268.39412410    -0.00102100    -0.00001811  0.93D-05  0.32D-05  6  6   708.52
   7      1.36393135    -1.01845068  -268.39436459    -0.00024050    -0.00000316  0.16D-05  0.61D-06  6  1   790.78
   8      1.36453278    -1.01849276  -268.39440668    -0.00004209    -0.00000067  0.26D-06  0.15D-06  6  2   872.94
   9      1.36485177    -1.01851122  -268.39442513    -0.00001845    -0.00000015  0.64D-07  0.32D-07  6  4   955.03
  10      1.36483773    -1.01850990  -268.39442381     0.00000132    -0.00000002  0.10D-07  0.42D-08  6  3  1037.64
  11      1.36489921    -1.01851490  -268.39442882    -0.00000501    -0.00000000  0.22D-08  0.93D-09  6  5  1120.59
  12      1.36489181    -1.01851244  -268.39442635     0.00000246    -0.00000000  0.84D-09  0.20D-09  6  6  1203.82
  13      1.36488753    -1.01851131  -268.39442523     0.00000112    -0.00000000  0.46D-09  0.49D-10  6  1  1286.50
  14      1.36487545    -1.01850989  -268.39442380     0.00000142    -0.00000000  0.28D-09  0.16D-10  6  3  1369.09
  15      1.36487019    -1.01850927  -268.39442318     0.00000062    -0.00000000  0.22D-09  0.11D-10  6  2  1450.87
  16      1.36486737    -1.01850909  -268.39442301     0.00000017    -0.00000000  0.17D-09  0.85D-11  6  4  1532.82
  17      1.36486621    -1.01850905  -268.39442297     0.00000004    -0.00000000  0.10D-09  0.85D-11  6  5  1614.61
  18      1.36486749    -1.01850912  -268.39442304    -0.00000007    -0.00000000  0.27D-10  0.44D-11  6  6  1696.39
  19      1.36487034    -1.01850942  -268.39442334    -0.00000030    -0.00000000  0.25D-11  0.16D-11  6  3  1779.04
  20      1.36486997    -1.01850930  -268.39442322     0.00000012    -0.00000000  0.51D-12  0.16D-12  6  1  1861.40
  21      1.36487037    -1.01850935  -268.39442327    -0.00000005    -0.00000000  0.14D-12  0.51D-13  6  4  1943.45
  22      1.36487033    -1.01850934  -268.39442326     0.00000001    -0.00000000  0.51D-13  0.14D-13  6  3  2026.35
  23      1.36487043    -1.01850935  -268.39442327    -0.00000001    -0.00000000  0.16D-13  0.30D-14  6  2  2109.37
  24      1.36487038    -1.01850935  -268.39442326     0.00000001    -0.00000000  0.19D-14  0.66D-15  6  5  2192.45
  25      1.36487037    -1.01850935  -268.39442326     0.00000000    -0.00000000  0.64D-15  0.17D-15  6  6  2314.37
  26      1.36487036    -1.01850935  -268.39442326     0.00000000    -0.00000000  0.39D-15  0.62D-16  6  1  2438.30
  27      1.36487036    -1.01850935  -268.39442326    -0.00000000    -0.00000000  0.26D-15  0.19D-16  6  4  2562.29
  28      1.36487036    -1.01850935  -268.39442326    -0.00000000    -0.00000000  0.20D-15  0.10D-16  6  3  2686.41
  29      1.36487036    -1.01850935  -268.39442326    -0.00000000    -0.00000000  0.14D-15  0.78D-17  6  2  2810.36
  30      1.36487036    -1.01850935  -268.39442326     0.00000000    -0.00000000  0.74D-16  0.72D-17  6  5  2934.26
  31      1.36487036    -1.01850935  -268.39442326     0.00000000    -0.00000000  0.25D-16  0.34D-17  6  6  3058.84
  32      1.36487036    -1.01850935  -268.39442326     0.00000000    -0.00000000  0.10D-16  0.21D-17  6  1  3182.83
  33      1.36487036    -1.01850935  -268.39442326     0.00000000    -0.00000000  0.53D-17  0.74D-18  6  4  3306.76

 Norm of t1 vector:      0.23114734      S-energy:    -0.00501729      T1 diagnostic:  0.02848259
                                                                       D1 diagnostic:  0.14596757
 Norm of t2 vector:      0.55806923      P-energy:    -1.01349206
                                         Alpha-Beta:  -0.80117726
                                         Alpha-Alpha: -0.10868334
                                         Beta-Beta:   -0.10363146

 Singles amplitudes (print threshold =  0.500E-01):

         I         SYM. A    A   T(IA) [Beta-Beta]

         8         1         1     -0.09604225
         9         1         1      0.10002699
        11         1         1     -0.05313112
        12         1         1     -0.07412384
        14         1         1     -0.11273642

 Spin contamination <S**2-Sz**2-Sz>     0.00175996

 Memory could be reduced to 360.52 Mwords without degradation in triples
 

 RESULTS
 =======

  Reference energy                   -267.375913915428
  UCCSD singles energy                 -0.005017285606
  UCCSD pair energy                    -1.013492059757
  UCCSD correlation energy             -1.018509345363
  Triples (T) contribution             -0.040786318960
  Total correlation energy             -1.059295664323
 
  RHF-UCCSD energy                   -268.394423260791
  RHF-UCCSD[T] energy                -268.438526785013
  RHF-UCCSD-T energy                 -268.434713732633
 !RHF-UCCSD(T) energy                -268.435209579751

 Program statistics:

 Available memory in ccsd:               999997692
 Min. memory needed in ccsd:              51505734
 Max. memory used in ccsd:                74803578
 Max. memory used in cckext:              59475747 (33 integral passes)
 Max. memory used in cckint:             145249478 ( 1 integral passes)



 **********************************************************************************************************************************
 DATASETS  * FILE   NREC   LENGTH (MB)   RECORD NAMES
              1      18        5.04       500      610      700      900      950      970     1000      129      960     1100   
                                          VAR    BASINP    GEOM    SYMINP    ZMAT    AOBASIS   BASIS     P2S    ABASIS      S 
                                         1400     1410     1200     1210     1080     1600     1650     1700   
                                           T        V       H0       H01     AOSYM     SMH    MOLCAS    OPER   

              2       3        2.21       700     1000     2100   
                                         GEOM     BASIS     RHF  

 PROGRAMS   *        TOTAL  UCCSD(T)       RHF       INT
 CPU TIMES  *      5750.81   5659.92     64.90     25.90
 REAL TIME  *      5877.36 SEC
 DISK USED  *        15.85 GB      
 SF USED    *         6.57 GB      
 GA USED    *         0.01 MB       (max)       0.00 MB       (current)
 **********************************************************************************************************************************

        UCCSD(T)        RHF-SCF 
   -268.43520958   -267.37591392
 **********************************************************************************************************************************
 Variable memory released
