
 Working directory              : /scratch/mel64643/tmp/40073401/
 Global scratch directory       : /scratch/mel64643/tmp/40073401/
 Wavefunction directory         : /home/mel64643/wfu/
 Main file repository           : /scratch/mel64643/tmp/40073401/

 id        : ccgc

 Nodes     nprocs
 a1-8         3
 Distribution of processes:   nprocs(total)=    4   nprocs(compute)=    3   nprocs(helper)=    1
 GA implementation: MPI file
 GA implementation (serial work in mppx): MPI file

 Using customized tuning parameters: mindgm=1; mindgv=20; mindgc=4; mindgr=1; noblas=0; minvec=7
 default implementation of scratch files=sf  


 Variables initialized (1015), CPU time= 0.00 sec
 ***,Optimization of min3
 memory,1000,m
 gthresh,energy=1.0d-12,orbital=1.0d-10,oneint=1.0d-16,twoint=1.0d-16,optgrad=1.0d-6,compress=1.0d-13
 geomtyp=xyz
 
  bohr
  geometry = {
  6
  arbitrary comment
  C   -1.3752488703   -0.0215758506   -0.0028086089
  O    1.3071636825    0.1208238507   -0.0003901997
  H   -2.0757400511    1.8976955778   -0.0090637133
  H   -2.1123280904   -0.9839092576    1.6966970290
  H   -2.1084735880   -0.9670047017   -1.6837510529
  H    1.9409027572   -1.5761617385   -0.0006918641
 }
 
 basis=cc-pvdz
 {rhf;maxit,200}
 {ccsd(t);maxit,200}
 Commands initialized (818), CPU time= 0.00 sec, 672 directives.
 Default parameters read. Elapsed time= 0.10 sec

 Checking input...
 Passed
1


                                         ***  PROGRAM SYSTEM MOLPRO  ***
                                       Copyright, TTI GmbH Stuttgart, 2015
                                    Version 2022.1 linked Mar  4 2022 00:40:14


 **********************************************************************************************************************************
 LABEL *   Optimization of min3                                                          
  64 bit mpp version                                                                     DATE: 07-Aug-25          TIME: 21:26:55  
 **********************************************************************************************************************************

 SHA1:             31073afc4d8441e10870424e0d77336a33bc4286
 **********************************************************************************************************************************

 Memory per process:      1000 MW
 Total memory per node:   3000 MW

 GA preallocation disabled
 GA check disabled

 Variable memory set to 1000.0 MW


 THRESHOLDS:

 ZERO    =  1.00D-12  ONEINT  =  1.00D-16  TWOINT  =  1.00D-16  PREFAC  =  1.00D-14  XXXXXX  =  1.00D-09  EORDER  =  1.00D-04
 ENERGY  =  1.00D-12  ETEST   =  0.00D+00  EDENS   =  0.00D+00  THRDEDEF=  1.00D-06  GRADIENT=  1.00D-05  STEP    =  1.00D-03
 ORBITAL =  1.00D-10  CIVEC   =  1.00D-05  COEFF   =  1.00D-04  PRINTCI =  5.00D-02  PUNCHCI =  9.90D+01  OPTGRAD =  1.00D-06
 OPTENERG=  1.00D-06  OPTSTEP =  3.00D-04  THRGRAD =  1.00D-10  COMPRESS=  1.00D-13  VARMIN  =  1.00D-07  VARMAX  =  1.00D-03
 THRDOUB =  0.00D+00  THRDIV  =  1.00D-05  THRRED  =  1.00D-07  THRPSP  =  1.00D+00  THRDC   =  1.00D-10  THRCS   =  1.00D-10
 THRNRM  =  1.00D-08  THREQ   =  0.00D+00  THRDE   =  1.00D+00  THRREF  =  1.00D-05  SPARFAC =  1.00D+00  THRDLP  =  1.00D-07
 THRDIA  =  1.00D-10  THRDLS  =  1.00D-07  THRGPS  =  0.00D+00  THRKEX  =  0.00D+00  THRDIS  =  2.00D-01  THRVAR  =  1.00D-10
 THRLOC  =  1.00D-06  THRGAP  =  1.00D-06  THRLOCT = -1.00D+00  THRGAPT = -1.00D+00  THRORB  =  1.00D-06  THRMLTP =  0.00D+00
 THRCPQCI=  1.00D-10  KEXTA   =  0.00D+00  THRCOARS=  0.00D+00  SYMTOL  =  1.00D-06  GRADTOL =  1.00D-06  THROVL  =  1.00D-08
 THRORTH =  1.00D-08  THRDLOVL= -1.00D+00  GRID    =  1.00D-06  GRIDMAX =  1.00D-03  DTMAX   =  0.00D+00  THROCCDE=  1.00D-01
 THROCCDE=  1.00D-01  THRPRINT=  2.50D-01

 SETTING GEOMTYP        =    XYZ
 ZUNIT=BOHR

 SETTING BASIS          =    CC-PVDZ


 Recomputing integrals since basis changed


 Using spherical harmonics

 Library entry C      S cc-pVDZ              selected for orbital group  1
 Library entry C      P cc-pVDZ              selected for orbital group  1
 Library entry C      D cc-pVDZ              selected for orbital group  1
 Library entry O      S cc-pVDZ              selected for orbital group  2
 Library entry O      P cc-pVDZ              selected for orbital group  2
 Library entry O      D cc-pVDZ              selected for orbital group  2
 Library entry H      S cc-pVDZ              selected for orbital group  3
 Library entry H      P cc-pVDZ              selected for orbital group  3


 PROGRAM * SEWARD (Integral evaluation for generally contracted gaussian basis sets)     Author: Roland Lindh, 1990

 Geometry written to block  1 of record 700


 Point group  C1  



 ATOMIC COORDINATES

 NR  ATOM    CHARGE       X              Y              Z

   1  C       6.00   -1.375248870   -0.021575851   -0.002808609
   2  O       8.00    1.307163682    0.120823851   -0.000390200
   3  H       1.00   -2.075740051    1.897695578   -0.009063713
   4  H       1.00   -2.112328090   -0.983909258    1.696697029
   5  H       1.00   -2.108473588   -0.967004702   -1.683751053
   6  H       1.00    1.940902757   -1.576161738   -0.000691864

 Bond lengths in Bohr (Angstrom)

 1-2  2.686190728  1-3  2.043117676  1-4  2.087508270  1-5  2.063255122  2-6  1.811459466
     ( 1.421470917)     ( 1.081171313)     ( 1.104661804)     ( 1.091827591)     ( 0.958583068)

 Bond angles

  1-2-6  107.43934799   2-1-3  107.01225232   2-1-4  112.10462572   2-1-5  112.32733918

  3-1-4  108.32980724   3-1-5  107.82501687   4-1-5  109.06003626

 NUCLEAR CHARGE:                   18
 NUMBER OF PRIMITIVE AOS:          82
 NUMBER OF SYMMETRY AOS:           80
 NUMBER OF CONTRACTIONS:           48   (   48A   )
 NUMBER OF INNER CORE ORBITALS:     0   (    0A   )
 NUMBER OF OUTER CORE ORBITALS:     2   (    2A   )
 NUMBER OF VALENCE ORBITALS:       12   (   12A   )


 NUCLEAR REPULSION ENERGY   40.30487637

 Eigenvalues of metric

         1 0.966E-02 0.176E-01 0.363E-01 0.378E-01 0.381E-01 0.472E-01 0.485E-01 0.511E-01


 Contracted 2-electron integrals neglected if value below      1.0D-16
 AO integral compression algorithm  1   Integral accuracy      1.0D-16

     7.340 MB (compressed) written to integral file (100.0%)

     Node minimum: 2.359 MB, node maximum: 2.621 MB


 NUMBER OF SORTED TWO-ELECTRON INTEGRALS:     231084.     BUFFER LENGTH:  32768
 NUMBER OF SEGMENTS:   1  SEGMENT LENGTH:     231084      RECORD LENGTH: 524288

 Memory used in sort:       0.79 MW

 SORT1 READ      832256. AND WROTE      227683. INTEGRALS IN      1 RECORDS. CPU TIME:     0.01 SEC, REAL TIME:     0.03 SEC
 SORT2 READ      682150. AND WROTE      692076. INTEGRALS IN     27 RECORDS. CPU TIME:     0.01 SEC, REAL TIME:     0.02 SEC

 Node minimum:      230300.  Node maximum:      231084. integrals

 OPERATOR DM      FOR CENTER  0  COORDINATES:    0.000000    0.000000    0.000000


 **********************************************************************************************************************************
 DATASETS  * FILE   NREC   LENGTH (MB)   RECORD NAMES
              1      18       28.73       500      610      700      900      950      970     1000      129      960     1100   
                                          VAR    BASINP    GEOM    SYMINP    ZMAT    AOBASIS   BASIS     P2S    ABASIS      S 
                                         1400     1410     1200     1210     1080     1600     1650     1700   
                                           T        V       H0       H01     AOSYM     SMH    MOLCAS    OPER   

 PROGRAMS   *        TOTAL       INT
 CPU TIMES  *         0.42      0.29
 REAL TIME  *         1.04 SEC
 DISK USED  *        29.07 MB (local),      104.69 MB (total)
 GA USED    *         0.00 MB       (max)       0.00 MB       (current)
 **********************************************************************************************************************************


 Program * Restricted Hartree-Fock

 Orbital guess generated from atomic densities. Full valence occupancy:   14

 Initial occupancy:   9

 NELEC=   18   SYM=1   MS2= 0   THRE=1.0D-12   THRD=1.0D-10   THRG=1.0D-10  HFMA2=F  DIIS_START=2   DIIS_MAX=10   DIIS_INCORE=F

 Level shifts:    0.00 (CLOSED)    0.00 (OPEN)    0.30 (GAP_MIN)

 ITER           ETOT              DE          GRAD        DDIFF     DIIS  NEXP   TIME(IT)  TIME(TOT)  DIAG
   1     -115.01411682    -115.01411682     0.00D+00     0.16D+00     0     0       0.01      0.01    start
   2     -115.04248505      -0.02836823     0.10D-01     0.21D-01     1     0       0.00      0.01    diag
   3     -115.04851615      -0.00603110     0.48D-02     0.64D-02     2     0       0.00      0.01    diag
   4     -115.04897912      -0.00046296     0.10D-02     0.20D-02     3     0       0.00      0.01    diag
   5     -115.04900003      -0.00002092     0.18D-03     0.43D-03     4     0       0.00      0.01    diag
   6     -115.04900082      -0.00000078     0.32D-04     0.93D-04     5     0       0.02      0.03    diag
   7     -115.04900085      -0.00000003     0.67D-05     0.15D-04     6     0       0.00      0.03    diag
   8     -115.04900085      -0.00000000     0.22D-05     0.50D-05     7     0       0.00      0.03    fixocc
   9     -115.04900085      -0.00000000     0.44D-06     0.14D-05     8     0       0.00      0.03    diag
  10     -115.04900085      -0.00000000     0.71D-07     0.23D-06     9     0       0.01      0.04    diag/orth
  11     -115.04900085       0.00000000     0.17D-07     0.46D-07     9     0       0.00      0.04    diag
  12     -115.04900085      -0.00000000     0.43D-08     0.14D-07     9     0       0.00      0.04    diag
  13     -115.04900085       0.00000000     0.70D-09     0.20D-08     9     0       0.00      0.04    diag
  14     -115.04900085       0.00000000     0.16D-09     0.42D-09     9     0       0.00      0.04    diag
  15     -115.04900085       0.00000000     0.68D-10     0.13D-09     9     0       0.00      0.04    diag
  16     -115.04900085       0.00000000     0.20D-10     0.47D-10     9     0       0.01      0.05    diag
  17     -115.04900085      -0.00000000     0.52D-11     0.85D-11     0     0       0.00      0.05    diag

 Final occupancy:   9

 !RHF STATE 1.1 Energy               -115.049000850267
  RHF One-electron energy            -236.872048650294
  RHF Two-electron energy              81.518171430798
  RHF Kinetic energy                  114.944127156642
  RHF Nuclear energy                   40.304876369229
  RHF Virial quotient                  -1.000912388447

 !RHF STATE 1.1 Dipole moment          -0.39454476    -0.59040654    -0.00586609
 Dipole moment /Debye                  -1.00283275    -1.50066375    -0.01491011

 Orbital energies:

           1.1          2.1          3.1          4.1          5.1          6.1          7.1          8.1          9.1         10.1
    -20.549865   -11.274733    -1.349837    -0.921673    -0.682334    -0.613141    -0.586019    -0.497299    -0.442952     0.184643

          11.1
      0.224495


 HOMO      9.1    -0.442952 =     -12.0533eV
 LUMO     10.1     0.184643 =       5.0244eV
 LUMO-HOMO         0.627594 =      17.0777eV

 Orbitals saved in record  2100.2


 **********************************************************************************************************************************
 DATASETS  * FILE   NREC   LENGTH (MB)   RECORD NAMES
              1      18       28.73       500      610      700      900      950      970     1000      129      960     1100   
                                          VAR    BASINP    GEOM    SYMINP    ZMAT    AOBASIS   BASIS     P2S    ABASIS      S 
                                         1400     1410     1200     1210     1080     1600     1650     1700   
                                           T        V       H0       H01     AOSYM     SMH    MOLCAS    OPER   

              2       4        0.47       700     1000      520     2100   
                                         GEOM     BASIS   MCVARS     RHF  

 PROGRAMS   *        TOTAL   RHF-SCF       INT
 CPU TIMES  *         0.47      0.05      0.29
 REAL TIME  *         1.25 SEC
 DISK USED  *        29.40 MB (local),      105.68 MB (total)
 GA USED    *         0.00 MB       (max)       0.00 MB       (current)
 **********************************************************************************************************************************


 PROGRAM * CCSD (Closed-shell coupled cluster)     Authors: C. Hampel, H.-J. Werner, 1991, M. Deegan, P.J. Knowles, 1992


 Convergence thresholds:  THRVAR = 1.00D-08  THRDEN = 1.00D-12

 CCSD(T)     terms to be evaluated (factor= 1.000)


 Number of core orbitals:           2 (   2 )
 Number of closed-shell orbitals:   7 (   7 )
 Number of external orbitals:      39 (  39 )

 Molecular orbitals read from record     2100.2  Type=RHF/CANONICAL  

 Number of N-1 electron functions:               7
 Number of N-2 electron functions:              28
 Number of singly external CSFs:               273
 Number of doubly external CSFs:             37401
 Total number of CSFs:                       37675

 Length of J-op  integral file:               0.00 MB
 Length of K-op  integral file:               0.16 MB
 Length of 3-ext integral record:             0.00 MB

 Memory could be reduced to 0.73 Mwords without degradation in triples

 Integral transformation finished. Total CPU:   0.02 sec, npass=  1  Memory used:   0.66 MW

 Reference energy:                   -115.04900085

 MP2 singlet pair energy:              -0.21862794
 MP2 triplet pair energy:              -0.11982653
 MP2 correlation energy:               -0.33845447
 MP2 total energy:                   -115.38745532

 SCS-MP2 correlation energy:           -0.33691226   (PS=  1.200000  PT=  0.333333)
 SCS-MP2 total energy:               -115.38591311

 ITER.      SQ.NORM     CORR.ENERGY   TOTAL ENERGY   ENERGY CHANGE        DEN1      VAR(S)    VAR(P)  DIIS     TIME  TIME/IT
   1      1.10731966    -0.36125424  -115.41025509    -0.02279977    -0.01411885  0.91D-03  0.17D-02  1  1     0.05     0.04
   2      1.11584574    -0.36319864  -115.41219949    -0.00194440    -0.00924972  0.20D-04  0.16D-03  2  2     0.07     0.03
   3      1.11772816    -0.36332601  -115.41232686    -0.00012738    -0.00120428  0.95D-05  0.86D-05  3  3     0.09     0.03
   4      1.11824416    -0.36332456  -115.41232541     0.00000146    -0.00025532  0.34D-06  0.68D-06  4  4     0.11     0.03
   5      1.11834270    -0.36332494  -115.41232579    -0.00000039    -0.00003619  0.10D-06  0.49D-07  5  5     0.13     0.03
   6      1.11836191    -0.36332358  -115.41232443     0.00000136    -0.00000440  0.16D-07  0.41D-08  6  6     0.14     0.03
   7      1.11836669    -0.36332316  -115.41232401     0.00000042    -0.00000035  0.20D-08  0.73D-09  6  1     0.16     0.03
   8      1.11836797    -0.36332326  -115.41232411    -0.00000010     0.00000075  0.26D-09  0.73D-10  6  3     0.18     0.04
   9      1.11836904    -0.36332314  -115.41232399     0.00000012    -0.00000038  0.13D-10  0.10D-10  6  2     0.20     0.04
  10      1.11836896    -0.36332314  -115.41232399    -0.00000000     0.00000007  0.11D-11  0.88D-12  6  5     0.22     0.04
  11      1.11836899    -0.36332314  -115.41232399     0.00000000    -0.00000000  0.20D-12  0.51D-13  6  4     0.24     0.04
  12      1.11836898    -0.36332314  -115.41232399    -0.00000000     0.00000001  0.20D-13  0.10D-13  6  1     0.25     0.04
  13      1.11836898    -0.36332314  -115.41232399    -0.00000000    -0.00000000  0.27D-14  0.99D-15  6  6     0.28     0.03
  14      1.11836898    -0.36332314  -115.41232399     0.00000000    -0.00000000  0.31D-15  0.14D-15  6  3     0.30     0.03
  15      1.11836898    -0.36332314  -115.41232399    -0.00000000    -0.00000000  0.50D-16  0.20D-16  6  2     0.32     0.03
  16      1.11836898    -0.36332314  -115.41232399    -0.00000000    -0.00000000  0.73D-17  0.19D-17  6  4     0.34     0.03
  17      1.11836898    -0.36332314  -115.41232399    -0.00000000    -0.00000000  0.16D-17  0.26D-18  6  5     0.35     0.03
  18      1.11836898    -0.36332314  -115.41232399     0.00000000    -0.00000000  0.43D-18  0.90D-19  6  1     0.38     0.03
  19      1.11836898    -0.36332314  -115.41232399     0.00000000    -0.00000000  0.41D-19  0.10D-19  6  6     0.39     0.03
  20      1.11836898    -0.36332314  -115.41232399     0.00000000     0.00000000  0.32D-20  0.16D-20  6  3     0.41     0.03

 Norm of t1 vector:      0.04169989      S-energy:    -0.00000000      T1 diagnostic:  0.00788054
                                                                       D1 diagnostic:  0.01752226
                                                                       D2 diagnostic:  0.13415725 (internal)


 Total CPU time for triples:      0.09 sec


 RESULTS
 =======

  Reference energy                   -115.049000850267
  CCSD singlet pair energy             -0.254577271853
  CCSD triplet pair energy             -0.108745868711
  CCSD correlation energy              -0.363323140564

  Triples (T) contribution             -0.007738575869
  Total correlation energy             -0.371061716433

  CCSD total energy                  -115.412323990831
  CCSD[T] energy                     -115.420352926762
  CCSD-T energy                      -115.419912431492
 !CCSD(T) total energy               -115.420062566700

 Timing summary (sec):

 STEP                 CPU(USER)    SYS     CPU(TOT)    WALL
 Transformation          0.02      0.01      0.03      0.05
 CCSD iterations         0.39      0.07      0.46      0.69
 Triples                 0.09      0.00      0.09      0.09

 Program statistics:

 Available memory in ccsd:               999999795
 Min. memory needed in ccsd:                136177
 Max. memory used in ccsd:                  162910
 Max. memory used in cckext:                178997 (20 integral passes)



 **********************************************************************************************************************************
 DATASETS  * FILE   NREC   LENGTH (MB)   RECORD NAMES
              1      19       31.13       500      610      700      900      950      970     1000      129      960     1100   
                                          VAR    BASINP    GEOM    SYMINP    ZMAT    AOBASIS   BASIS     P2S    ABASIS      S 
                                         1400     1410     1200     1210     1080     1600     1650     1700     1380   
                                           T        V       H0       H01     AOSYM     SMH    MOLCAS    OPER     JKOP   

              2       4        0.47       700     1000      520     2100   
                                         GEOM     BASIS   MCVARS     RHF  

 PROGRAMS   *        TOTAL   CCSD(T)   RHF-SCF       INT
 CPU TIMES  *         1.01      0.54      0.05      0.29
 REAL TIME  *         2.14 SEC
 DISK USED  *        35.56 MB (local),      116.33 MB (total)
 SF USED    *         5.97 MB
 GA USED    *         0.00 MB       (max)       0.00 MB       (current)
 **********************************************************************************************************************************

 CCSD(T)/cc-pVDZ energy=   -115.420062566700

         CCSD(T)         RHF-SCF
   -115.42006257   -115.04900085
 **********************************************************************************************************************************
 Molpro calculation terminated
