
    -----------------------------------------------------------------------
          Psi4: An Open-Source Ab Initio Electronic Structure Package
                               Psi4 1.4a2.dev629 

                         Git: Rev {master} 2938fc2 dirty


    D. G. A. Smith, L. A. Burns, A. C. Simmonett, R. M. Parrish,
    M. C. Schieber, R. Galvelis, P. Kraus, H. Kruse, R. Di Remigio,
    A. Alenaizan, A. M. James, S. Lehtola, J. P. Misiewicz, M. Scheurer,
    R. A. Shaw, J. B. Schriber, Y. Xie, Z. L. Glick, D. A. Sirianni,
    J. S. O'Brien, J. M. Waldrop, A. Kumar, E. G. Hohenstein,
    B. P. Pritchard, B. R. Brooks, H. F. Schaefer III, A. Yu. Sokolov,
    K. Patkowski, A. E. DePrince III, U. Bozkaya, R. A. King,
    F. A. Evangelista, J. M. Turney, T. D. Crawford, C. D. Sherrill,
    J. Chem. Phys. 152(18) 184108 (2020). https://doi.org/10.1063/5.0006002

                            Additional Code Authors
    E. T. Seidl, C. L. Janssen, E. F. Valeev, M. L. Leininger,
    J. F. Gonthier, R. M. Richard, H. R. McAlexander, M. Saitow, X. Wang,
    P. Verma, and M. H. Lechner

             Previous Authors, Complete List of Code Contributors,
                       and Citations for Specific Modules
    https://github.com/psi4/psi4/blob/master/codemeta.json
    https://github.com/psi4/psi4/graphs/contributors
    http://psicode.org/psi4manual/master/introduction.html#citing-psifour

    -----------------------------------------------------------------------


    Psi4 started on: Monday, 07 September 2020 11:57AM

    Process ID: 3365
    Host:       n045
    PSIDATADIR: /opt/psi/4/master/share/psi4
    Memory:     500.0 MiB
    Threads:    1
    
  ==> Input File <==

--------------------------------------------------------------------------
# o-Benzyne preliminary computations

memory 14 gb

molecule {
  0 1
  H          0.0000000000         -1.4139187661          0.9849882199  
  O          0.0000000000         -0.0012286799         -0.1250910748  
  H          0.0000000000          1.4334188070          1.0002979612  
  units bohr
}

set {
  basis=cc-pVTZ
  reference rhf
  e_convergence 10 
  d_convergence 10
  r_convergence 8
  maxiter 300
}

energy('ccsd(t)')
--------------------------------------------------------------------------

  Memory set to  13.039 GiB by Python driver.

Scratch directory: /tmp/

*** tstart() called on n045
*** at Mon Sep  7 11:57:52 2020

   => Loading Basis Set <=

    Name: CC-PVTZ
    Role: ORBITAL
    Keyword: BASIS
    atoms 1, 3 entry H          line    23 file /opt/psi/4/master/share/psi4/basis/cc-pvtz.gbs 
    atoms 2    entry O          line   262 file /opt/psi/4/master/share/psi4/basis/cc-pvtz.gbs 


         ---------------------------------------------------------
                                   SCF
               by Justin Turney, Rob Parrish, Andy Simmonett
                          and Daniel G. A. Smith
                              RHF Reference
                        1 Threads,  13351 MiB Core
         ---------------------------------------------------------

  ==> Geometry <==

    Molecular point group: cs
    Full point group: Cs

    Geometry (in Bohr), charge = 0, multiplicity = 1:

       Center              X                  Y                   Z               Mass       
    ------------   -----------------  -----------------  -----------------  -----------------
         H            1.413918766059    -0.984988217215     0.000000000000     1.007825032230
         O            0.001228679859     0.125091077485     0.000000000000    15.994914619570
         H           -1.433418807041    -1.000297958515     0.000000000000     1.007825032230

  Running in cs symmetry.

  Rotational constants: A =     26.92943  B =     14.73083  C =      9.52209 [cm^-1]
  Rotational constants: A = 807323.95094  B = 441619.31075  C = 285465.20703 [MHz]
  Nuclear repulsion =    9.191375941725994

  Charge       = 0
  Multiplicity = 1
  Electrons    = 10
  Nalpha       = 5
  Nbeta        = 5

  ==> Algorithm <==

  SCF Algorithm Type is PK.
  DIIS enabled.
  MOM disabled.
  Fractional occupation disabled.
  Guess Type is SAD.
  Energy threshold   = 1.00e-10
  Density threshold  = 1.00e-10
  Integral threshold = 0.00e+00

  ==> Primary Basis <==

  Basis Set: CC-PVTZ
    Blend: CC-PVTZ
    Number of shells: 22
    Number of basis function: 58
    Number of Cartesian functions: 65
    Spherical Harmonics?: true
    Max angular momentum: 3

  ==> Integral Setup <==

  Using in-core PK algorithm.
   Calculation information:
      Number of atoms:                   3
      Number of AO shells:              22
      Number of primitives:             42
      Number of atomic orbitals:        65
      Number of basis functions:        58

      Integral cutoff                 1.00e-12
      Number of threads:                 1

  Performing in-core PK
  Using 2929232 doubles for integral storage.
  We computed 32131 shell quartets total.
  Whereas there are 32131 unique shell quartets.

  ==> DiskJK: Disk-Based J/K Matrices <==

    J tasked:                  Yes
    K tasked:                  Yes
    wK tasked:                  No
    Memory [MiB]:            10013
    Schwarz Cutoff:          1E-12

    OpenMP threads:              1

  Minimum eigenvalue in the overlap matrix is 2.5054742310E-03.
  Reciprocal condition number of the overlap matrix is 4.8942371224E-04.
    Using symmetric orthogonalization.

  ==> Pre-Iterations <==

  SCF Guess: Superposition of Atomic Densities via on-the-fly atomic UHF (no occupation information).

   -------------------------
    Irrep   Nso     Nmo    
   -------------------------
     A'        40      40 
     A"        18      18 
   -------------------------
    Total      58      58
   -------------------------

  ==> Iterations <==

                        Total Energy        Delta E     RMS |[F,P]|

   @RHF iter SAD:   -75.50158407867350   -7.55016e+01   0.00000e+00 
   @RHF iter   1:   -75.97847937315285   -4.76895e-01   1.02981e-02 DIIS
   @RHF iter   2:   -76.03109191910335   -5.26125e-02   6.64760e-03 DIIS
   @RHF iter   3:   -76.05655926284992   -2.54673e-02   4.96248e-04 DIIS
   @RHF iter   4:   -76.05694727751576   -3.88015e-04   1.21110e-04 DIIS
   @RHF iter   5:   -76.05697173441841   -2.44569e-05   2.51085e-05 DIIS
   @RHF iter   6:   -76.05697328076261   -1.54634e-06   4.86186e-06 DIIS
   @RHF iter   7:   -76.05697333998299   -5.92204e-08   7.74794e-07 DIIS
   @RHF iter   8:   -76.05697334121456   -1.23157e-09   1.18490e-07 DIIS
   @RHF iter   9:   -76.05697334124402   -2.94591e-11   3.31445e-08 DIIS
   @RHF iter  10:   -76.05697334124646   -2.44427e-12   4.35722e-09 DIIS
   @RHF iter  11:   -76.05697334124645    1.42109e-14   6.82278e-10 DIIS
   @RHF iter  12:   -76.05697334124652   -7.10543e-14   1.57348e-10 DIIS
   @RHF iter  13:   -76.05697334124645    7.10543e-14   3.38837e-11 DIIS
  Energy and wave function converged.


  ==> Post-Iterations <==

    Orbital Energies [Eh]
    ---------------------

    Doubly Occupied:                                                      

       1Ap   -20.555217     2Ap    -1.346010     3Ap    -0.707978  
       4Ap    -0.579153     1App   -0.504694  

    Virtual:                                                              

       5Ap     0.142036     6Ap     0.204164     7Ap     0.542426  
       8Ap     0.604976     9Ap     0.667814     2App    0.787172  
      10Ap     0.796806    11Ap     0.805772     3App    0.862725  
       4App    0.951917    12Ap     1.132986    13Ap     1.199095  
      14Ap     1.522459    15Ap     1.569413     5App    2.039808  
      16Ap     2.052815     6App    2.064560    17Ap     2.172746  
      18Ap     2.233412    19Ap     2.585897    20Ap     2.965805  
       7App    3.348357    21Ap     3.486951     8App    3.588019  
      22Ap     3.660410     9App    3.799120    23Ap     3.876652  
      24Ap     3.888237    10App    3.964015    11App    4.017384  
      25Ap     4.073348    26Ap     4.193397    12App    4.309133  
      27Ap     4.378970    28Ap     4.595845    13App    4.683729  
      29Ap     4.863818    30Ap     5.164197    31Ap     5.251257  
      32Ap     5.525472    14App    6.054368    33Ap     6.579007  
      15App    6.908354    16App    6.949248    17App    7.006135  
      34Ap     7.009820    35Ap     7.057945    36Ap     7.175610  
      18App    7.239852    37Ap     7.450932    38Ap     7.797339  
      39Ap     8.292702    40Ap    12.864994  

    Final Occupation by Irrep:
             Ap   App 
    DOCC [     4,    1 ]

  @RHF Final Energy:   -76.05697334124645

   => Energetics <=

    Nuclear Repulsion Energy =              9.1913759417259939
    One-Electron Energy =                -123.1105951616316929
    Two-Electron Energy =                  37.8622458786592588
    Total Energy =                        -76.0569733412464473

Computation Completed


Properties will be evaluated at   0.000000,   0.000000,   0.000000 [a0]

Properties computed using the SCF density matrix

  Nuclear Dipole Moment: [e a0]
     X:    -0.0097      Y:    -0.9846      Z:     0.0000

  Electronic Dipole Moment: [e a0]
     X:     0.0050      Y:     0.1828      Z:     0.0000

  Dipole Moment: [e a0]
     X:    -0.0047      Y:    -0.8018      Z:     0.0000     Total:     0.8018

  Dipole Moment: [D]
     X:    -0.0118      Y:    -2.0380      Z:     0.0000     Total:     2.0380


*** tstop() called on n045 at Mon Sep  7 11:57:53 2020
Module time:
	user time   =       0.70 seconds =       0.01 minutes
	system time =       0.00 seconds =       0.00 minutes
	total time  =          1 seconds =       0.02 minutes
Total time:
	user time   =       0.70 seconds =       0.01 minutes
	system time =       0.00 seconds =       0.00 minutes
	total time  =          1 seconds =       0.02 minutes
 MINTS: Wrapper to libmints.
   by Justin Turney

   Calculation information:
      Number of threads:                 1
      Number of atoms:                   3
      Number of AO shells:              22
      Number of SO shells:              22
      Number of primitives:             42
      Number of atomic orbitals:        65
      Number of basis functions:        58

      Number of irreps:                  2
      Integral cutoff                 0.00e+00
      Number of functions per irrep: [  40   18 ]

 OEINTS: Overlap, kinetic, potential, dipole, and quadrupole integrals
         stored in file 35.

      Computing two-electron integrals...done
      Computed 712646 non-zero two-electron integrals.
        Stored in file 33.


*** tstart() called on n045
*** at Mon Sep  7 11:57:53 2020


	Wfn Parameters:
	--------------------
	Wavefunction         = CCSD_T
	Number of irreps     = 2
	Number of MOs        = 58
	Number of active MOs = 58
	AO-Basis             = NONE
	Semicanonical        = false
	Reference            = RHF
	Print Level          = 1

	IRREP	# MOs	# FZDC	# DOCC	# SOCC	# VIRT	# FZVR
	-----	-----	------	------	------	------	------
	 Ap	   40	    0	    4	    0	    36	    0
	 App	   18	    0	    1	    0	    17	    0
	Transforming integrals...
	IWL integrals will be deleted.
	(OO|OO)...
	Presorting SO-basis two-electron integrals.
	Sorting File: SO Ints (nn|nn) nbuckets = 1
	Transforming the one-electron integrals and constructing Fock matrices
	Starting first half-transformation.
	Sorting half-transformed integrals.
	First half integral transformation complete.
	Starting second half-transformation.
	Two-electron integral transformation complete.
	(OO|OV)...
	Starting second half-transformation.
	Two-electron integral transformation complete.
	(OO|VV)...
	Starting second half-transformation.
	Two-electron integral transformation complete.
	(OV|OO)...
	Starting first half-transformation.
	Sorting half-transformed integrals.
	First half integral transformation complete.
	Starting second half-transformation.
	Two-electron integral transformation complete.
	(OV|OV)...
	Starting second half-transformation.
	Two-electron integral transformation complete.
	(OV|VV)...
	Starting second half-transformation.
	Two-electron integral transformation complete.
	(VV|OO)...
	Starting first half-transformation.
	Sorting half-transformed integrals.
	First half integral transformation complete.
	Starting second half-transformation.
	Two-electron integral transformation complete.
	(VV|OV)...
	Starting second half-transformation.
	Two-electron integral transformation complete.
	(VV|VV)...
	Starting second half-transformation.
	Two-electron integral transformation complete.
	Frozen core energy     =      0.00000000000000

	Size of irrep 0 of <ab|cd> integrals:      2.512 (MW) /     20.098 (MB)
	Size of irrep 1 of <ab|cd> integrals:      1.498 (MW) /     11.985 (MB)
	Total:                                     4.010 (MW) /     32.083 (MB)

	Size of irrep 0 of <ia|bc> integrals:      0.255 (MW) /      2.041 (MB)
	Size of irrep 1 of <ia|bc> integrals:      0.127 (MW) /      1.018 (MB)
	Total:                                     0.382 (MW) /      3.060 (MB)

	Size of irrep 0 of tijab amplitudes:       0.027 (MW) /      0.216 (MB)
	Size of irrep 1 of tijab amplitudes:       0.010 (MW) /      0.078 (MB)
	Total:                                     0.037 (MW) /      0.294 (MB)

	Nuclear Rep. energy          =      9.19137594172599
	SCF energy                   =    -76.05697334124645
	One-electron energy          =   -123.11059516020713
	Two-electron energy          =     37.86224587723461
	Reference energy             =    -76.05697334124653

*** tstop() called on n045 at Mon Sep  7 11:57:53 2020
Module time:
	user time   =       0.27 seconds =       0.00 minutes
	system time =       0.12 seconds =       0.00 minutes
	total time  =          0 seconds =       0.00 minutes
Total time:
	user time   =       1.10 seconds =       0.02 minutes
	system time =       0.14 seconds =       0.00 minutes
	total time  =          1 seconds =       0.02 minutes
            **************************
            *                        *
            *        CCENERGY        *
            *                        *
            **************************

    Nuclear Rep. energy (wfn)     =    9.191375941725994
    SCF energy          (wfn)     =  -76.056973341246447
    Reference energy    (file100) =  -76.056973341246533

    Input parameters:
    -----------------
    Wave function   =     CCSD_T
    Reference wfn   =     RHF
    Brueckner       =     No
    Memory (Mbytes) =     14000.0
    Maxiter         =    300
    R_Convergence   =     1.0e-08
    E_Convergence   =     1.0e-10
    Restart         =     Yes
    DIIS            =     Yes
    AO Basis        =     NONE
    ABCD            =     NEW
    Cache Level     =     2
    Cache Type      =     LOW
    Print Level     =     1
    Num. of threads =     1
    # Amps to Print =     10
    Print MP2 Amps? =     No
    Analyze T2 Amps =     No
    Print Pair Ener =     No
    Local CC        =     No
    SCS-MP2         =     False
    SCSN-MP2        =     False
    SCS-CCSD        =     False

MP2 correlation energy -0.2751871945419805
                Solving CC Amplitude Equations
                ------------------------------
  Iter             Energy              RMS        T1Diag      D1Diag    New D1Diag    D2Diag
  ----     ---------------------    ---------   ----------  ----------  ----------   --------
     0        -0.275187194541981    0.000e+00    0.000000    0.000000    0.000000    0.116233
     1        -0.275313202880969    2.892e-02    0.005074    0.009205    0.009205    0.119757
     2        -0.280204259197926    9.976e-03    0.005232    0.009316    0.009316    0.124422
     3        -0.280914374581910    3.193e-03    0.005741    0.010378    0.010378    0.126082
     4        -0.280904452598756    6.387e-04    0.005771    0.010449    0.010449    0.126292
     5        -0.280925617641667    1.959e-04    0.005786    0.010522    0.010522    0.126340
     6        -0.280926872028503    5.688e-05    0.005790    0.010550    0.010550    0.126338
     7        -0.280926900210363    1.875e-05    0.005792    0.010564    0.010564    0.126337
     8        -0.280926613078675    5.176e-06    0.005793    0.010568    0.010568    0.126337
     9        -0.280926534596494    1.058e-06    0.005793    0.010568    0.010568    0.126337
    10        -0.280926547422315    2.358e-07    0.005793    0.010569    0.010569    0.126337
    11        -0.280926546613259    4.555e-08    0.005793    0.010569    0.010569    0.126337
    12        -0.280926548165980    1.043e-08    0.005793    0.010569    0.010569    0.126337
    13        -0.280926548252377    2.551e-09    0.005793    0.010569    0.010569    0.126337
    14        -0.280926548263594    6.591e-10    0.005793    0.010569    0.010569    0.126337

    Iterations converged.


    Largest TIA Amplitudes:
              4  36        -0.0070826746
              2   9        -0.0058134840
              3   0         0.0053286184
              4  38        -0.0049212134
              3   5        -0.0044597574
              3  10        -0.0042322658
              1   4        -0.0040214779
              2  20        -0.0039030945
              3  21        -0.0038564238
              3   4         0.0035638356

    Largest TIjAb Amplitudes:
      4   4  36  36        -0.0475551503
      3   3   4   4        -0.0295728766
      2   2   2   2        -0.0268964054
      3   4   4  36         0.0258684096
      4   3  36   4         0.0258684096
      2   2   3   3        -0.0252108220
      2   2   6   6        -0.0226762665
      2   4   6  36         0.0222147545
      4   2  36   6         0.0222147545
      3   3   2   2        -0.0220864987

    SCF energy       (wfn)                    =  -76.056973341246447
    Reference energy (file100)                =  -76.056973341246533

    Opposite-spin MP2 correlation energy      =   -0.208603691444972
    Same-spin MP2 correlation energy          =   -0.066583503097009
    Singles MP2 correlation energy            =   -0.000000000000000
    MP2 correlation energy                    =   -0.275187194541981
      * MP2 total energy                      =  -76.332160535788518

    Opposite-spin CCSD correlation energy     =   -0.221313914567313
    Same-spin CCSD correlation energy         =   -0.059612633696281
    Singles CCSD correlation energy           =    0.000000000000000
    CCSD correlation energy                   =   -0.280926548263594
      * CCSD total energy                     =  -76.337899889510126

            **************************
            *                        *
            *        CCTRIPLES       *
            *                        *
            **************************


    Wave function   =    CCSD_T
    Reference wfn   =      RHF

    Nuclear Rep. energy (wfn)                =    9.191375941725994
    SCF energy          (wfn)                =  -76.056973341246447
    Reference energy    (file100)            =  -76.056973341246533
    CCSD energy         (file100)            =   -0.280926548263594
    Total CCSD energy   (file100)            =  -76.337899889510126

    Number of ijk index combinations:               35
    Memory available in words        :      1750000000
    ~Words needed per explicit thread:          186624
    Number of threads for explicit ijk threading:    1

    MKL num_threads set to 1 for explicit threading.

    (T) energy                                =   -0.007783133675703
      * CCSD(T) total energy                  =  -76.345683023185828


    Psi4 stopped on: Monday, 07 September 2020 11:57AM
    Psi4 wall time for execution: 0:00:04.20

*** Psi4 exiting successfully. Buy a developer a beer!
