 --invoking executable xjoda


   *************************************************************************
         <<<     CCCCCC     CCCCCC   |||     CCCCCC     CCCCCC   >>>
       <<<      CCC        CCC       |||    CCC        CCC         >>>
      <<<      CCC        CCC        |||   CCC        CCC            >>>
    <<<        CCC        CCC        |||   CCC        CCC              >>>
      <<<      CCC        CCC        |||   CCC        CCC            >>>
       <<<      CCC        CCC       |||    CCC        CCC         >>>
         <<<     CCCCCC     CCCCCC   |||     CCCCCC     CCCCCC   >>>
   *************************************************************************

     ****************************************************************
     * CFOUR Coupled-Cluster techniques for Computational Chemistry *
     ****************************************************************
 

   Department of Chemistry                Institut fuer Physikalische Chemie
   University of Texas at Austin          Universitaet Mainz
   Austin, TX  78712, USA                 D-55099 Mainz, Germany
 
                       Version 1.0
 
                     n059                                              
                     Sat Jun 20 21:48:05 EDT 2020                      
                     integer*8 version is running
 
    -------------------------------------------------------------------
                    Input from ZMAT file
    -------------------------------------------------------------------
 
 MIN4                                                                           
 H                                                                              
 O 1 R*                                                                         
 H 2 R* 1 A*                                                                    
                                                                                
 R=2.4                                                                          
 A=108                                                                          
                                                                                
 *CFOUR(REF=RHF                                                                 
        CALC=CCSD(T)                                                            
        BASIS=cc-pVDZ                                                           
        ORB=SEMICANONICAL                                                       
        UNITS=BOHR                                                              
        MEMORY=7                                                                
        MEM_UNIT=GB                                                             
        SCF_CONV=9                                                              
        CC_CONV=6                                                               
        CHARGE=0                                                                
        MULT=1)                                                                 
                                                                                
                                                                                
 
    -------------------------------------------------------------------
                    CFOUR Control Parameters 
    -------------------------------------------------------------------
        External           Internal           Value            Units
          Name               Name
    -------------------------------------------------------------------
       PRINT                IPRNT               0               ***   
       CALCLEVEL            ICLLVL           CCSD(T)    [ 22]   ***   
       DERIV_LEV            IDRLVL            FIRST     [  1]   ***   
       CC_CONV              ICCCNV          10D-  6             ***   
       SCF_CONV             ISCFCV          10D-  9             ***   
       XFORM_TOL            IXFTOL          10D- 11             ***   
       CC_MAXCYC            ICCCYC             50              cycles 
       LINDEP_TOL           ILINDP              8               ***   
       RDO                  IRDOFM              ON      [  1]   ***   
  
       SCF_EXTRAPO          IRPP                ON      [  1]   ***   
       REFERENCE            IREFNC             RHF      [  0]   ***   
       CC_EXPORDER          ICCEOR              5               ***   
       TAMP_SUM             IEVERY              5               ***   
       NTOP_TAMP            ITOPT2             15               ***   
       CCORBOPT             ICCORB             OFF      [  0] x 0.01  
       SCF_MAXCYC           ISCFCY            150              cycles 
       OCCUPATION           IOCCU   ESTIMATED BY SCF 
       PROPS                IPROPS             OFF      [  0]   ***   
       RELAX_DENS           IRDENS              ON      [  1]   ***   
  
       SCF_EXPORDE          IRPPOR              6               ***   
       CC_EXTRAPOL          ICCEXT             DIIS     [  1]   ***   
       BRUECKNER            IBRKNR             OFF      [  0]   ***   
       XFIELD               IXEFLD              0             x 10-6  
       YFIELD               IYEFLD              0             x 10-6  
       ZFIELD               IZEFLD              0             x 10-6  
       SAVE_INTS            ISVINT             OFF      [  0]   ***   
       DROPMO               IDRPMO      NONE         
       CHARGE               ICHRGE              0               ***   
       MULTIPLICTY          IMULTP              1               ***   
  
       CPHF_CONVER          ICPHFT          10D- 16             ***   
       CPHF_MAXCYC          ICPHFC             64              cycles 
       INCORE               INCORE             OFF      [  0]   ***   
       MEMORY_SIZE          IMEMSZ         875000000           words  
       FILE_RECSIZ          IFLREC              4096           words  
       NON-HF               INONHF             OFF      [  0]   ***   
       ORBITALS             IORBTP         SEMICANONICAL[  1]   ***   
  
       SCF_EXPSTAR          IRPPLS              8               ***   
       LOCK_ORBOCC          ILOCOC             OFF      [  0]   ***   
       HBAR                 IHBAR              OFF      [  0]   ***   
       CACHE_RECS           ICHREC             10               ***   
       GUESS                IGUESS            MOREAD    [  0]   ***   
       JODA_PRINT           IJPRNT              0               ***   
       GEO_METHOD           INR                NR       [  0]   ***   
       GEO_CONV             ICONTL              5              H/bohr 
       EIGENVECTOR          IVEC                1               ***   
  
       NEGEVAL              IDIE             ABORT      [  0]   ***   
       CURVILINEAR          ICURVY            OFF       [  0]   ***   
       SCALE_ON             ISTCRT              0               ***   
       GEO_MAXSTEP          IMXSTP            300            millibohr
       VIBRATION            IVIB              NO        [  0]   ***   
       EVAL_HESS            IRECAL              0            # of cyc.
       INTEGRALS            INTTYP             VMOL     [  1]   ***   
       FD_STEPSIZE          IDISFD              0            10-4 bohr
       POINTS               IGRDFD              0               ***   
       CONTRACTION          ICNTYP          GENERAL     [  1]   ***   
  
       SYMMETRY             ISYM             ON         [  0]   ***   
       BASIS                IBASIS         PVDZ         [ 13]   ***   
       SPHERICAL            IDFGHI             ON       [  1]   ***   
       RESET_FLAGS          IRESET             OFF      [  0]   ***   
       PERT_ORB             IPTORB         CANONICAL    [  1]   ***   
       GENBAS_1             IGNBS1              0               ***   
       GENBAS_2             IGNBS2              0               ***   
       GENBAS_3             IGNBS3              0               ***   
       COORDINATES          ICOORD         INTERNAL     [  0]   ***   
       SYM_CHECK            ISYMCK         OVERRIDE     [  1]   ***   
  
       SCF_PRINT            ISCFPR              0               ***   
       ECP                  IECP           OFF          [  0]   ***   
       RESTART_CC           ICCRES         OFF          [  0]   ***   
       TRANS_INV            ITRAIN         USE          [  0]   ***   
       HFSTABILITY          ISTABL         OFF          [  0]   ***   
       ROT_EVEC             ROTVEC              0               ***   
       BRUCK_CONV           IBRTOL          10D-  4             ***   
       UNITS                IUNITS         BOHR         [  1]   ***   
       FD_USEGROUP          IFDGRP         FULL         [  0]   ***   
  
       FD_PROJECT           IFDPRJ         ON           [  0]   ***   
       FD_CALTYPE           IFDCAL         GRADONLY     [  0]   ***   
       VTRAN                IVTRAN         FULL/PARTIAL [  0]   ***   
       HF2_FILE             IHF2Fl         USE          [  1]   ***   
       SUBGROUP             ISUBGP         DEFAULT      [  0]   ***   
       SUBGRPAXIS           ISBXYZ         X            [  0]   ***   
       EXCITE               IEXCIT         NONE         [  0]   ***   
       LINEQ_CONV           IZTACN          10D-  7           cycles  
  
       TREAT_PERT           ITREAT         SIMULTANEOUS [  0]   ***   
       ESTATE_PROP          IEXPRP         OFF          [  0]   ***   
       GEO_MAXCYC           IOPTCY             50               ***   
       ABCDTYPE             IABCDT         STANDARD     [  0]   ***   
       AO_LADDERS           IAOLAD         SINGLEPASS   [  1]   ***   
       FOCK                 IFOCK          AO           [  1]   ***   
       ESTATE_MAXC          IEXMXC             20               ***   
       ESTATE_CONV          IEXTOL          10D-  5             ***   
       DIRECT               IDIRCT         OFF          [  0]   ***   
  
       GAMMA_ABCD           IGABCD         STORE        [  0]   ***   
       LINEQ_TYPE           ILTYPE         DIIS         [  1]   ***   
       LINEQ_MAXCY          ILMAXC             50               ***   
       TRANGRAD             IRESRM         OFF          [  0]   ***   
       PSI                  IPSI           OFF          [  0]   ***   
       GAMMA_ABCI           IGABCI         STORE        [  0]   ***   
       ESTATE_DIAG          IEXDIG         ITERATIVE    [  0]   ***   
       FC_FIELD             IFINFC              0             x 10-6  
       SD_FIELD             IFINSD              0             x 10-6  
       DIFF_TYPE            IDIFTY         RELAXED      [  0]   ***   
  
       LINEQ_EXPOR          ILMAXD              5               ***   
       FINITE_PERT          IFIPER              0             x 10-6  
       ANHARMONIC           IANHAR         OFF          [  0]   ***   
       CC_PROGRAM           ICCPRO         VCC          [  0]   ***   
       OPEN-SHELL           IOPEN          SPIN-ORBITAL [  0]   ***   
       UIJ_THRESHO          IUIJTH             25               ***   
       SCF_DAMPING          IDAMP               0             x 10-3  
       PROP_INTEGR          IINTYP         INTERNAL     [  0]   ***   
       ANH_SYMMETR          IANHSM         ABELIAN      [  0]   ***   
       ANH_ALGORIT          IANALG         STANDARD     [  0]   ***   
  
       EOM_NONIT            EOMNON         OFF          [  0]   ***   
       VIB_ALGORIT          IGEALG         STANDARD     [  0]   ***   
       ANH_DERIVAT          IANDER         SECOND       [  1]   ***   
       SPINROTATIO          ISRCON         OFF          [  0]   ***   
       CIS_CONV             ICISTL              5               ***   
       ANH_STEPSIZ          ICUBST             50000          x 10-6  
       SPIN_FLIP            ISPFLP         OFF          [  0]   ***   
       GRID                 IGRID          OFF          [  0]   ***   
  
       DBOC                 IDBOC          OFF          [  0]   ***   
       EOMFOLLOW            IEOMSR         ENERGY       [  0]   ***   
       T3_EXTRAPOL          IT3EXT         OFF          [  0]   ***   
       ESTATE_LOCK          IESLOC         OFF          [  0]   ***   
       UNOS                 IUNOS          OFF          [  0]   ***   
       FREQ_ALGORI          IVIALG         STANDARD     [  0]   ***   
       RELATIVIST           IRELAT         OFF          [  0]   ***   
       FROZEN_CORE          IFROCO         OFF          [  0]   ***   
       EXCITATION           IEXCIT              0               ***   
       INPUT_MRCC           IMRCC          ON           [  1]   ***   
  
       GIAO                 IGIAO          OFF          [  1]   ***   
       EOM_NSING            IEOMSI          10D-  0             ***   
       EOM_NTRIP            IEOMTR          10D-  0             ***   
       EOM_NSTATES          IMRCCD         DAVIDSON     [  0]   ***   
       DIAG_MRCC            IEOMST          10D-  0             ***   
       NEWNORM              INEWNO         OFF          [  0]   ***   
       TESTSUITE            ITESTS         OFF          [  0]   ***   
       BUFFERSIZE           IBUFFS            600               ***   
       SPINORBIT            ISOCAL         OFF          [  0]   ***   
       DCT                  IDCT           OFF          [  0]   ***   
  
       PARALLEL             IPARAL         ON           [  1]   ***   
       PARA_PRINT           IPPRIN              0               ***   
       COMM_SIZE            IPSIZE            ***               ***   
       PARA_INT             IPINTS         ON           [  1]   ***   
       RAMAN_INT            IRAMIN         OFF          [  0]   ***   
       RAMAN_ORB            IRAMRE         UNRELAXED    [  0]   ***   
       BREIT                IBREIT         OFF          [  0]   ***   
       MEM_UNIT             IMEMU          GB           [  3]   ***   
       SPIN_ORBIT           ISPORB         OFF          [  0]   ***   
       GENBAS_4             IGNBS4              0               ***   
  
       SPIN_SCAL            ISCSMP         OFF          [  0]   ***   
       GRID_ALGO            IGALGO         SERIAL       [  0]   ***   
       VIBPHASE             ISETPH         STANDARD     [  0]   ***   
       SEQUENCE             ISEQUE         OFF          [  0]   ***   
       HESS_TYPE            IHESTP         SCF          [  0]   ***   
       CONTINUUM            ICONTU         NONE         [  0]   ***   
       SCF_NOSTOP           ISCFST         OFF          [  0]   ***   
       CONSTANT             ICONST         OLD          [  1]   ***   
  
       EOM_MRCC             IMRCCE         OLD          [  0]   ***   
       EOM_ORDER            IEXORD         ENERGY       [  0]   ***   
       GIMIC                IGIMIC         OFF          [  0]   ***   
    -------------------------------------------------------------------
   3 entries found in Z-matrix 
   Job Title : MIN4                                                                            
   There are  2 unique internal coordinates.
   Of these,  2 will be optimized.
   User supplied Z-matrix: 
--------------------------------------------------------------------------------
       SYMBOL    BOND      LENGTH    ANGLE     ANGLE     DIHED     ANGLE
                  TO      (ANGST)    WRT      (DEG)      WRT      (DEG)
--------------------------------------------------------------------------------
        H    
        O          1         R    
        H          2         R          1        A    
                  *Initial values for internal coordinates* 
                      Name             Value
                        R               2.4000000000
                        A             108.0000000000
--------------------------------------------------------------------------------
  1  H          1     1.00783
  2  O          8    15.99491
  3  H          1     1.00783
   Rotational constants (in cm-1): 
          5.3936453130             7.9221226294            16.8991508490
   Rotational constants (in MHz): 
     161697.4412485427        237499.2948371824        506623.8680904899
********************************************************************************
   The full molecular point group is C2v .
   The largest Abelian subgroup of the full molecular point group is C2v .
   The computational point group is C2v .
********************************************************************************
--------------------------------------------------------------------------------
   Analysis of internal coordinates specified by Z-matrix 
--------------------------------------------------------------------------------
   *The nuclear repulsion energy is    6.92418 a.u.
   *There are   2 degrees of freedom within the tot. symm. molecular subspace.
   *Z-matrix requests optimization of   2 coordinates.
   *The optimization is unconstrained and your Z-matrix is great.
--------------------------------------------------------------------------------
 ----------------------------------------------------------------
 Z-matrix   Atomic            Coordinates (in bohr)
  Symbol    Number           X              Y              Z
 ----------------------------------------------------------------
     H         1         0.00000000    -1.94164079     1.25280802
     O         8         0.00000000    -0.00000000    -0.15787659
     H         1         0.00000000     1.94164079     1.25280802
 ----------------------------------------------------------------
   Interatomic distance matrix (Angstroms) 
 
                 H             O             H    
                [ 1]        [ 2]        [ 3]
  H    [ 1]     0.00000
  O    [ 2]     1.27003     0.00000
  H    [ 3]     2.05494     1.27003     0.00000
   Rotational constants (in cm-1): 
          5.3936453130            16.8991508490             7.9221226294
   Rotational constants (in MHz): 
     161697.4412485426        506623.8680904896        237499.2948371823
  There are   24 basis functions.
                0.25 seconds walltime passed
 --executable xjoda finished with status            0
 --invoking executable xvmol
 Serial version of molecule started
 
    -------------------------------------------------------------------
                    Input from MOL file
    -------------------------------------------------------------------
 INTGRL        1    0    1    0    0    0    0    0    0                        
          *** CFOUR Program System (Release V0.1) ***                           
 MIN4                                                                           
     2    2 X  Y       0.10E-08              0    0                             
    9999.00      3.00                                                           
           1.00000000    1    2    1    1                                       
 H #1   0.000000000000000  -1.941640786499875   1.252808016333807               
     4    2                                                                     
    13.0100000000000       1.968500000000000E-002  0.000000000000000E+000       
    1.96200000000000       0.137977000000000       0.000000000000000E+000       
   0.444600000000000       0.478148000000000       0.000000000000000E+000       
   0.122000000000000       0.501240000000000        1.00000000000000            
     1    1                                                                     
   0.727000000000000        1.00000000000000                                    
           8.00000000    1    3    1    1    1                                  
 O #2   0.000000000000000  -0.000000000000000  -0.157876589168128               
     9    3                                                                     
    11720.0000000000       7.100000000000000E-004 -1.600000000000000E-004       
   0.000000000000000E+000                                                       
    1759.00000000000       5.470000000000000E-003 -1.263000000000000E-003       
   0.000000000000000E+000                                                       
    400.800000000000       2.783700000000000E-002 -6.267000000000000E-003       
   0.000000000000000E+000                                                       
    113.700000000000       0.104800000000000      -2.571600000000000E-002       
   0.000000000000000E+000                                                       
    37.0300000000000       0.283062000000000      -7.092400000000000E-002       
   0.000000000000000E+000                                                       
    13.2700000000000       0.448719000000000      -0.165411000000000            
   0.000000000000000E+000                                                       
    5.02500000000000       0.270952000000000      -0.116955000000000            
   0.000000000000000E+000                                                       
    1.01300000000000       1.545800000000000E-002  0.557368000000000            
   0.000000000000000E+000                                                       
   0.302300000000000      -2.585000000000000E-003  0.572759000000000            
    1.00000000000000                                                            
     4    2                                                                     
    17.7000000000000       4.301800000000000E-002  0.000000000000000E+000       
    3.85400000000000       0.228913000000000       0.000000000000000E+000       
    1.04600000000000       0.508728000000000       0.000000000000000E+000       
   0.275300000000000       0.460531000000000        1.00000000000000            
     1    1                                                                     
    1.18500000000000        1.00000000000000                                    
 FINISH                                                                         
 
    -------------------------------------------------------------------
 
 One- and two-electron integrals over symmetry-adapted AOs are calculated.

  Spherical harmonics are used.
  
  Integrals less than  0.10E-13 are neglected.

  Nuclear repulsion energy :    6.9241808286 a.u.
  required memory for a1 array                5013204  words 
  required memory for a2 array                2046060  words 
 basis number:   1     5
 basis number:   8    15
  @GETMEM-I,   Allocated      69 MB of main memory.
  @MOLECU-I, One electron integrals required         0.00000 seconds.
  @TWOEL-I,       2350 integrals of symmetry type  I I I I
  @TWOEL-I,       4467 integrals of symmetry type  I J I J
  @TWOEL-I,       2860 integrals of symmetry type  I I J J
  @TWOEL-I,       1735 integrals of symmetry type  I J K L
  @TWOEL-I, Total number of 2-e integrals      11412.
  @MOLECU-I, Two electron integrals required         0.04000 seconds.
  @CHECKOUT-I, Total execution time :       0.0600 seconds.
                0.00 seconds walltime passed
 --executable xvmol finished with status            0
 --invoking executable xvmol2ja
  @GETMEM-I,   Allocated    6675 MB of main memory.
  @CHECKOUT-I, Total execution time :       0.0000 seconds.
                0.00 seconds walltime passed
 --executable xvmol2ja finished with status            0
 --invoking executable xvscf
 NSOSCF                     0
  There are   24 functions in the AO basis.

  There are 4 irreducible representations.

       Irrep        # of functions
         1                 11
         2                  4
         3                  7
         4                  2


  Parameters for SCF calculation: 
        SCF reference function:  RHF  
  Maximum number of iterations:  150
     Full symmetry point group: C2v 
     Computational point group: C2v 
        Initial density matrix: MOREAD                 
     SCF convergence tolerance: 10**(- 9)
  DIIS convergence acceleration:  ON
          Latest start for DIIS:   8
                     DIIS order:   6

  Memory information:      62156 words required.
  Fock matrices are constructed from AO integral file.
  @GETMEM-I,   Allocated       0 MB of main memory.
  Initialization and symmetry analysis required      0.000 seconds.

  @INITGES-I, Occupancies from core Hamiltonian:

          Alpha population by irrep:   3    1    1    0
           Beta population by irrep:   3    1    1    0


 total no. of electrons in initial guess :  0.000000000000000E+000
  --------------------------------------------------------------------
  Iteration         Total Energy            Largest Density Difference
  --------------------------------------------------------------------
       0             6.924180828645787              0.0000000000D+00
   current occupation vector 
     3  1  1  0
     3  1  1  0
       1           -68.926134736224469              0.9631014317D+01
   current occupation vector 
     3  1  1  0
     3  1  1  0
       2           -69.285789841331990              0.9439452673D+01
   current occupation vector 
     3  0  2  0
     3  0  2  0
       3           -72.347441105271784              0.6657324934D+01
   current occupation vector 
     3  1  1  0
     3  1  1  0
       4           -71.131392185569140              0.4869533131D+01
   current occupation vector 
     3  0  2  0
     3  0  2  0
       5           -72.950562818550168              0.4858437843D+01
   current occupation vector 
     3  1  1  0
     3  1  1  0
       6           -71.643244536610183              0.4383204984D+01
   current occupation vector 
     3  0  2  0
     3  0  2  0
       7           -73.156203670114266              0.4381654816D+01
   current occupation vector 
     3  1  1  0
     3  1  1  0
       8           -71.851487898654881              0.4210850581D+01
   current occupation vector 
     3  0  2  0
     3  0  2  0
       9           -75.715648539131351              0.4188686114D+01
   current occupation vector 
     3  1  1  0
     3  1  1  0
      10           -75.902646911838971              0.5023284799D+00
   current occupation vector 
     3  1  1  0
     3  1  1  0
      11           -75.905268199590424              0.6797725015D-01
   current occupation vector 
     3  1  1  0
     3  1  1  0
      12           -75.905707300518870              0.4220942989D-01
   current occupation vector 
     3  1  1  0
     3  1  1  0
      13           -75.905753164639137              0.1163386017D-01
   current occupation vector 
     3  1  1  0
     3  1  1  0
      14           -75.905756587614405              0.2967597133D-02
   current occupation vector 
     3  1  1  0
     3  1  1  0
      15           -75.905756859939373              0.1253737703D-02
   current occupation vector 
     3  1  1  0
     3  1  1  0
      16           -75.905756863685042              0.1470924371D-03
   current occupation vector 
     3  1  1  0
     3  1  1  0
      17           -75.905756863696908              0.8741092871D-05
   current occupation vector 
     3  1  1  0
     3  1  1  0
      18           -75.905756863697377              0.7565464555D-06
   current occupation vector 
     3  1  1  0
     3  1  1  0
      19           -75.905756863697405              0.2586498848D-06
   current occupation vector 
     3  1  1  0
     3  1  1  0
      20           -75.905756863697164              0.4270105003D-07
   current occupation vector 
     3  1  1  0
     3  1  1  0
      21           -75.905756863697391              0.2425860535D-07
   current occupation vector 
     3  1  1  0
     3  1  1  0
      22           -75.905756863697206              0.3910369140D-08
   current occupation vector 
     3  1  1  0
     3  1  1  0

  SCF has converged.

 save density matrix on hard disk
 total electron number:   10.0000000000000     
     E(SCF)=       -75.905756863697391              0.6560929577D-09

  Eigenvector printing suppressed.

 @PUTMOS-I, Writing converged MOs to NEWMOS. 
 @PUTMOS-I, Symmetry   1 Full   2 Partial   3
 @PUTMOS-I, Symmetry   2 Full   1 Partial   0
 @PUTMOS-I, Symmetry   3 Full   1 Partial   3
 @PUTMOS-I, Symmetry   4 Full   0 Partial   2
  @DMPJOB-I, Rotating orbitals to semicanonical basis.
             *** Eigenvalues correspond to new basis. ***



 
  ORBITAL EIGENVALUES (ALPHA)  (1H = 27.2113838 eV)

       MO #        E(hartree)               E(eV)           FULLSYM    COMPSYM
       ----   --------------------   --------------------   -------   ---------
    1     1         -20.5983746386        -560.5102783492      A1        A1 (1)
    2     2          -1.2329870866         -33.5512848594      A1        A1 (1)
    3    16          -0.5697138108         -15.5027011739      B2        B2 (3)
    4     3          -0.5062887967         -13.7768187700      A1        A1 (1)
    5    12          -0.4841073481         -13.1732308600      B1        B1 (2)
  +++++++++++++++++++++++++++++++++++++++++++++++++++++++++++++++++++++++++++++
    6     4           0.1143674761           3.1120972874      A1        A1 (1)
    7    17           0.1865940624           5.0774826512      B2        B2 (3)
    8     5           0.6539568410          17.7950706012      A1        A1 (1)
    9    18           0.6589444649          17.9307907508      B2        B2 (3)
   10    13           1.1613101197          31.6008554017      B1        B1 (2)
   11     6           1.1771506631          32.0318985076      A1        A1 (1)
   12    19           1.2862358471          35.0002573182      B2        B2 (3)
   13    23           1.4379345371          39.1281885952      A2        A2 (4)
   14     7           1.5354280683          41.7811224935      A1        A1 (1)
   15    14           1.6559442224          45.0605338189      B1        B1 (2)
   16    20           1.6979850119          46.2045218776      B2        B2 (3)
   17     8           1.7556984764          47.7749851133      A1        A1 (1)
   18    21           1.8843008235          51.2744329386      B2        B2 (3)
   19     9           2.1187865341          57.6551136107      A1        A1 (1)
   20    15           3.0667909095          83.4516245332      B1        B1 (2)
   21    24           3.1025635926          84.4250487421      A2        A2 (4)
   22    10           3.1388738347          85.4131006763      A1        A1 (1)
   23    11           3.5546376612          96.7266097384      A1        A1 (1)
   24    22           3.7570975304         102.2358229479      B2        B2 (3)


  VSCF finished.

  @CHECKOUT-I, Total execution time :       0.0100 seconds.
                0.00 seconds walltime passed
 --executable xvscf finished with status            0
 --invoking executable xvtran
  @GETMEM-I,   Allocated    6675 MB of main memory.
  Full RHF integral transformation
  Transformation of IIII integrals :
  1 pass through the AO integral file was required.
        2350 AO integrals were read.
        2678 MO integrals were written to HF2.
  Transformation of IIJJ integrals :
  1 pass through the AO integral file was required.
        2860 AO integrals were read.
        3100 MO integrals were written to HF2.
  Transformation of IJIJ integrals :
  1 pass through the AO integral file was required.
        4467 AO integrals were read.
        4793 MO integrals were written to HF2.
  Transformation of IJKL integrals :
  1 pass through the AO integral file was required.
        1735 AO integrals were read.
        1848 MO integrals were written to HF2.
  Summary of active molecular orbitals: 
------------------------------------------------------------------------
 
  Index      Eigenvalue    Symmetry    Index      Eigenvalue    Symmetry
------------------------------------------------------------------------
     1       -20.5983746        1        13         3.5546377        1
     2        -1.2329871        1        14         1.1613101        2
     3        -0.5062888        1        15         1.6559442        2
     4        -0.4841073        2        16         3.0667909        2
     5        -0.5697138        3        17         0.1865941        3
     6         0.1143675        1        18         0.6589445        3
     7         0.6539568        1        19         1.2862358        3
     8         1.1771507        1        20         1.6979850        3
     9         1.5354281        1        21         1.8843008        3
    10         1.7556985        1        22         3.7570975        3
    11         2.1187865        1        23         1.4379345        4
    12         3.1388738        1        24         3.1025636        4
------------------------------------------------------------------------
  @CHECKOUT-I, Total execution time :       0.0100 seconds.
                0.00 seconds walltime passed
 --executable xvtran finished with status            0
 --invoking executable xintprc
  @GETMEM-I,   Allocated    6675 MB of main memory.
  @GMOIAA-I, Processing MO integrals for spin case AA.
  @GMOIAA-I, Generation of integral list completed.
                      TYPE                NUMBER
                      ----               --------
                      PPPP                  4957
                      PPPH                  4884
                      PPHH                  1277
                      PHPH                   832
                      PHHH                   420
                      HHHH                    49

                     TOTAL                 12419

  @FORMT2-I, Second-order MP correlation energies:
              ----------------------------------------------
              E(SCF)                =  -75.905756863697 a.u.
              E2(AA)                =   -0.027361649298 a.u.
              E2(AB)                =   -0.172848229728 a.u.
              E2(TOT)               =   -0.227571528323 a.u.
              Total MP2 energy      =  -76.133328392020 a.u.
              ----------------------------------------------
   Largest T2 amplitudes for spin case AB:
       _       _                 _       _                 _       _
   i   j   a   b             i   j   a   b             i   j   a   b
-----------------------------------------------------------------------------
[  5   5  17  17]-0.06157 [  3   3   6   6]-0.04919 [  5   3  17   6]-0.04485
[  3   5   6  17]-0.04485 [  4   4  14  14]-0.04470 [  4   5  14  17]-0.03187
[  5   4  17  14]-0.03187 [  3   3   8   8]-0.03173 [  5   5   6   6]-0.02785
[  4   3  14   8] 0.02781 [  3   4   8  14] 0.02781 [  5   5  18  18]-0.02706
[  5   5  18  17]-0.02676 [  5   5  17  18]-0.02676 [  5   3  17   8] 0.02638
-----------------------------------------------------------------------------
   Norm of T2AB vector (     2459 symmetry allowed elements):  0.2383239516.
-----------------------------------------------------------------------------
  @CHECKOUT-I, Total execution time :       0.0000 seconds.
                0.00 seconds walltime passed
 --executable xintprc finished with status            0
 --invoking executable xvcc
  @GETMEM-I,   Allocated    6675 MB of main memory.
   CCSD(T) energy will be calculated.
   The total correlation energy is -0.227571528323 a.u.
   The total correlation energy is -0.227840561624 a.u.
  Convergence information after     1 iterations: 
  Largest element of residual vector :  0.13498695E-01.
  Largest element of DIIS residual   :  0.13498695E-01.
   The total correlation energy is -0.235093412896 a.u.
  Convergence information after     2 iterations: 
  Largest element of residual vector : -0.75463652E-02.
  Largest element of DIIS residual   : -0.79661133E-02.
   The total correlation energy is -0.236794694192 a.u.
  Convergence information after     3 iterations: 
  Largest element of residual vector :  0.41198680E-02.
  Largest element of DIIS residual   :  0.31856801E-02.
   The total correlation energy is -0.238282718525 a.u.
  Convergence information after     4 iterations: 
  Largest element of residual vector : -0.10901190E-02.
  Largest element of DIIS residual   : -0.73446138E-03.
   The total correlation energy is -0.238384953066 a.u.
  Convergence information after     5 iterations: 
  Largest element of residual vector :  0.79499985E-03.
  Largest element of DIIS residual   :  0.40637662E-03.
   The total correlation energy is -0.238412837953 a.u.
  Convergence information after     6 iterations: 
  Largest element of residual vector :  0.20913325E-03.
  Largest element of DIIS residual   : -0.11046643E-03.
   The total correlation energy is -0.238408710682 a.u.
  Convergence information after     7 iterations: 
  Largest element of residual vector :  0.96190869E-04.
  Largest element of DIIS residual   :  0.16704974E-04.
   The total correlation energy is -0.238411180293 a.u.
  Convergence information after     8 iterations: 
  Largest element of residual vector :  0.15637610E-04.
  Largest element of DIIS residual   :  0.82688591E-05.
   The total correlation energy is -0.238411181028 a.u.
  Convergence information after     9 iterations: 
  Largest element of residual vector :  0.44628011E-05.
  Largest element of DIIS residual   : -0.35307601E-05.
   The total correlation energy is -0.238411159178 a.u.
  Convergence information after    10 iterations: 
  Largest element of residual vector :  0.27667639E-05.
  Largest element of DIIS residual   :  0.90566756E-06.
   The total correlation energy is -0.238411229648 a.u.
  Convergence information after    11 iterations: 
  Largest element of residual vector : -0.43901661E-06.
  Largest element of DIIS residual   : -0.24627324E-06.
  Amplitude equations converged in    11iterations.
   The total correlation energy is -0.238411237683 a.u.
   The CC iterations have converged.

   Largest T1 amplitudes for spin case AA:
   i       a                 i       a                 i       a    
-----------------------------------------------------------------------------
[  3       6    ] 0.02812 [  3      10    ] 0.01280 [  5      19    ] 0.01268
[  5      21    ]-0.01064 [  3       7    ] 0.01031 [  5      20    ] 0.00920
[  3       8    ] 0.00700 [  4      14    ] 0.00638 [  2       8    ] 0.00634
[  2      10    ] 0.00462 [  5      18    ] 0.00419 [  5      17    ] 0.00337
[  4      15    ] 0.00335 [  3       9    ] 0.00302 [  2       6    ]-0.00300
-----------------------------------------------------------------------------
   Norm of T1AA vector (       33 symmetry allowed elements):  0.0404923565.
-----------------------------------------------------------------------------
   Largest T2 amplitudes for spin case AB:
       _       _                 _       _                 _       _
   i   j   a   b             i   j   a   b             i   j   a   b
-----------------------------------------------------------------------------
[  5   5  17  17]-0.07558 [  3   3   6   6]-0.06978 [  5   3  17   6]-0.05469
[  3   5   6  17]-0.05469 [  4   4  14  14]-0.04800 [  5   5   6   6]-0.04410
[  5   3   6  17]-0.04045 [  3   5  17   6]-0.04045 [  5   5  18  17]-0.03650
[  5   5  17  18]-0.03650 [  3   3  17  17]-0.03503 [  3   3   8   8]-0.03241
[  5   5  18  18]-0.03232 [  3   3   7   6]-0.03004 [  3   3   6   7]-0.03004
-----------------------------------------------------------------------------
   Norm of T2AB vector (     2459 symmetry allowed elements):  0.2857799697.
-----------------------------------------------------------------------------
       Summary of iterative solution of CC equations 
      -----------------------------------------------------------
                       Correlation           Total
       Iteration         Energy              Energy
      -----------------------------------------------------------
            0        -0.227571528323     -76.133328392020  DIIS 
            1        -0.227840561624     -76.133597425322  DIIS 
            2        -0.235093412896     -76.140850276593  DIIS 
            3        -0.236794694192     -76.142551557889  DIIS 
            4        -0.238282718525     -76.144039582222  DIIS 
            5        -0.238384953066     -76.144141816763  DIIS 
            6        -0.238412837953     -76.144169701650  DIIS 
            7        -0.238408710682     -76.144165574379  DIIS 
            8        -0.238411180293     -76.144168043990  DIIS 
            9        -0.238411181028     -76.144168044726  DIIS 
           10        -0.238411159178     -76.144168022875  DIIS 
           11        -0.238411237683     -76.144168101380  DIIS 
      -----------------------------------------------------------
      A miracle has come to pass. The CC iterations have converged.
        E(CCSD)           =     -76.144168101380
        E(CCSD + T(CCSD)) =     -76.149859667425
        E(CCSD(T))        =     -76.149592784567
  @CHECKOUT-I, Total execution time :       0.1300 seconds.
 --executable xvcc finished with status            0
 --invoking executable xlambda
  @GETMEM-I,   Allocated    6675 MB of main memory.
  The Lambda equations are solved for CCSD(T).
  Initial lambda amplitudes: 
  Convergence information after     1 iterations: 
  Largest element of residual vector : -0.75357730E-02.
  Largest element of DIIS residual   : -0.75357730E-02.
  Convergence information after     2 iterations: 
  Largest element of residual vector :  0.20405198E-02.
  Largest element of DIIS residual   :  0.17465932E-02.
  Convergence information after     3 iterations: 
  Largest element of residual vector : -0.97692579E-03.
  Largest element of DIIS residual   : -0.42278255E-03.
  Convergence information after     4 iterations: 
  Largest element of residual vector :  0.35992390E-03.
  Largest element of DIIS residual   :  0.29496280E-03.
  Convergence information after     5 iterations: 
  Largest element of residual vector :  0.16720980E-03.
  Largest element of DIIS residual   : -0.76292297E-04.
  Convergence information after     6 iterations: 
  Largest element of residual vector :  0.67818274E-04.
  Largest element of DIIS residual   : -0.19543540E-04.
  Convergence information after     7 iterations: 
  Largest element of residual vector :  0.16136307E-04.
  Largest element of DIIS residual   : -0.60341428E-05.
  Convergence information after     8 iterations: 
  Largest element of residual vector :  0.27246983E-05.
  Largest element of DIIS residual   : -0.14978649E-05.
  Convergence information after     9 iterations: 
  Largest element of residual vector : -0.10122118E-05.
  Largest element of DIIS residual   : -0.66622448E-06.
  Convergence information after    10 iterations: 
  Largest element of residual vector : -0.38932425E-06.
  Largest element of DIIS residual   :  0.23351395E-06.
  Convergence information after    11 iterations: 
  Largest element of residual vector :  0.14786822E-06.
  Largest element of DIIS residual   :  0.77208873E-07.
  Amplitude equations converged in    11 iterations.
      The lambda equations have converged.
  @CHECKOUT-I, Total execution time :       0.0600 seconds.
 --executable xlambda finished with status            0
 --invoking executable xdens
  @GETMEM-I,   Allocated    6675 MB of main memory.
  CCSD(T) density and intermediates are calculated.
  The perturbed orbitals are chosen canonical.
  The iterative expansion of D(ai) converged after  16 iterations.
  ----------------------------------------------------------------------
                 Natural orbital occupation numbers
  ----------------------------------------------------------------------
  1.99993  1.98167  1.97095  1.92753  1.92659  0.06775  0.06352  0.01877
  0.01088  0.00548  0.00506  0.00443  0.00391  0.00388  0.00238  0.00233
  0.00130  0.00109  0.00078  0.00057  0.00051  0.00051  0.00011  0.00008
  Trace of density matrix :  10.0000000000.
  ----------------------------------------------------------------------
  Density calculation successfully completed.
  @CHECKOUT-I, Total execution time :       0.0200 seconds.
                0.00 seconds walltime passed
 --executable xdens finished with status            0
 --invoking executable xanti
  @GETMEM-I,   Allocated    6675 MB of main memory.
 CCSD(T) MO gammas will be sorted to Mulliken order.
  @CHECKOUT-I, Total execution time :       0.0000 seconds.
                0.00 seconds walltime passed
 --executable xanti finished with status            0
 --invoking executable xbcktrn
  @GETMEM-I,   Allocated    6675 MB of main memory.
  @CHECKOUT-I, Total execution time :       0.0000 seconds.
                0.00 seconds walltime passed
 --executable xbcktrn finished with status            0
 --invoking executable xvdint
  @GETMEM-I,   Allocated    6675 MB of main memory.
 One- and two-electron integral derivatives are calculated
 for RHF-CC/MBPT gradients and dipole moments.
 Spherical gaussians are used.

                     Kinetic energy integral gradient
                     --------------------------------

                         H #1 y     0.5499834050
                         H #1 z    -0.3708843669
                         O #2 z     0.3708843669


 H #1 1     0.0000000000            0.2749917025           -0.1854421834
 H #1 2     0.0000000000           -0.2749917025           -0.1854421834
 O #2       0.0000000000            0.0000000000            0.3708843669



                   Nuclear attraction integral gradient
                   ------------------------------------

                         H #1 y    -7.0268997436
                         H #1 z     4.6799664496
                         O #2 z    -4.6799664496


 H #1 1     0.0000000000           -3.5134498718            2.3399832248
 H #1 2     0.0000000000            3.5134498718            2.3399832248
 O #2       0.0000000000            0.0000000000           -4.6799664496



                      Reorthonormalization gradient
                      -----------------------------

                         H #1 y     0.3510561312
                         H #1 z    -0.2504438141
                         O #2 z     0.2504438141


 H #1 1     0.0000000000            0.1755280656           -0.1252219071
 H #1 2     0.0000000000           -0.1755280656           -0.1252219071
 O #2       0.0000000000            0.0000000000            0.2504438141



                Electronic contributions to dipole moment
                -----------------------------------------

                               au             Debye

                    z     -0.53614246     -1.36273845

  Conversion factor used: 1 a.u. =   2.54174691 Debye 


  Evaluation of 1e integral derivatives required    0.01 seconds.
  Evaluation of 2el integral derivatives

                      Two-electron integral gradient
                      ------------------------------

                         H #1 y     3.5500856051
                         H #1 z    -2.3191516208
                         O #2 z     2.3191516208


 H #1 1     0.0000000000            1.7750428026           -1.1595758104
 H #1 2     0.0000000000           -1.7750428026           -1.1595758104
 O #2       0.0000000000            0.0000000000            2.3191516208


  Evaluation of 2e integral derivatives required    0.09 seconds.

                            Molecular gradient
                            ------------------

                         H #1 y    -0.1958780861
                         H #1 z     0.1067498359
                         O #2 z    -0.1067498359


 H #1 1     0.0000000000           -0.0979390431            0.0533749179
 H #1 2     0.0000000000            0.0979390431            0.0533749179
 O #2       0.0000000000            0.0000000000           -0.1067498359


  Molecular gradient norm 0.247E+00

                           Total dipole moment
                           -------------------

                               au             Debye

                    z      0.70646085      1.79564470

  Conversion factor used: 1 a.u. =   2.54174691 Debye 


  @CHECKOUT-I, Total execution time :       0.1000 seconds.
                0.00 seconds walltime passed
 --executable xvdint finished with status            0
 --invoking executable xjoda
   JODA beginning optimization cycle #  1.
 OriVec is   0.000000000000000E+000  -1.00000000000000     
 -1.715388910777645E-016                    -2
   Internal coordinate forces and energy gradients (atomic units): 
           R       dV/dR             R       dV/dR             R       dV/dR
 [R    ]  2.40000  0.1106073 [R    ]  2.40000  0.1106073 [A    ]  1.88496  0.0345262
                     0                     0                     0 ****
   Optimization cycle  1.  Updating structure with Newton-Raphson step.
  @EFOL-I, Current internal coordinate Hessian written to FCMINT.
   There are   2 independent internal coordinates which will be optimized.
   Hessian matrix in totally symmetric symmetry coordinates: 
              R         A    
  R          1.000000  0.000000
  A          0.000000  0.250000
   The eigenvectors of the Hessian matrix: 
                   1         2
  R          0.000000  1.000000
  A          1.000000  0.000000
   The eigenvalues of the Hessian matrix: 
     0.25000    1.00000
   Gradients along Hessian eigenvectors: 
     0.03453    0.15642
   There are  0 negative eigenvalues.
   Summary of Optimization Cycle: 
   The maximum unscaled step is:    0.17694.
   Scale factor set to:  1.00000.
   Forces are in hartree/bohr and hartree/radian.
   Parameter values are in Angstroms and degrees.
--------------------------------------------------------------------------
  Parameter     dV/dR           Step          Rold            Rnew
--------------------------------------------------------------------------
    R       0.1106073399   -0.0585308714    1.2700250400    1.2114941686
    A       0.0345261827   -7.9128182012  108.0000000000  100.0871817988
--------------------------------------------------------------------------
  Minimum force:  0.034526183 / RMS force:  0.081933024
 Updating structure...
   Rotational constants (in cm-1): 
          5.9739519168             9.6978789034            15.5574108921
   Rotational constants (in MHz): 
     179094.5980004430        290735.1361145567        466399.5104880094
 ----------------------------------------------------------------
 Z-matrix   Atomic            Coordinates (in bohr)
  Symbol    Number           X              Y              Z
 ----------------------------------------------------------------
     H         1         0.00000000    -1.75489561     1.30571473
     O         8         0.00000000     0.00000000    -0.16454380
     H         1         0.00000000     1.75489561     1.30571473
 ----------------------------------------------------------------
   Interatomic distance matrix (Angstroms) 
 
                 H             O             H    
                [ 1]        [ 2]        [ 3]
  H    [ 1]     0.00000
  O    [ 2]     1.21149     0.00000
  H    [ 3]     1.85730     1.21149     0.00000
   Rotational constants (in cm-1): 
          5.9739519168            15.5574108921             9.6978789034
   Rotational constants (in MHz): 
     179094.5980004430        466399.5104880095        290735.1361145568
  There are   24 basis functions.
                0.00 seconds walltime passed
 --executable xjoda finished with status            0
 --invoking executable xvmol
 Serial version of molecule started
 
    -------------------------------------------------------------------
                    Input from MOL file
    -------------------------------------------------------------------
 INTGRL        1    0    1    0    0    0    0    0    0                        
          *** CFOUR Program System (Release V0.1) ***                           
 MIN4                                                                           
     2    2 X  Y       0.10E-08              0    0                             
    9999.00      3.00                                                           
           1.00000000    1    2    1    1                                       
 H #1   0.000000000000000  -1.754895612815016   1.305714731199741               
     4    2                                                                     
    13.0100000000000       1.968500000000000E-002  0.000000000000000E+000       
    1.96200000000000       0.137977000000000       0.000000000000000E+000       
   0.444600000000000       0.478148000000000       0.000000000000000E+000       
   0.122000000000000       0.501240000000000        1.00000000000000            
     1    1                                                                     
   0.727000000000000        1.00000000000000                                    
           8.00000000    1    3    1    1    1                                  
 O #2   0.000000000000000   0.000000000000000  -0.164543797214552               
     9    3                                                                     
    11720.0000000000       7.100000000000000E-004 -1.600000000000000E-004       
   0.000000000000000E+000                                                       
    1759.00000000000       5.470000000000000E-003 -1.263000000000000E-003       
   0.000000000000000E+000                                                       
    400.800000000000       2.783700000000000E-002 -6.267000000000000E-003       
   0.000000000000000E+000                                                       
    113.700000000000       0.104800000000000      -2.571600000000000E-002       
   0.000000000000000E+000                                                       
    37.0300000000000       0.283062000000000      -7.092400000000000E-002       
   0.000000000000000E+000                                                       
    13.2700000000000       0.448719000000000      -0.165411000000000            
   0.000000000000000E+000                                                       
    5.02500000000000       0.270952000000000      -0.116955000000000            
   0.000000000000000E+000                                                       
    1.01300000000000       1.545800000000000E-002  0.557368000000000            
   0.000000000000000E+000                                                       
   0.302300000000000      -2.585000000000000E-003  0.572759000000000            
    1.00000000000000                                                            
     4    2                                                                     
    17.7000000000000       4.301800000000000E-002  0.000000000000000E+000       
    3.85400000000000       0.228913000000000       0.000000000000000E+000       
    1.04600000000000       0.508728000000000       0.000000000000000E+000       
   0.275300000000000       0.460531000000000        1.00000000000000            
     1    1                                                                     
    1.18500000000000        1.00000000000000                                    
 FINISH                                                                         
 
    -------------------------------------------------------------------
 
 One- and two-electron integrals over symmetry-adapted AOs are calculated.

  Spherical harmonics are used.
  
  Integrals less than  0.10E-13 are neglected.

  Nuclear repulsion energy :    7.2736703096 a.u.
  required memory for a1 array                5013204  words 
  required memory for a2 array                2046060  words 
 basis number:   1     5
 basis number:   8    15
  @GETMEM-I,   Allocated      69 MB of main memory.
  @MOLECU-I, One electron integrals required         0.00000 seconds.
  @TWOEL-I,       2350 integrals of symmetry type  I I I I
  @TWOEL-I,       4467 integrals of symmetry type  I J I J
  @TWOEL-I,       2860 integrals of symmetry type  I I J J
  @TWOEL-I,       1735 integrals of symmetry type  I J K L
  @TWOEL-I, Total number of 2-e integrals      11412.
  @MOLECU-I, Two electron integrals required         0.04000 seconds.
  @CHECKOUT-I, Total execution time :       0.0600 seconds.
                0.00 seconds walltime passed
 --executable xvmol finished with status            0
 --invoking executable xvmol2ja
  @GETMEM-I,   Allocated    6675 MB of main memory.
  @CHECKOUT-I, Total execution time :       0.0000 seconds.
                0.00 seconds walltime passed
 --executable xvmol2ja finished with status            0
 --invoking executable xvscf
 NSOSCF                     0
  There are   24 functions in the AO basis.

  There are 4 irreducible representations.

       Irrep        # of functions
         1                 11
         2                  4
         3                  7
         4                  2


  Parameters for SCF calculation: 
        SCF reference function:  RHF  
  Maximum number of iterations:  150
     Full symmetry point group: C2v 
     Computational point group: C2v 
        Initial density matrix: MOREAD                 
     SCF convergence tolerance: 10**(- 9)
  DIIS convergence acceleration:  ON
          Latest start for DIIS:   8
                     DIIS order:   6

     Alpha population by irrep:   3    1    1    0
      Beta population by irrep:   3    1    1    0


  Memory information:      62156 words required.
  Fock matrices are constructed from AO integral file.
  @GETMEM-I,   Allocated       0 MB of main memory.
  Initialization and symmetry analysis required      0.000 seconds.

 total no. of electrons in initial guess :  0.000000000000000E+000
  --------------------------------------------------------------------
  Iteration         Total Energy            Largest Density Difference
  --------------------------------------------------------------------
       0           -75.991332954829915              0.0000000000D+00
   current occupation vector 
     3  1  1  0
     3  1  1  0
       1           -75.938180940379084              0.3033706243D-01
   current occupation vector 
     3  1  1  0
     3  1  1  0
       2           -75.938421673022248              0.2888414997D-01
   current occupation vector 
     3  1  1  0
     3  1  1  0
       3           -75.938524683174691              0.1497623978D-01
   current occupation vector 
     3  1  1  0
     3  1  1  0
       4           -75.938530009966527              0.3631159512D-02
   current occupation vector 
     3  1  1  0
     3  1  1  0
       5           -75.938530902227740              0.1333629108D-02
   current occupation vector 
     3  1  1  0
     3  1  1  0
       6           -75.938530995425069              0.5085699339D-03
   current occupation vector 
     3  1  1  0
     3  1  1  0
       7           -75.938531002228757              0.1509148941D-03
   current occupation vector 
     3  1  1  0
     3  1  1  0
       8           -75.938531002447220              0.2918407856D-04
   current occupation vector 
     3  1  1  0
     3  1  1  0
       9           -75.938531002449949              0.4143845042D-05
   current occupation vector 
     3  1  1  0
     3  1  1  0
      10           -75.938531002450034              0.4117841050D-06
   current occupation vector 
     3  1  1  0
     3  1  1  0
      11           -75.938531002450134              0.1114920176D-06
   current occupation vector 
     3  1  1  0
     3  1  1  0
      12           -75.938531002449935              0.2678784194D-07
   current occupation vector 
     3  1  1  0
     3  1  1  0
      13           -75.938531002450077              0.4457256342D-08
   current occupation vector 
     3  1  1  0
     3  1  1  0

  SCF has converged.

 save density matrix on hard disk
 total electron number:   10.0000000000000     
     E(SCF)=       -75.938531002449977              0.3420632666D-09

  Eigenvector printing suppressed.

 @PUTMOS-I, Writing converged MOs to NEWMOS. 
 @PUTMOS-I, Symmetry   1 Full   2 Partial   3
 @PUTMOS-I, Symmetry   2 Full   1 Partial   0
 @PUTMOS-I, Symmetry   3 Full   1 Partial   3
 @PUTMOS-I, Symmetry   4 Full   0 Partial   2
 @PUTMOS-I, NEWMOS already exists and will be deleted. 
  @DMPJOB-I, Rotating orbitals to semicanonical basis.
             *** Eigenvalues correspond to new basis. ***



 
  ORBITAL EIGENVALUES (ALPHA)  (1H = 27.2113838 eV)

       MO #        E(hartree)               E(eV)           FULLSYM    COMPSYM
       ----   --------------------   --------------------   -------   ---------
    1     1         -20.5951604537        -560.4228159320      A1        A1 (1)
    2     2          -1.2493253128         -33.9958706020      A1        A1 (1)
    3    16          -0.5820426017         -15.8381846340      B2        B2 (3)
    4     3          -0.5288983077         -14.3920548536      A1        A1 (1)
    5    12          -0.4874748593         -13.2648654990      B1        B1 (2)
  +++++++++++++++++++++++++++++++++++++++++++++++++++++++++++++++++++++++++++++
    6     4           0.1322853632           3.5996677920      A1        A1 (1)
    7    17           0.1991255455           5.4184816462      B2        B2 (3)
    8    18           0.6570755248          17.8799343042      B2        B2 (3)
    9     5           0.6962668028          18.9463832118      A1        A1 (1)
   10    13           1.1661461402          31.7324502097      B1        B1 (2)
   11     6           1.1787121968          32.0743899997      A1        A1 (1)
   12    19           1.2875804537          35.0368459249      B2        B2 (3)
   13    23           1.4510062203          39.4838871839      A2        A2 (4)
   14     7           1.4751071181          40.1397059652      A1        A1 (1)
   15    14           1.6423556369          44.6907696048      B1        B1 (2)
   16    20           1.7441550585          47.4608727386      B2        B2 (3)
   17     8           1.8308930047          49.8211322830      A1        A1 (1)
   18    21           1.9553787626          53.2085620225      B2        B2 (3)
   19     9           2.1124846987          57.4836319497      A1        A1 (1)
   20    15           3.1093121075          84.6086851720      B1        B1 (2)
   21    24           3.1218000481          84.9484993164      A2        A2 (4)
   22    10           3.2109652184          87.3748069885      A1        A1 (1)
   23    11           3.5983153938          97.9151412849      A1        A1 (1)
   24    22           3.8507196646         104.7834107753      B2        B2 (3)


  VSCF finished.

  @CHECKOUT-I, Total execution time :       0.0100 seconds.
                0.00 seconds walltime passed
 --executable xvscf finished with status            0
 --invoking executable xvtran
  @GETMEM-I,   Allocated    6675 MB of main memory.
  Full RHF integral transformation
  Transformation of IIII integrals :
  1 pass through the AO integral file was required.
        2350 AO integrals were read.
        2678 MO integrals were written to HF2.
  Transformation of IIJJ integrals :
  1 pass through the AO integral file was required.
        2860 AO integrals were read.
        3100 MO integrals were written to HF2.
  Transformation of IJIJ integrals :
  1 pass through the AO integral file was required.
        4467 AO integrals were read.
        4793 MO integrals were written to HF2.
  Transformation of IJKL integrals :
  1 pass through the AO integral file was required.
        1735 AO integrals were read.
        1848 MO integrals were written to HF2.
  Summary of active molecular orbitals: 
------------------------------------------------------------------------
 
  Index      Eigenvalue    Symmetry    Index      Eigenvalue    Symmetry
------------------------------------------------------------------------
     1       -20.5951605        1        13         3.5983154        1
     2        -1.2493253        1        14         1.1661461        2
     3        -0.5288983        1        15         1.6423556        2
     4        -0.4874749        2        16         3.1093121        2
     5        -0.5820426        3        17         0.1991255        3
     6         0.1322854        1        18         0.6570755        3
     7         0.6962668        1        19         1.2875805        3
     8         1.1787122        1        20         1.7441551        3
     9         1.4751071        1        21         1.9553788        3
    10         1.8308930        1        22         3.8507197        3
    11         2.1124847        1        23         1.4510062        4
    12         3.2109652        1        24         3.1218000        4
------------------------------------------------------------------------
  @CHECKOUT-I, Total execution time :       0.0000 seconds.
                0.25 seconds walltime passed
 --executable xvtran finished with status            0
 --invoking executable xintprc
  @GETMEM-I,   Allocated    6675 MB of main memory.
  @GMOIAA-I, Processing MO integrals for spin case AA.
  @GMOIAA-I, Generation of integral list completed.
                      TYPE                NUMBER
                      ----               --------
                      PPPP                  4957
                      PPPH                  4884
                      PPHH                  1277
                      PHPH                   832
                      PHHH                   420
                      HHHH                    49

                     TOTAL                 12419

  @FORMT2-I, Second-order MP correlation energies:
              ----------------------------------------------
              E(SCF)                =  -75.938531002450 a.u.
              E2(AA)                =   -0.027218568708 a.u.
              E2(AB)                =   -0.169419373867 a.u.
              E2(TOT)               =   -0.223856511283 a.u.
              Total MP2 energy      =  -76.162387513733 a.u.
              ----------------------------------------------
   Largest T2 amplitudes for spin case AB:
       _       _                 _       _                 _       _
   i   j   a   b             i   j   a   b             i   j   a   b
-----------------------------------------------------------------------------
[  5   5  17  17]-0.05611 [  4   4  14  14]-0.04533 [  3   3   6   6]-0.04113
[  5   3  17   6]-0.03888 [  3   5   6  17]-0.03888 [  5   4  17  14]-0.03100
[  4   5  14  17]-0.03100 [  3   3   8   8]-0.03038 [  5   5  18  18]-0.02791
[  3   4   8  14] 0.02709 [  4   3  14   8] 0.02709 [  5   5  17  18]-0.02582
[  5   5  18  17]-0.02582 [  5   3  17   8] 0.02443 [  3   5   8  17] 0.02443
-----------------------------------------------------------------------------
   Norm of T2AB vector (     2459 symmetry allowed elements):  0.2297507925.
-----------------------------------------------------------------------------
  @CHECKOUT-I, Total execution time :       0.0000 seconds.
                0.00 seconds walltime passed
 --executable xintprc finished with status            0
 --invoking executable xvcc
  @GETMEM-I,   Allocated    6675 MB of main memory.
   CCSD(T) energy will be calculated.
   The total correlation energy is -0.223856511283 a.u.
   The total correlation energy is -0.224874754261 a.u.
  Convergence information after     1 iterations: 
  Largest element of residual vector :  0.10701907E-01.
  Largest element of DIIS residual   :  0.10701907E-01.
   The total correlation energy is -0.231172912403 a.u.
  Convergence information after     2 iterations: 
  Largest element of residual vector : -0.55087579E-02.
  Largest element of DIIS residual   : -0.58368184E-02.
   The total correlation energy is -0.232647305063 a.u.
  Convergence information after     3 iterations: 
  Largest element of residual vector :  0.28307671E-02.
  Largest element of DIIS residual   :  0.22089707E-02.
   The total correlation energy is -0.233756039317 a.u.
  Convergence information after     4 iterations: 
  Largest element of residual vector : -0.69079159E-03.
  Largest element of DIIS residual   : -0.44899426E-03.
   The total correlation energy is -0.233822550999 a.u.
  Convergence information after     5 iterations: 
  Largest element of residual vector :  0.47321580E-03.
  Largest element of DIIS residual   :  0.26901577E-03.
   The total correlation energy is -0.233837638220 a.u.
  Convergence information after     6 iterations: 
  Largest element of residual vector :  0.14038976E-03.
  Largest element of DIIS residual   : -0.67673787E-04.
   The total correlation energy is -0.233834809322 a.u.
  Convergence information after     7 iterations: 
  Largest element of residual vector :  0.65800436E-04.
  Largest element of DIIS residual   :  0.13594777E-04.
   The total correlation energy is -0.233836182201 a.u.
  Convergence information after     8 iterations: 
  Largest element of residual vector :  0.11235998E-04.
  Largest element of DIIS residual   :  0.57915532E-05.
   The total correlation energy is -0.233836208248 a.u.
  Convergence information after     9 iterations: 
  Largest element of residual vector :  0.30930443E-05.
  Largest element of DIIS residual   : -0.20075792E-05.
   The total correlation energy is -0.233836168613 a.u.
  Convergence information after    10 iterations: 
  Largest element of residual vector :  0.16385296E-05.
  Largest element of DIIS residual   :  0.58653602E-06.
   The total correlation energy is -0.233836193137 a.u.
  Convergence information after    11 iterations: 
  Largest element of residual vector : -0.21533243E-06.
  Largest element of DIIS residual   : -0.11665467E-06.
  Amplitude equations converged in    11iterations.
   The total correlation energy is -0.233836192515 a.u.
   The CC iterations have converged.

   Largest T1 amplitudes for spin case AA:
   i       a                 i       a                 i       a    
-----------------------------------------------------------------------------
[  3       6    ] 0.01987 [  5      19    ] 0.01204 [  5      21    ] 0.01134
[  3      10    ] 0.01077 [  3       7    ] 0.00747 [  4      14    ] 0.00628
[  2       8    ] 0.00602 [  5      17    ] 0.00575 [  3       8    ] 0.00555
[  2      10    ] 0.00460 [  5      18    ] 0.00456 [  3      11    ]-0.00362
[  4      15    ] 0.00352 [  3       9    ] 0.00348 [  5      20    ] 0.00323
-----------------------------------------------------------------------------
   Norm of T1AA vector (       33 symmetry allowed elements):  0.0329183318.
-----------------------------------------------------------------------------
   Largest T2 amplitudes for spin case AB:
       _       _                 _       _                 _       _
   i   j   a   b             i   j   a   b             i   j   a   b
-----------------------------------------------------------------------------
[  5   5  17  17]-0.06822 [  3   3   6   6]-0.05523 [  4   4  14  14]-0.04872
[  5   3  17   6]-0.04598 [  3   5   6  17]-0.04598 [  5   5  18  17]-0.03498
[  5   5  17  18]-0.03498 [  5   5   6   6]-0.03483 [  5   5  18  18]-0.03367
[  3   3   8   8]-0.03148 [  5   3   6  17]-0.03147 [  3   5  17   6]-0.03147
[  3   3  17  17]-0.03018 [  3   3   7   6]-0.02826 [  3   3   6   7]-0.02826
-----------------------------------------------------------------------------
   Norm of T2AB vector (     2459 symmetry allowed elements):  0.2694709465.
-----------------------------------------------------------------------------
       Summary of iterative solution of CC equations 
      -----------------------------------------------------------
                       Correlation           Total
       Iteration         Energy              Energy
      -----------------------------------------------------------
            0        -0.223856511283     -76.162387513733  DIIS 
            1        -0.224874754261     -76.163405756711  DIIS 
            2        -0.231172912403     -76.169703914853  DIIS 
            3        -0.232647305063     -76.171178307513  DIIS 
            4        -0.233756039317     -76.172287041767  DIIS 
            5        -0.233822550999     -76.172353553449  DIIS 
            6        -0.233837638220     -76.172368640670  DIIS 
            7        -0.233834809322     -76.172365811772  DIIS 
            8        -0.233836182201     -76.172367184651  DIIS 
            9        -0.233836208248     -76.172367210698  DIIS 
           10        -0.233836168613     -76.172367171063  DIIS 
           11        -0.233836192515     -76.172367194965  DIIS 
      -----------------------------------------------------------
      A miracle has come to pass. The CC iterations have converged.
        E(CCSD)           =     -76.172367194965
        E(CCSD + T(CCSD)) =     -76.177463490938
        E(CCSD(T))        =     -76.177244807411
  @CHECKOUT-I, Total execution time :       0.1300 seconds.
 --executable xvcc finished with status            0
 --invoking executable xlambda
  @GETMEM-I,   Allocated    6675 MB of main memory.
  The Lambda equations are solved for CCSD(T).
  Initial lambda amplitudes: 
  Convergence information after     1 iterations: 
  Largest element of residual vector : -0.59265858E-02.
  Largest element of DIIS residual   : -0.59265858E-02.
  Convergence information after     2 iterations: 
  Largest element of residual vector :  0.16765651E-02.
  Largest element of DIIS residual   :  0.13441990E-02.
  Convergence information after     3 iterations: 
  Largest element of residual vector : -0.61677586E-03.
  Largest element of DIIS residual   : -0.26607207E-03.
  Convergence information after     4 iterations: 
  Largest element of residual vector :  0.24662379E-03.
  Largest element of DIIS residual   :  0.19914702E-03.
  Convergence information after     5 iterations: 
  Largest element of residual vector :  0.11207451E-03.
  Largest element of DIIS residual   :  0.50821162E-04.
  Convergence information after     6 iterations: 
  Largest element of residual vector :  0.42965269E-04.
  Largest element of DIIS residual   : -0.15037929E-04.
  Convergence information after     7 iterations: 
  Largest element of residual vector :  0.11774209E-04.
  Largest element of DIIS residual   : -0.40979140E-05.
  Convergence information after     8 iterations: 
  Largest element of residual vector : -0.20836304E-05.
  Largest element of DIIS residual   :  0.73894560E-06.
  Convergence information after     9 iterations: 
  Largest element of residual vector : -0.44078476E-06.
  Largest element of DIIS residual   : -0.34623513E-06.
  Convergence information after    10 iterations: 
  Largest element of residual vector : -0.20047329E-06.
  Largest element of DIIS residual   :  0.10447696E-06.
  Convergence information after    11 iterations: 
  Largest element of residual vector :  0.73379225E-07.
  Largest element of DIIS residual   :  0.40938316E-07.
  Amplitude equations converged in    11 iterations.
      The lambda equations have converged.
  @CHECKOUT-I, Total execution time :       0.0600 seconds.
 --executable xlambda finished with status            0
 --invoking executable xdens
  @GETMEM-I,   Allocated    6675 MB of main memory.
  CCSD(T) density and intermediates are calculated.
  The perturbed orbitals are chosen canonical.
  The iterative expansion of D(ai) converged after  16 iterations.
  ----------------------------------------------------------------------
                 Natural orbital occupation numbers
  ----------------------------------------------------------------------
  1.99993  1.98207  1.97100  1.93811  1.93524  0.05600  0.05538  0.01870
  0.01083  0.00577  0.00506  0.00453  0.00409  0.00407  0.00222  0.00201
  0.00126  0.00106  0.00082  0.00061  0.00058  0.00050  0.00010  0.00008
  Trace of density matrix :  10.0000000000.
  ----------------------------------------------------------------------
  Density calculation successfully completed.
  @CHECKOUT-I, Total execution time :       0.0200 seconds.
                0.00 seconds walltime passed
 --executable xdens finished with status            0
 --invoking executable xanti
  @GETMEM-I,   Allocated    6675 MB of main memory.
 CCSD(T) MO gammas will be sorted to Mulliken order.
  @CHECKOUT-I, Total execution time :       0.0000 seconds.
                0.00 seconds walltime passed
 --executable xanti finished with status            0
 --invoking executable xbcktrn
  @GETMEM-I,   Allocated    6675 MB of main memory.
  @CHECKOUT-I, Total execution time :       0.0000 seconds.
                0.00 seconds walltime passed
 --executable xbcktrn finished with status            0
 --invoking executable xvdint
  @GETMEM-I,   Allocated    6675 MB of main memory.
 One- and two-electron integral derivatives are calculated
 for RHF-CC/MBPT gradients and dipole moments.
 Spherical gaussians are used.

                     Kinetic energy integral gradient
                     --------------------------------

                         H #1 y     0.6058810161
                         H #1 z    -0.4995881359
                         O #2 z     0.4995881359


 H #1 1     0.0000000000            0.3029405081           -0.2497940679
 H #1 2     0.0000000000           -0.3029405081           -0.2497940679
 O #2       0.0000000000            0.0000000000            0.4995881359



                   Nuclear attraction integral gradient
                   ------------------------------------

                         H #1 y    -7.2090180139
                         H #1 z     5.8531718229
                         O #2 z    -5.8531718229


 H #1 1     0.0000000000           -3.6045090070            2.9265859114
 H #1 2     0.0000000000            3.6045090070            2.9265859114
 O #2       0.0000000000            0.0000000000           -5.8531718229



                      Reorthonormalization gradient
                      -----------------------------

                         H #1 y     0.3602145156
                         H #1 z    -0.3220393991
                         O #2 z     0.3220393991


 H #1 1     0.0000000000            0.1801072578           -0.1610196996
 H #1 2     0.0000000000           -0.1801072578           -0.1610196996
 O #2       0.0000000000            0.0000000000            0.3220393991



                Electronic contributions to dipole moment
                -----------------------------------------

                               au             Debye

                    z     -0.52166771     -1.32594728

  Conversion factor used: 1 a.u. =   2.54174691 Debye 


  Evaluation of 1e integral derivatives required    0.00 seconds.
  Evaluation of 2el integral derivatives

                      Two-electron integral gradient
                      ------------------------------

                         H #1 y     3.5680137338
                         H #1 z    -2.9437122601
                         O #2 z     2.9437122601


 H #1 1     0.0000000000            1.7840068669           -1.4718561301
 H #1 2     0.0000000000           -1.7840068669           -1.4718561301
 O #2       0.0000000000            0.0000000000            2.9437122601


  Evaluation of 2e integral derivatives required    0.10 seconds.

                            Molecular gradient
                            ------------------

                         H #1 y    -0.1725824274
                         H #1 z     0.1273952939
                         O #2 z    -0.1273952939


 H #1 1     0.0000000000           -0.0862912137            0.0636976469
 H #1 2     0.0000000000            0.0862912137            0.0636976469
 O #2       0.0000000000            0.0000000000           -0.1273952939


  Molecular gradient norm 0.249E+00

                           Total dipole moment
                           -------------------

                               au             Debye

                    z      0.77341138      1.96581599

  Conversion factor used: 1 a.u. =   2.54174691 Debye 


  @CHECKOUT-I, Total execution time :       0.1000 seconds.
                0.00 seconds walltime passed
 --executable xvdint finished with status            0
 --invoking executable xjoda
[...]
        E(CCSD(T))        =     -76.243404987934
  @CHECKOUT-I, Total execution time :       0.1200 seconds.
 --executable xvcc finished with status            0
 --invoking executable xlambda
  @GETMEM-I,   Allocated    6675 MB of main memory.
  The Lambda equations are solved for CCSD(T).
  Initial lambda amplitudes: 
  Convergence information after     1 iterations: 
  Largest element of residual vector : -0.26640856E-02.
  Largest element of DIIS residual   : -0.26640856E-02.
  Convergence information after     2 iterations: 
  Largest element of residual vector :  0.88681739E-03.
  Largest element of DIIS residual   :  0.56500631E-03.
  Convergence information after     3 iterations: 
  Largest element of residual vector :  0.22363715E-03.
  Largest element of DIIS residual   : -0.88117120E-04.
  Convergence information after     4 iterations: 
  Largest element of residual vector :  0.67725527E-04.
  Largest element of DIIS residual   :  0.58637397E-04.
  Convergence information after     5 iterations: 
  Largest element of residual vector :  0.36216675E-04.
  Largest element of DIIS residual   :  0.17390751E-04.
  Convergence information after     6 iterations: 
  Largest element of residual vector :  0.13643528E-04.
  Largest element of DIIS residual   :  0.54998999E-05.
  Convergence information after     7 iterations: 
  Largest element of residual vector :  0.44995060E-05.
  Largest element of DIIS residual   : -0.12712433E-05.
  Convergence information after     8 iterations: 
  Largest element of residual vector : -0.59953523E-06.
  Largest element of DIIS residual   : -0.14116323E-06.
  Convergence information after     9 iterations: 
  Largest element of residual vector : -0.10808099E-06.
  Largest element of DIIS residual   :  0.42051288E-07.
  Amplitude equations converged in     9 iterations.
      The lambda equations have converged.
  @CHECKOUT-I, Total execution time :       0.0500 seconds.
 --executable xlambda finished with status            0
 --invoking executable xdens
  @GETMEM-I,   Allocated    6675 MB of main memory.
  CCSD(T) density and intermediates are calculated.
  The perturbed orbitals are chosen canonical.
  The iterative expansion of D(ai) converged after  16 iterations.
  ----------------------------------------------------------------------
                 Natural orbital occupation numbers
  ----------------------------------------------------------------------
  1.99992  1.98408  1.97194  1.96445  1.96147  0.02909  0.02649  0.01754
  0.01168  0.00623  0.00586  0.00529  0.00467  0.00455  0.00134  0.00125
  0.00082  0.00079  0.00074  0.00060  0.00057  0.00053  0.00007  0.00005
  Trace of density matrix :  10.0000000000.
  ----------------------------------------------------------------------
  Density calculation successfully completed.
  @CHECKOUT-I, Total execution time :       0.0200 seconds.
                0.00 seconds walltime passed
 --executable xdens finished with status            0
 --invoking executable xanti
  @GETMEM-I,   Allocated    6675 MB of main memory.
 CCSD(T) MO gammas will be sorted to Mulliken order.
  @CHECKOUT-I, Total execution time :       0.0000 seconds.
                0.00 seconds walltime passed
 --executable xanti finished with status            0
 --invoking executable xbcktrn
  @GETMEM-I,   Allocated    6675 MB of main memory.
  @CHECKOUT-I, Total execution time :       0.0000 seconds.
                0.00 seconds walltime passed
 --executable xbcktrn finished with status            0
 --invoking executable xvdint
  @GETMEM-I,   Allocated    6675 MB of main memory.
 One- and two-electron integral derivatives are calculated
 for RHF-CC/MBPT gradients and dipole moments.
 Spherical gaussians are used.

                     Kinetic energy integral gradient
                     --------------------------------

                         H #1 y     1.1382032700
                         H #1 z    -0.9072179636
                         O #2 z     0.9072179636


 H #1 1     0.0000000000            0.5691016350           -0.4536089818
 H #1 2     0.0000000000           -0.5691016350           -0.4536089818
 O #2       0.0000000000            0.0000000000            0.9072179636



                   Nuclear attraction integral gradient
                   ------------------------------------

                         H #1 y   -10.7687949115
                         H #1 z     8.5500322044
                         O #2 z    -8.5500322044


 H #1 1     0.0000000000           -5.3843974557            4.2750161022
 H #1 2     0.0000000000            5.3843974557            4.2750161022
 O #2       0.0000000000            0.0000000000           -8.5500322044



                      Reorthonormalization gradient
                      -----------------------------

                         H #1 y     0.5533523210
                         H #1 z    -0.4788618072
                         O #2 z     0.4788618072


 H #1 1     0.0000000000            0.2766761605           -0.2394309036
 H #1 2     0.0000000000           -0.2766761605           -0.2394309036
 O #2       0.0000000000            0.0000000000            0.4788618072



                Electronic contributions to dipole moment
                -----------------------------------------

                               au             Debye

                    z     -0.23637078     -0.60079471

  Conversion factor used: 1 a.u. =   2.54174691 Debye 


  Evaluation of 1e integral derivatives required    0.00 seconds.
  Evaluation of 2el integral derivatives

                      Two-electron integral gradient
                      ------------------------------

                         H #1 y     5.0967113148
                         H #1 z    -4.1388456633
                         O #2 z     4.1388456633


 H #1 1     0.0000000000            2.5483556574           -2.0694228317
 H #1 2     0.0000000000           -2.5483556574           -2.0694228317
 O #2       0.0000000000            0.0000000000            4.1388456633


  Evaluation of 2e integral derivatives required    0.10 seconds.

                            Molecular gradient
                            ------------------

                         H #1 y     0.0000010423
                         H #1 z     0.0000008136
                         O #2 z    -0.0000008136


 H #1 1     0.0000000000            0.0000005212            0.0000004068
 H #1 2     0.0000000000           -0.0000005212            0.0000004068
 O #2       0.0000000000            0.0000000000           -0.0000008136


  Molecular gradient norm 0.155E-05

                           Total dipole moment
                           -------------------

                               au             Debye

                    z      0.77594186      1.97224784

  Conversion factor used: 1 a.u. =   2.54174691 Debye 


  @CHECKOUT-I, Total execution time :       0.1000 seconds.
                0.00 seconds walltime passed
 --executable xvdint finished with status            0
 --invoking executable xjoda
   JODA beginning optimization cycle #  9.
   Retrieving information from last optimization cycle.
 OriVec is   0.000000000000000E+000  -1.00000000000000     
  1.566229075354563E-016                    -2
   Internal coordinate forces and energy gradients (atomic units): 
           R       dV/dR             R       dV/dR             R       dV/dR
 [R    ]  1.82500 -0.0000001 [R    ]  1.82500 -0.0000001 [A    ]  1.77920 -0.0000012
                     8                    -1                     0 ****
   Hessian from cycle  8 read.
   BFGS update using last two gradients and previous step.
   Optimization cycle  9.  Updating structure with Newton-Raphson step.
  @EFOL-I, Current internal coordinate Hessian written to FCMINT.
   There are   2 independent internal coordinates which will be optimized.
   Hessian matrix in totally symmetric symmetry coordinates: 
              R         A    
  R          0.537856  0.045477
  A          0.045477  0.174150
   The eigenvectors of the Hessian matrix: 
                   1         2
  R          0.122217  0.992503
  A         -0.992503  0.122217
   The eigenvalues of the Hessian matrix: 
     0.16855    0.54346
   Gradients along Hessian eigenvectors: 
     0.00000   -0.00000
   There are  0 negative eigenvalues.
   Summary of Optimization Cycle: 
   The maximum unscaled step is:    0.00001.
   Scale factor set to:  1.00000.
   Forces are in hartree/bohr and hartree/radian.
   Parameter values are in Angstroms and degrees.
--------------------------------------------------------------------------
  Parameter     dV/dR           Step          Rold            Rnew
--------------------------------------------------------------------------
    R      -0.0000001487   -0.0000000688    0.9657503320    0.9657502631
    A      -0.0000011756    0.0003895355  101.9409000513  101.9412895868
--------------------------------------------------------------------------
  Minimum force:  0.000000149 / RMS force:  0.000000838
--------------------------------------------------------------------------------
   RMS gradient is below .10000E-04.
   Convergence criterion satisfied.  Optimization completed.
--------------------------------------------------------------------------------
   Interatomic distance matrix (Angstroms) 
 
                 H             O             H    
                [ 1]        [ 2]        [ 3]
  H    [ 1]     0.00000
  O    [ 2]     0.96575     0.00000
  H    [ 3]     1.50043     0.96575     0.00000
 @EFOL-I, Writing out completion flag to disk
                0.00 seconds walltime passed
 --executable xjoda finished with status            0
 --invoking executable xvprop
  @GETMEM-I,   Allocated    6675 MB of main memory.
   Property integrals will be calculated.
 
    --------------------------------------------------------------
                                   Property evaluated at 
    Property type                X             Y             Z
    --------------------------------------------------------------
    Dipole moment               ----          ----          ----  
    Quadrupole moment           ----          ----          ----  
    Octopole moment             ----          ----          ----  
    Relativisitic corr.         ----          ----          ----  
    Second moment            0.0000000     0.0000000    -0.0000000
    Electron density         0.0000000    -1.4177020     1.0206261
    Electron density         0.0000000     1.4177020     1.0206261
    Electron density         0.0000000     0.0000000    -0.1286174
    Field gradient           0.0000000    -1.4177020     1.0206261
    Field gradient           0.0000000     1.4177020     1.0206261
    Field gradient           0.0000000     0.0000000    -0.1286174
    Potential                0.0000000    -1.4177020     1.0206261
    Potential                0.0000000     1.4177020     1.0206261
    Potential                0.0000000     0.0000000    -0.1286174
    --------------------------------------------------------------
  @CHECKOUT-I, Total execution time :       0.0200 seconds.
 --executable xvprop finished with status            0
 --invoking executable xprops
  @DRVPRP-I, Properties computed from the SCF density matrix follow.
   Components of electric dipole moment 
        X =    0.0000000000   Y =    0.0000000000   Z =    0.8274347536
   Components of second moment 
       XX =    5.2418627255  YY =    7.1552928030  ZZ =    6.3745770147
       XY =    0.0000000000  XZ =    0.0000000000  YZ =    0.0000000000
   Components of electric quadrupole moment 
       XX =    1.4569023843  YY =   -1.2147333562  ZZ =   -0.2421690281
       XY =    0.0000000000  XZ =    0.0000000000  YZ =   -0.0000000000
   Components of electric octopole moment 
      XXX =    0.0000000000 YYY =    0.0000000000 ZZZ =   -1.6510314005
      XXY =    0.0000000000 XXZ =   -1.2086693120 XYY =    0.0000000000
      YYZ =    2.8597007125 XZZ =    0.0000000000 YZZ =    0.0000000000
      XYZ =    0.0000000000
  Relativistic correction to the energy 
      Darwin =    0.1989571643 p**4   =   -0.2504559967 Total  =   -0.0514988324
   Charge densities at atomic centers 
          Z-matrix                               Charge
           center                               Density
              1                              0.3587681586
              3                              0.3587681586
              2                            297.2270290316
   Electric field gradient at atomic centers 
                             Z-matrix center   1:
       XX =   -0.2721283647  YY =    0.2193500730  ZZ =    0.0527782916
       XY =    0.0000000000  XZ =    0.0000000000  YZ =   -0.3317359022
                             Z-matrix center   3:
       XX =   -0.2721283647  YY =    0.2193500730  ZZ =    0.0527782916
       XY =    0.0000000000  XZ =    0.0000000000  YZ =    0.3317359022
                             Z-matrix center   2:
       XX =   -2.0138013445  YY =    1.7168155536  ZZ =    0.2969857910
       XY =    0.0000000000  XZ =    0.0000000000  YZ =    0.0000000000
   Electrostatic potential at atomic centers 
          Z-matrix                             Potential
           center                               [<1/r>]
              1                             -1.0028472179
              3                             -1.0028472179
              2                            -22.3405036735
  @DRVPRP-I, Properties computed from the correlated density matrix follow.
   Components of electric dipole moment 
        X =    0.0000000000   Y =    0.0000000000   Z =    0.7759418649
   Components of second moment 
       XX =    5.2609493392  YY =    7.2795818741  ZZ =    6.4511704935
       XY =    0.0000000000  XZ =    0.0000000000  YZ =    0.0000000000
   Components of electric quadrupole moment 
       XX =    1.5382570436  YY =   -1.2911823831  ZZ =   -0.2470746605
       XY =    0.0000000000  XZ =    0.0000000000  YZ =   -0.0000000000
   Components of electric octopole moment 
      XXX =    0.0000000000 YYY =    0.0000000000 ZZZ =   -1.4891540216
      XXY =    0.0000000000 XXZ =   -1.0731248501 XYY =    0.0000000000
      YYZ =    2.5622788717 XZZ =    0.0000000000 YZZ =    0.0000000000
      XYZ =    0.0000000000
  Relativistic correction to the energy 
      Darwin =    0.1989300647 p**4   =   -0.2504748984 Total  =   -0.0515448338
   Charge densities at atomic centers 
          Z-matrix                               Charge
           center                               Density
              1                              0.3658499916
              3                              0.3658499916
              2                            297.1847615858
   Electric field gradient at atomic centers 
                             Z-matrix center   1:
       XX =   -0.2783864023  YY =    0.2256153877  ZZ =    0.0527710145
       XY =    0.0000000000  XZ =    0.0000000000  YZ =   -0.3389297654
                             Z-matrix center   3:
       XX =   -0.2783864023  YY =    0.2256153877  ZZ =    0.0527710145
       XY =    0.0000000000  XZ =    0.0000000000  YZ =    0.3389297654
                             Z-matrix center   2:
       XX =   -1.8999339115  YY =    1.5950668277  ZZ =    0.3048670838
       XY =    0.0000000000  XZ =    0.0000000000  YZ =    0.0000000000
   Electrostatic potential at atomic centers 
          Z-matrix                             Potential
           center                               [<1/r>]
              1                             -1.0048221594
              3                             -1.0048221594
              2                            -22.3371027451
 
  Mulliken population analysis of SCF density.
   Total density is analyzed.
 
  Population analysis by orbitals.
 -------------------------------------------------------
     Z-matrix
      Center          Function          Population
 -------------------------------------------------------
         1                S              1.07739689
         3                S              1.07739689
         1                S             -0.31781182
         3                S             -0.31781182
         1                P              0.02156721
         3                P              0.02156721
         1                P              0.03677659
         3                P              0.03677659
         1                P              0.02710350
         3                P              0.02710350
         2                S              2.00076434
         2                S              1.82490264
         2                S             -0.15512180
         2                P              1.83610311
         2                P              0.11964318
         2                P              1.33609841
         2                P             -0.17198321
         2                P              1.53918357
         2                P             -0.03204210
         2                D              0.00136638
         2                D              0.00000000
         2                D              0.00111929
         2                D             -0.00008210
         2                D              0.00895399
         2                D              0.00102953
 -------------------------------------------------------
  Population analysis by atoms (atomic charges).
 -------------------------------------------------------
     Z-matrix
      Center          Function          Population
 -------------------------------------------------------
         1                               0.84503237
         3                               0.84503237
         2                               8.30993526
 -------------------------------------------------------
 
  Mulliken population analysis of CCSD(T) density.
   Total density is analyzed.
 
  Population analysis by orbitals.
 -------------------------------------------------------
     Z-matrix
      Center          Function          Population
 -------------------------------------------------------
         1                S              1.09127950
         3                S              1.09127950
         1                S             -0.31378281
         3                S             -0.31378281
         1                P              0.02490130
         3                P              0.02490130
         1                P              0.03462005
         3                P              0.03462005
         1                P              0.02765600
         3                P              0.02765600
         2                S              2.00099671
         2                S              1.82550235
         2                S             -0.16422416
         2                P              1.80652154
         2                P              0.13518887
         2                P              1.33807748
         2                P             -0.18964042
         2                P              1.52203441
         2                P             -0.03527637
         2                D              0.00398091
         2                D              0.00409237
         2                D              0.00513163
         2                D              0.00248293
         2                D              0.01221685
         2                D              0.00356681
 -------------------------------------------------------
  Population analysis by atoms (atomic charges).
 -------------------------------------------------------
     Z-matrix
      Center          Function          Population
 -------------------------------------------------------
         1                               0.86467405
         3                               0.86467405
         2                               8.27065191
 -------------------------------------------------------
 --executable xprops finished with status            0
