
 Primary working directories    : /tmp/1231578.21.gen4.q
 Secondary working directories  : /tmp/1231578.21.gen4.q
 Wavefunction directory         : /home/vulcan/nlk36701/wfu/
 Main file repository           : /tmp/1231578.21.gen4.q/

 ARCHNAME  : Linux/x86_64
 FC        : /opt/intel/compilers_and_libraries_2016.1.150/linux/bin/intel64/ifort
 FCVERSION : 16.0.1
 BLASLIB   : -mkl
 id        : ccgc

 Nodes     nprocs
 n041         1
 ga_uses_ma=false, calling ma_init with nominal heap.
 GA-space will be limited to   8.0 MW (determined by -G option)

 Using customized tuning parameters: mindgm=10; mindgv=16; mindgc=4; mindgr=1; noblas=0; mincuda=1000; minvec=7
 default implementation of scratch files=df  

 ***,Optimization of min3
 memory,1000,m
 gthresh,energy=1.0d-12,orbital=1.0d-10,oneint=1.0d-16,twoint=1.0d-16,optgrad=1.0d-6,compress=1.0d-13
 geomtyp=xyz
 
  bohr
  geometry = {
  N    0.0000013260   -0.0042172917    0.1333465144
  H    0.8761162110   -1.5223453195   -0.6165793023
  H    0.8869799711    1.5314290421   -0.6186535041
  H   -1.7630975180   -0.0048664309   -0.6176169680
 }
 
 basis=cc-pvdz
 {rhf;maxit,200}
 {ccsd(t);maxit,200}

 Variables initialized (661), CPU time= 0.00 sec
 Commands  initialized (458), CPU time= 0.00 sec, 486 directives.
 Default parameters read. Elapsed time= 0.05 sec

 Checking input...
 Passed
1


                                         ***  PROGRAM SYSTEM MOLPRO  ***
                         Copyright, University College Cardiff Consultants Limited, 2008

                                    Version 2010.1 linked May 16 2016 07:17:05


 **********************************************************************************************************************************
 LABEL *   Optimization of min3                                                          
 Linux-4.4.3/n041(x86_64) 64 bit mpp version                                             DATE: 16-Apr-25          TIME: 10:08:37  
 **********************************************************************************************************************************

 SHA1:             9e8077add272b0f3cad6f7df79ec5211205f459d
 **********************************************************************************************************************************

 THRESHOLDS:

 ZERO    =  1.00D-12  ONEINT  =  1.00D-16  TWOINT  =  1.00D-16  PREFAC  =  1.00D-14  LOCALI  =  1.00D-09  EORDER  =  1.00D-04
 ENERGY  =  1.00D-12  ETEST   =  0.00D+00  EDENS   =  0.00D+00  THRDEDEF=  1.00D-06  GRADIENT=  1.00D-02  STEP    =  1.00D-03
 ORBITAL =  1.00D-10  CIVEC   =  1.00D-05  COEFF   =  1.00D-04  PRINTCI =  5.00D-02  PUNCHCI =  9.90D+01  OPTGRAD =  1.00D-06
 OPTENERG=  1.00D-06  OPTSTEP =  3.00D-04  THRGRAD =  1.00D-10  COMPRESS=  1.00D-13  VARMIN  =  1.00D-07  VARMAX  =  1.00D-03
 THRDOUB =  0.00D+00  THRDIV  =  1.00D-05  THRRED  =  1.00D-07  THRPSP  =  1.00D+00  THRDC   =  1.00D-10  THRCS   =  1.00D-10
 THRNRM  =  1.00D-08  THREQ   =  0.00D+00  THRDE   =  1.00D+00  THRREF  =  1.00D-05  SPARFAC =  1.00D+00  THRDLP  =  1.00D-07
 THRDIA  =  1.00D-10  THRDLS  =  1.00D-07  THRGPS  =  0.00D+00  THRKEX  =  0.00D+00  THRDIS  =  2.00D-01  THRVAR  =  1.00D-10
 THRLOC  =  1.00D-06  THRGAP  =  1.00D-06  THRLOCT = -1.00D+00  THRGAPT = -1.00D+00  THRORB  =  1.00D-06  THRMLTP =  0.00D+00
 THRCPQCI=  1.00D-10  KEXTA   =  0.00D+00  THRCOARS=  0.00D+00  SYMTOL  =  1.00D-06  GRADTOL =  1.00D-06  THROVL  =  1.00D-08
 THRORTH =  1.00D-08  GRID    =  1.00D-06  GRIDMAX =  1.00D-03  DTMAX   =  0.00D+00

 SETTING GEOMTYP        =    XYZ
 ZUNIT=BOHR
 

 Variable memory set to 1000000000 words,  buffer space   230000 words

 SETTING BASIS          =    CC-PVDZ


 Recomputing integrals since basis changed


 Using spherical harmonics

 Library entry N      S cc-pVDZ              selected for orbital group  1
 Library entry N      P cc-pVDZ              selected for orbital group  1
 Library entry N      D cc-pVDZ              selected for orbital group  1
 Library entry H      S cc-pVDZ              selected for orbital group  2
 Library entry H      P cc-pVDZ              selected for orbital group  2

1PROGRAM * SEWARD (Integral evaluation for generally contracted gaussian basis sets)     Author: Roland Lindh, 1990

 Geometry written to block  1 of record 700


 Point group  C1  



 ATOMIC COORDINATES

 NR  ATOM    CHARGE       X              Y              Z

   1  N       7.00    0.000001326   -0.004217292    0.133346514
   2  H       1.00    0.876116211   -1.522345320   -0.616579302
   3  H       1.00    0.886979971    1.531429042   -0.618653504
   4  H       1.00   -1.763097518   -0.004866431   -0.617616968

 Bond lengths in Bohr (Angstrom)

 1-2  1.906483341  1-3  1.926251491  1-4  1.916367425
     ( 1.008867534)     ( 1.019328388)     ( 1.014097965)

 Bond angles

  2-1-3  105.64367944   2-1-4  105.56776598   3-1-4  105.71946637

 NUCLEAR CHARGE:                   10
 NUMBER OF PRIMITIVE AOS:          48
 NUMBER OF SYMMETRY AOS:           47
 NUMBER OF CONTRACTIONS:           29   (  29A   )
 NUMBER OF CORE ORBITALS:           1   (   1A   )
 NUMBER OF VALENCE ORBITALS:        7   (   7A   )


 NUCLEAR REPULSION ENERGY   11.94082094


 Eigenvalues of metric

         1 0.159E-01 0.404E-01 0.412E-01 0.454E-01 0.772E-01 0.777E-01 0.148E+00 0.149E+00


 Contracted 2-electron integrals neglected if value below      1.0D-16
 AO integral compression algorithm  1   Integral accuracy      1.0D-16

     1.049 MB (compressed) written to integral file (100.0%)

     Node minimum: 1.049 MB, node maximum: 1.049 MB


 NUMBER OF SORTED TWO-ELECTRON INTEGRALS:      94830.     BUFFER LENGTH:  32768
 NUMBER OF SEGMENTS:   1  SEGMENT LENGTH:      94830      RECORD LENGTH: 524288

 Memory used in sort:       0.65 MW

 SORT1 READ      121049. AND WROTE       89780. INTEGRALS IN      1 RECORDS. CPU TIME:     0.00 SEC, REAL TIME:     0.01 SEC
 SORT2 READ       89780. AND WROTE       94830. INTEGRALS IN      4 RECORDS. CPU TIME:     0.00 SEC, REAL TIME:     0.01 SEC

 FILE SIZES:   FILE 1:     3.4 MBYTE,  FILE 4:     4.2 MBYTE,   TOTAL:      7.6 MBYTE

 OPERATOR DM      FOR CENTER  0  COORDINATES:    0.000000    0.000000    0.000000


 **********************************************************************************************************************************
 DATASETS  * FILE   NREC   LENGTH (MB)   RECORD NAMES
              1      19        3.40       500      610      700      900      950      970     1000      129      960     1100   
                                          VAR    BASINP    GEOM    SYMINP    ZMAT    AOBASIS   BASIS     P2S    ABASIS      S 
                                         1400     1410     1200     1210     1080     1600     1650     1300     1700   
                                           T        V       H0       H01     AOSYM     SMH    MOLCAS    ERIS     OPER   

 PROGRAMS   *        TOTAL       INT
 CPU TIMES  *         0.23      0.18
 REAL TIME  *         1.26 SEC
 DISK USED  *         9.22 MB      
 GA USED    *         0.00 MB       (max)       0.00 MB       (current)
 **********************************************************************************************************************************

1PROGRAM * RHF-SCF (CLOSED SHELL)       Authors: W. Meyer, H.-J. Werner


 NUMBER OF ELECTRONS:       5+    5-    SPACE SYMMETRY=1    SPIN SYMMETRY: Singlet 
 CONVERGENCE THRESHOLDS:    1.00E-10 (Density)    1.00E-13 (Energy)
 MAX. NUMBER OF ITERATIONS:      200
 INTERPOLATION TYPE:            DIIS
 INTERPOLATION STEPS:              2 (START)      1 (STEP)
 LEVEL SHIFTS:                  0.00 (CLOSED)  0.00 (OPEN) 



 Orbital guess generated from atomic densities. Full valence occupancy:    8

 Molecular orbital dump at record        2100.2

 ITERATION    DDIFF          GRAD             ENERGY        2-EL.EN.            DIPOLE MOMENTS         DIIS
    1      0.000D+00      0.000D+00       -56.16931655     64.269041    0.00001    0.00809   -0.93867    0
    2      0.000D+00      0.154D-01       -56.19120063     62.240554   -0.00000    0.00120   -0.63593    1
    3      0.299D-01      0.681D-02       -56.19535126     63.064000   -0.00000    0.00167   -0.69382    2
    4      0.990D-02      0.115D-02       -56.19557159     62.972316   -0.00001    0.00091   -0.68704    3
    5      0.248D-02      0.240D-03       -56.19558142     62.983873   -0.00001    0.00070   -0.68570    4
    6      0.559D-03      0.375D-04       -56.19558179     62.984249   -0.00001    0.00064   -0.68571    5
    7      0.925D-04      0.820D-05       -56.19558181     62.984205   -0.00001    0.00063   -0.68578    6
    8      0.263D-04      0.149D-05       -56.19558181     62.984196   -0.00001    0.00063   -0.68582    6
    9      0.442D-05      0.382D-06       -56.19558181     62.984197   -0.00001    0.00063   -0.68583    6
   10      0.132D-05      0.500D-07       -56.19558181     62.984196   -0.00001    0.00063   -0.68583    5
   11      0.156D-06      0.702D-08       -56.19558181     62.984196   -0.00001    0.00063   -0.68583    5
   12      0.157D-07      0.203D-08       -56.19558181     62.984196   -0.00001    0.00063   -0.68583    6
   13      0.435D-08      0.400D-09       -56.19558181     62.984196   -0.00001    0.00063   -0.68583    6
   14      0.877D-09      0.890D-10       -56.19558181     62.984196   -0.00001    0.00063   -0.68583    5
   15      0.224D-09      0.202D-10       -56.19558181     62.984196   -0.00001    0.00063   -0.68583    6
   16      0.555D-10      0.292D-11       -56.19558181     62.984196   -0.00001    0.00063   -0.68583    0

 Final occupancy:   5

 !RHF STATE 1.1 Energy                -56.195581812334
 Nuclear energy                        11.94082094
 One-electron energy                  -99.62850082
 Two-electron energy                   31.49209807
 Virial quotient                       -1.00158424
 !RHF STATE 1.1 Dipole moment          -0.00001263     0.00062724    -0.68583446
 Dipole moment /Debye                  -0.00003209     0.00159418    -1.74310314

 Orbital energies:

         1.1          2.1          3.1          4.1          5.1          6.1          7.1
    -15.537847    -1.133165    -0.615471    -0.613400    -0.422270     0.186405     0.269821


 **********************************************************************************************************************************
 DATASETS  * FILE   NREC   LENGTH (MB)   RECORD NAMES
              1      19        3.40       500      610      700      900      950      970     1000      129      960     1100   
                                          VAR    BASINP    GEOM    SYMINP    ZMAT    AOBASIS   BASIS     P2S    ABASIS      S 
                                         1400     1410     1200     1210     1080     1600     1650     1300     1700   
                                           T        V       H0       H01     AOSYM     SMH    MOLCAS    ERIS     OPER   

              2       3        0.32       700     1000     2100   
                                         GEOM     BASIS     RHF  

 PROGRAMS   *        TOTAL       RHF       INT
 CPU TIMES  *         0.25      0.02      0.18
 REAL TIME  *         1.48 SEC
 DISK USED  *         9.22 MB      
 GA USED    *         0.00 MB       (max)       0.00 MB       (current)
 **********************************************************************************************************************************


1PROGRAM * CCSD (Closed-shell coupled cluster)     Authors: C. Hampel, H.-J. Werner, 1991, M. Deegan, P.J. Knowles, 1992


 Convergence thresholds:  THRVAR = 1.00D-08  THRDEN = 1.00D-12

 CCSD(T)     terms to be evaluated (factor= 1.000)


 Number of core orbitals:           1 (   1 )
 Number of closed-shell orbitals:   4 (   4 )
 Number of external orbitals:      24 (  24 )

 Molecular orbitals read from record     2100.2  Type=RHF/CANONICAL (state 1.1)

 Number of N-1 electron functions:               4
 Number of N-2 electron functions:              10
 Number of singly external CSFs:                96
 Number of doubly external CSFs:              4656
 Total number of CSFs:                        4753

 Length of J-op  integral file:               0.00 MB
 Length of K-op  integral file:               0.09 MB
 Length of 3-ext integral record:             0.00 MB

 Memory could be reduced to 0.40 Mwords without degradation in triples

 Integral transformation finished. Total CPU:   0.00 sec, npass=  1  Memory used:   0.15 MW

 Reference energy:                    -56.19558181

 MP2 singlet pair energy:              -0.12285280
 MP2 triplet pair energy:              -0.06372938
 MP2 correlation energy:               -0.18658218
 MP2 total energy:                    -56.38216399

 SCS-MP2 correlation energy:           -0.18707719   (PS=  1.200000  PT=  0.333333)
 SCS-MP2 total energy:                -56.38265901

 ITER.      SQ.NORM     CORR.ENERGY   TOTAL ENERGY   ENERGY CHANGE        DEN1      VAR(S)    VAR(P)  DIIS     TIME
   1      1.06221661    -0.20155673   -56.39713854    -0.01497456    -0.01058623  0.24D-03  0.89D-03  1  1     0.01
   2      1.06674066    -0.20272499   -56.39830680    -0.00116826    -0.00499417  0.13D-04  0.52D-04  2  2     0.01
   3      1.06762439    -0.20282360   -56.39840541    -0.00009861    -0.00055741  0.14D-05  0.27D-05  3  3     0.02
   4      1.06782226    -0.20283083   -56.39841264    -0.00000723    -0.00009587  0.16D-06  0.15D-06  4  4     0.02
   5      1.06785286    -0.20282949   -56.39841130     0.00000134    -0.00001303  0.43D-07  0.99D-08  5  5     0.03
   6      1.06785820    -0.20282975   -56.39841157    -0.00000026    -0.00000018  0.90D-08  0.14D-08  6  6     0.03
   7      1.06786186    -0.20282971   -56.39841152     0.00000005    -0.00000032  0.65D-09  0.20D-09  6  1     0.04
   8      1.06786303    -0.20282960   -56.39841141     0.00000011    -0.00000023  0.98D-11  0.13D-10  6  4     0.04
   9      1.06786318    -0.20282960   -56.39841141    -0.00000000     0.00000001  0.38D-12  0.65D-12  6  2     0.04
  10      1.06786319    -0.20282961   -56.39841142    -0.00000001     0.00000001  0.84D-14  0.27D-13  6  3     0.05
  11      1.06786320    -0.20282961   -56.39841142     0.00000000    -0.00000000  0.11D-14  0.20D-14  6  5     0.05
  12      1.06786320    -0.20282961   -56.39841142     0.00000000    -0.00000000  0.56D-16  0.22D-15  6  6     0.06
  13      1.06786320    -0.20282961   -56.39841142     0.00000000    -0.00000000  0.19D-16  0.12D-16  6  1     0.06
  14      1.06786320    -0.20282961   -56.39841142     0.00000000    -0.00000000  0.54D-18  0.64D-18  6  3     0.07
  15      1.06786320    -0.20282961   -56.39841142     0.00000000    -0.00000000  0.41D-19  0.37D-19  6  4     0.07
  16      1.06786320    -0.20282961   -56.39841142     0.00000000     0.00000000  0.60D-20  0.17D-20  6  2     0.08

 Norm of t1 vector:      0.02195803      S-energy:     0.00000000      T1 diagnostic:  0.00548951
                                                                       D1 diagnostic:  0.00874026


 Total CPU time for triples:      0.01 sec


 RESULTS
 =======

  Reference energy                    -56.195581812334
  CCSD singlet pair energy             -0.144476617226
  CCSD triplet pair energy             -0.058352989217
  CCSD correlation energy              -0.202829606443

  Triples (T) contribution             -0.003830718905
  Total correlation energy             -0.206660325348

  CCSD total energy                   -56.398411418777
  CCSD[T] energy                      -56.402323362540
  CCSD-T energy                       -56.402188184238
 !CCSD(T) total energy                -56.402242137682

 Timing summary (sec):

 STEP                 CPU(USER)    SYS     CPU(TOT)    WALL
 CCSD iterations         0.08      0.02      0.10      0.22
 Triples                 0.01      0.00      0.01      0.02

 Program statistics:

 Available memory in ccsd:               999999836
 Min. memory needed in ccsd:                 26206
 Max. memory used in ccsd:                   28938
 Max. memory used in cckext:                 54704 (16 integral passes)



 **********************************************************************************************************************************
 DATASETS  * FILE   NREC   LENGTH (MB)   RECORD NAMES
              1      20        3.75       500      610      700      900      950      970     1000      129      960     1100   
                                          VAR    BASINP    GEOM    SYMINP    ZMAT    AOBASIS   BASIS     P2S    ABASIS      S 
                                         1400     1410     1200     1210     1080     1600     1650     1300     1700     1380   
                                           T        V       H0       H01     AOSYM     SMH    MOLCAS    ERIS     OPER     JKOP   

              2       3        0.32       700     1000     2100   
                                         GEOM     BASIS     RHF  

 PROGRAMS   *        TOTAL   CCSD(T)       RHF       INT
 CPU TIMES  *         0.36      0.10      0.02      0.18
 REAL TIME  *         2.89 SEC
 DISK USED  *         9.22 MB      
 GA USED    *         0.00 MB       (max)       0.00 MB       (current)
 **********************************************************************************************************************************

        CCSD(T)         RHF-SCF 
    -56.40224214    -56.19558181
 **********************************************************************************************************************************
 Variable memory released
