
    -----------------------------------------------------------------------
          Psi4: An Open-Source Ab Initio Electronic Structure Package
                               Psi4 1.4a2.dev629 

                         Git: Rev {master} 2938fc2 dirty


    D. G. A. Smith, L. A. Burns, A. C. Simmonett, R. M. Parrish,
    M. C. Schieber, R. Galvelis, P. Kraus, H. Kruse, R. Di Remigio,
    A. Alenaizan, A. M. James, S. Lehtola, J. P. Misiewicz, M. Scheurer,
    R. A. Shaw, J. B. Schriber, Y. Xie, Z. L. Glick, D. A. Sirianni,
    J. S. O'Brien, J. M. Waldrop, A. Kumar, E. G. Hohenstein,
    B. P. Pritchard, B. R. Brooks, H. F. Schaefer III, A. Yu. Sokolov,
    K. Patkowski, A. E. DePrince III, U. Bozkaya, R. A. King,
    F. A. Evangelista, J. M. Turney, T. D. Crawford, C. D. Sherrill,
    J. Chem. Phys. 152(18) 184108 (2020). https://doi.org/10.1063/5.0006002

                            Additional Code Authors
    E. T. Seidl, C. L. Janssen, E. F. Valeev, M. L. Leininger,
    J. F. Gonthier, R. M. Richard, H. R. McAlexander, M. Saitow, X. Wang,
    P. Verma, and M. H. Lechner

             Previous Authors, Complete List of Code Contributors,
                       and Citations for Specific Modules
    https://github.com/psi4/psi4/blob/master/codemeta.json
    https://github.com/psi4/psi4/graphs/contributors
    http://psicode.org/psi4manual/master/introduction.html#citing-psifour

    -----------------------------------------------------------------------


    Psi4 started on: Monday, 06 September 2021 06:17PM

    Process ID: 32409
    Host:       n012
    PSIDATADIR: /opt/psi/4/master/share/psi4
    Memory:     500.0 MiB
    Threads:    1
    
  ==> Input File <==

--------------------------------------------------------------------------
# o-Benzyne preliminary computations

memory 14 gb

molecule {
  0 1
  units bohr
 H   -0.0000000000   -1.4302493255    0.9973700721
 O    0.0000000000    0.0000089992   -0.1283894403
 H    0.0000000000    1.4302403263    0.9973629882
}

set {
  basis cc-pvtz
  reference rhf
  e_convergence 10 
  d_convergence 10
  r_convergence 8
  maxiter 300
  freeze_core True
}

e, wfn = energy('ccsd(t)', return_wfn = True)
psi4.print_out('Giraffe The Energy is %.12f \n'%(e))
--------------------------------------------------------------------------

  Memory set to  13.039 GiB by Python driver.

Scratch directory: /tmp/

*** tstart() called on n012
*** at Mon Sep  6 18:17:23 2021

   => Loading Basis Set <=

    Name: CC-PVTZ
    Role: ORBITAL
    Keyword: BASIS
    atoms 1, 3 entry H          line    23 file /opt/psi/4/master/share/psi4/basis/cc-pvtz.gbs 
    atoms 2    entry O          line   262 file /opt/psi/4/master/share/psi4/basis/cc-pvtz.gbs 


         ---------------------------------------------------------
                                   SCF
               by Justin Turney, Rob Parrish, Andy Simmonett
                          and Daniel G. A. Smith
                              RHF Reference
                        1 Threads,  13351 MiB Core
         ---------------------------------------------------------

  ==> Geometry <==

    Molecular point group: cs
    Full point group: Cs

    Geometry (in Bohr), charge = 0, multiplicity = 1:

       Center              X                  Y                   Z               Mass       
    ------------   -----------------  -----------------  -----------------  -----------------
         H            1.430256813984    -0.999770675614     0.000000000000     1.007825032230
         O           -0.000001510716     0.125988836786     0.000000000000    15.994914619570
         H           -1.430232837816    -0.999763591714     0.000000000000     1.007825032230

  Running in cs symmetry.

  Rotational constants: A =     26.53603  B =     14.60018  C =      9.41824 [cm^-1]
  Rotational constants: A = 795530.22117  B = 437702.49911  C = 282351.87098 [MHz]
  Nuclear repulsion =    9.140100344581874

  Charge       = 0
  Multiplicity = 1
  Electrons    = 10
  Nalpha       = 5
  Nbeta        = 5

  ==> Algorithm <==

  SCF Algorithm Type is PK.
  DIIS enabled.
  MOM disabled.
  Fractional occupation disabled.
  Guess Type is SAD.
  Energy threshold   = 1.00e-10
  Density threshold  = 1.00e-10
  Integral threshold = 0.00e+00

  ==> Primary Basis <==

  Basis Set: CC-PVTZ
    Blend: CC-PVTZ
    Number of shells: 22
    Number of basis function: 58
    Number of Cartesian functions: 65
    Spherical Harmonics?: true
    Max angular momentum: 3

  ==> Integral Setup <==

  Using in-core PK algorithm.
   Calculation information:
      Number of atoms:                   3
      Number of AO shells:              22
      Number of primitives:             42
      Number of atomic orbitals:        65
      Number of basis functions:        58

      Integral cutoff                 1.00e-12
      Number of threads:                 1

  Performing in-core PK
  Using 2929232 doubles for integral storage.
  We computed 32131 shell quartets total.
  Whereas there are 32131 unique shell quartets.

  ==> DiskJK: Disk-Based J/K Matrices <==

    J tasked:                  Yes
    K tasked:                  Yes
    wK tasked:                  No
    Memory [MiB]:            10013
    Schwarz Cutoff:          1E-12

    OpenMP threads:              1

  Minimum eigenvalue in the overlap matrix is 2.5559107210E-03.
  Reciprocal condition number of the overlap matrix is 5.0064938667E-04.
    Using symmetric orthogonalization.

  ==> Pre-Iterations <==

  SCF Guess: Superposition of Atomic Densities via on-the-fly atomic UHF (no occupation information).

   -------------------------
    Irrep   Nso     Nmo    
   -------------------------
     A'        40      40 
     A"        18      18 
   -------------------------
    Total      58      58
   -------------------------

  ==> Iterations <==

                        Total Energy        Delta E     RMS |[F,P]|

   @RHF iter SAD:   -75.49524307237247   -7.54952e+01   0.00000e+00 
   @RHF iter   1:   -75.97790379271714   -4.82661e-01   1.02871e-02 DIIS
   @RHF iter   2:   -76.03043285518591   -5.25291e-02   6.68071e-03 DIIS
   @RHF iter   3:   -76.05621913971895   -2.57863e-02   4.99589e-04 DIIS
   @RHF iter   4:   -76.05661442504048   -3.95285e-04   1.23270e-04 DIIS
   @RHF iter   5:   -76.05663995825924   -2.55332e-05   2.55585e-05 DIIS
   @RHF iter   6:   -76.05664156791080   -1.60965e-06   4.93281e-06 DIIS
   @RHF iter   7:   -76.05664162878088   -6.08701e-08   7.80798e-07 DIIS
   @RHF iter   8:   -76.05664163002754   -1.24666e-09   1.20490e-07 DIIS
   @RHF iter   9:   -76.05664163005810   -3.05533e-11   3.38185e-08 DIIS
   @RHF iter  10:   -76.05664163006077   -2.67164e-12   4.38021e-09 DIIS
   @RHF iter  11:   -76.05664163006077    0.00000e+00   6.16997e-10 DIIS
   @RHF iter  12:   -76.05664163006070    7.10543e-14   9.97311e-11 DIIS
  Energy and wave function converged.


  ==> Post-Iterations <==

    Orbital Energies [Eh]
    ---------------------

    Doubly Occupied:                                                      

       1Ap   -20.556250     2Ap    -1.343307     3Ap    -0.704782  
       4Ap    -0.578430     1App   -0.504306  

    Virtual:                                                              

       5Ap     0.141473     6Ap     0.203696     7Ap     0.540201  
       8Ap     0.602092     9Ap     0.668678     2App    0.787179  
      10Ap     0.795130    11Ap     0.805695     3App    0.861848  
       4App    0.950706    12Ap     1.137193    13Ap     1.196322  
      14Ap     1.519403    15Ap     1.559130     5App    2.038697  
      16Ap     2.060287     6App    2.061686    17Ap     2.171346  
      18Ap     2.234876    19Ap     2.582306    20Ap     2.961460  
       7App    3.347165    21Ap     3.483543     8App    3.585354  
      22Ap     3.653733     9App    3.794484    23Ap     3.872210  
      24Ap     3.885590    10App    3.960751    11App    4.016241  
      25Ap     4.070982    26Ap     4.186391    12App    4.299894  
      27Ap     4.369357    28Ap     4.584259    13App    4.678809  
      29Ap     4.853724    30Ap     5.143090    31Ap     5.247836  
      32Ap     5.521558    14App    6.044223    33Ap     6.560256  
      15App    6.900304    16App    6.931254    17App    7.004085  
      34Ap     7.006863    35Ap     7.024640    36Ap     7.174182  
      18App    7.227150    37Ap     7.446089    38Ap     7.783382  
      39Ap     8.270064    40Ap    12.775017  

    Final Occupation by Irrep:
             Ap   App 
    DOCC [     4,    1 ]

  @RHF Final Energy:   -76.05664163006070

   => Energetics <=

    Nuclear Repulsion Energy =              9.1401003445818745
    One-Electron Energy =                -123.0193352461235463
    Two-Electron Energy =                  37.8225932714809687
    Total Energy =                        -76.0566416300607102

Computation Completed


Properties will be evaluated at   0.000000,   0.000000,   0.000000 [a0]

Properties computed using the SCF density matrix

  Nuclear Dipole Moment: [e a0]
     X:     0.0000      Y:    -0.9916      Z:     0.0000

  Electronic Dipole Moment: [e a0]
     X:    -0.0000      Y:     0.1872      Z:     0.0000

  Dipole Moment: [e a0]
     X:     0.0000      Y:    -0.8044      Z:     0.0000     Total:     0.8044

  Dipole Moment: [D]
     X:     0.0000      Y:    -2.0445      Z:     0.0000     Total:     2.0445


*** tstop() called on n012 at Mon Sep  6 18:17:25 2021
Module time:
	user time   =       1.80 seconds =       0.03 minutes
	system time =       0.01 seconds =       0.00 minutes
	total time  =          2 seconds =       0.03 minutes
Total time:
	user time   =       1.80 seconds =       0.03 minutes
	system time =       0.01 seconds =       0.00 minutes
	total time  =          2 seconds =       0.03 minutes
 MINTS: Wrapper to libmints.
   by Justin Turney

   Calculation information:
      Number of threads:                 1
      Number of atoms:                   3
      Number of AO shells:              22
      Number of SO shells:              22
      Number of primitives:             42
      Number of atomic orbitals:        65
      Number of basis functions:        58

      Number of irreps:                  2
      Integral cutoff                 0.00e+00
      Number of functions per irrep: [  40   18 ]

 OEINTS: Overlap, kinetic, potential, dipole, and quadrupole integrals
         stored in file 35.

      Computing two-electron integrals...done
      Computed 711511 non-zero two-electron integrals.
        Stored in file 33.


*** tstart() called on n012
*** at Mon Sep  6 18:17:26 2021


	Wfn Parameters:
	--------------------
	Wavefunction         = CCSD_T
	Number of irreps     = 2
	Number of MOs        = 58
	Number of active MOs = 57
	AO-Basis             = NONE
	Semicanonical        = false
	Reference            = RHF
	Print Level          = 1

	IRREP	# MOs	# FZDC	# DOCC	# SOCC	# VIRT	# FZVR
	-----	-----	------	------	------	------	------
	 Ap	   40	    1	    3	    0	    36	    0
	 App	   18	    0	    1	    0	    17	    0
	Transforming integrals...
	IWL integrals will be deleted.
	(OO|OO)...
	Presorting SO-basis two-electron integrals.
	Sorting File: SO Ints (nn|nn) nbuckets = 1
	Transforming the one-electron integrals and constructing Fock matrices
	Starting first half-transformation.
	Sorting half-transformed integrals.
	First half integral transformation complete.
	Starting second half-transformation.
	Two-electron integral transformation complete.
	(OO|OV)...
	Starting second half-transformation.
	Two-electron integral transformation complete.
	(OO|VV)...
	Starting second half-transformation.
	Two-electron integral transformation complete.
	(OV|OO)...
	Starting first half-transformation.
	Sorting half-transformed integrals.
	First half integral transformation complete.
	Starting second half-transformation.
	Two-electron integral transformation complete.
	(OV|OV)...
	Starting second half-transformation.
	Two-electron integral transformation complete.
	(OV|VV)...
	Starting second half-transformation.
	Two-electron integral transformation complete.
	(VV|OO)...
	Starting first half-transformation.
	Sorting half-transformed integrals.
	First half integral transformation complete.
	Starting second half-transformation.
	Two-electron integral transformation complete.
	(VV|OV)...
	Starting second half-transformation.
	Two-electron integral transformation complete.
	(VV|VV)...
	Starting second half-transformation.
	Two-electron integral transformation complete.
	Frozen core energy     =    -61.30307608768092

	Size of irrep 0 of <ab|cd> integrals:      2.512 (MW) /     20.098 (MB)
	Size of irrep 1 of <ab|cd> integrals:      1.498 (MW) /     11.985 (MB)
	Total:                                     4.010 (MW) /     32.083 (MB)

	Size of irrep 0 of <ia|bc> integrals:      0.198 (MW) /      1.585 (MB)
	Size of irrep 1 of <ia|bc> integrals:      0.106 (MW) /      0.852 (MB)
	Total:                                     0.305 (MW) /      2.437 (MB)

	Size of irrep 0 of tijab amplitudes:       0.016 (MW) /      0.127 (MB)
	Size of irrep 1 of tijab amplitudes:       0.007 (MW) /      0.059 (MB)
	Total:                                     0.023 (MW) /      0.186 (MB)

	Nuclear Rep. energy          =      9.14010034458187
	SCF energy                   =    -76.05664163006070
	One-electron energy          =    -41.52568212951172
	Two-electron energy          =     17.63201624254996
	Reference energy             =    -76.05664163006081

*** tstop() called on n012 at Mon Sep  6 18:17:27 2021
Module time:
	user time   =       0.85 seconds =       0.01 minutes
	system time =       0.27 seconds =       0.00 minutes
	total time  =          1 seconds =       0.02 minutes
Total time:
	user time   =       3.05 seconds =       0.05 minutes
	system time =       0.30 seconds =       0.01 minutes
	total time  =          4 seconds =       0.07 minutes
            **************************
            *                        *
            *        CCENERGY        *
            *                        *
            **************************

    Nuclear Rep. energy (wfn)     =    9.140100344581874
    SCF energy          (wfn)     =  -76.056641630060696
    Reference energy    (file100) =  -76.056641630060810

    Input parameters:
    -----------------
    Wave function   =     CCSD_T
    Reference wfn   =     RHF
    Brueckner       =     No
    Memory (Mbytes) =     14000.0
    Maxiter         =    300
    R_Convergence   =     1.0e-08
    E_Convergence   =     1.0e-10
    Restart         =     Yes
    DIIS            =     Yes
    AO Basis        =     NONE
    ABCD            =     NEW
    Cache Level     =     2
    Cache Type      =     LOW
    Print Level     =     1
    Num. of threads =     1
    # Amps to Print =     10
    Print MP2 Amps? =     No
    Analyze T2 Amps =     No
    Print Pair Ener =     No
    Local CC        =     No
    SCS-MP2         =     False
    SCSN-MP2        =     False
    SCS-CCSD        =     False

MP2 correlation energy -0.2619830333463488
                Solving CC Amplitude Equations
                ------------------------------
  Iter             Energy              RMS        T1Diag      D1Diag    New D1Diag    D2Diag
  ----     ---------------------    ---------   ----------  ----------  ----------   --------
     0        -0.261983033346349    0.000e+00    0.000000    0.000000    0.000000    0.116576
     1        -0.262226100792767    2.929e-02    0.005744    0.009355    0.009355    0.120249
     2        -0.267109199164320    1.014e-02    0.005943    0.009516    0.009516    0.124985
     3        -0.267830727501185    3.269e-03    0.006540    0.010675    0.010675    0.126669
     4        -0.267823064149084    6.659e-04    0.006579    0.010771    0.010771    0.126881
     5        -0.267845393116441    2.117e-04    0.006601    0.010865    0.010865    0.126931
     6        -0.267845913979403    6.348e-05    0.006607    0.010903    0.010903    0.126927
     7        -0.267845992864832    2.032e-05    0.006610    0.010920    0.010920    0.126925
     8        -0.267845670858977    5.224e-06    0.006610    0.010924    0.010924    0.126925
     9        -0.267845579528972    1.077e-06    0.006611    0.010925    0.010925    0.126925
    10        -0.267845592690928    2.424e-07    0.006611    0.010925    0.010925    0.126925
    11        -0.267845591349430    4.712e-08    0.006611    0.010925    0.010925    0.126925
    12        -0.267845593033438    1.048e-08    0.006611    0.010925    0.010925    0.126925
    13        -0.267845593079675    2.508e-09    0.006611    0.010925    0.010925    0.126925
    14        -0.267845593090394    6.275e-10    0.006611    0.010925    0.010925    0.126925

    Iterations converged.


    Largest TIA Amplitudes:
              3  36        -0.0076263288
              2   0         0.0059548929
              1   9        -0.0058727629
              3  38        -0.0049162248
              2   5        -0.0045527472
              2  10        -0.0042461351
              0   4        -0.0040828263
              1  20        -0.0038740129
              2   4         0.0038313007
              2  21        -0.0037987390

    Largest TIjAb Amplitudes:
      3   3  36  36        -0.0477127514
      2   2   4   4        -0.0295831458
      1   1   2   2        -0.0273492702
      2   3   4  36         0.0259502478
      3   2  36   4         0.0259502478
      1   1   3   3        -0.0255198342
      1   1   6   6        -0.0226194249
      2   2   2   2        -0.0222718835
      1   3   6  36         0.0222667846
      3   1  36   6         0.0222667846

    SCF energy       (wfn)                    =  -76.056641630060696
    Reference energy (file100)                =  -76.056641630060810

    Opposite-spin MP2 correlation energy      =   -0.198362977919976
    Same-spin MP2 correlation energy          =   -0.063620055426373
    Singles MP2 correlation energy            =   -0.000000000000000
    MP2 correlation energy                    =   -0.261983033346349
      * MP2 total energy                      =  -76.318624663407164

    Opposite-spin CCSD correlation energy     =   -0.211162943407544
    Same-spin CCSD correlation energy         =   -0.056682649682849
    Singles CCSD correlation energy           =    0.000000000000000
    CCSD correlation energy                   =   -0.267845593090394
      * CCSD total energy                     =  -76.324487223151209

            **************************
            *                        *
            *        CCTRIPLES       *
            *                        *
            **************************


    Wave function   =    CCSD_T
    Reference wfn   =      RHF

    Nuclear Rep. energy (wfn)                =    9.140100344581874
    SCF energy          (wfn)                =  -76.056641630060696
    Reference energy    (file100)            =  -76.056641630060810
    CCSD energy         (file100)            =   -0.267845593090394
    Total CCSD energy   (file100)            =  -76.324487223151209

    Number of ijk index combinations:               20
    Memory available in words        :      1750000000
    ~Words needed per explicit thread:          186624
    Number of threads for explicit ijk threading:    1

    MKL num_threads set to 1 for explicit threading.

    (T) energy                                =   -0.007702408028186
      * CCSD(T) total energy                  =  -76.332189631179389

Giraffe The Energy is -76.332189631179 

    Psi4 stopped on: Monday, 06 September 2021 06:17PM
    Psi4 wall time for execution: 0:00:08.53

*** Psi4 exiting successfully. Buy a developer a beer!
