
 Primary working directories    : /tmp/601755.7.gen4.q
 Secondary working directories  : /tmp/601755.7.gen4.q
 Wavefunction directory         : /home/vulcan/nlk36701/wfu/
 Main file repository           : /tmp/601755.7.gen4.q/

 ARCHNAME  : Linux/x86_64
 FC        : /opt/intel/compilers_and_libraries_2016.1.150/linux/bin/intel64/ifort
 FCVERSION : 16.0.1
 BLASLIB   : -mkl
 id        : ccgc

 Nodes     nprocs
 n031         1
 ga_uses_ma=false, calling ma_init with nominal heap.
 GA-space will be limited to   8.0 MW (determined by -G option)

 Using customized tuning parameters: mindgm=10; mindgv=16; mindgc=4; mindgr=1; noblas=0; mincuda=1000; minvec=7
 default implementation of scratch files=df  

 ***,Optimization of min3
 memory,1000,m
 gthresh,energy=1.0d-12,orbital=1.0d-10,oneint=1.0d-16,twoint=1.0d-16,optgrad=1.0d-6,compress=1.0d-13
 geomtyp=xyz
 
  bohr
  geometry = {
  3
  arbitrary comment
  H    0.0000000000   -1.4271169250    0.9978774384
  O    0.0000000000    0.0049723111   -0.1254971809
  H    0.0000000000    1.4221446140    0.9939633625
 }
 
 basis=cc-pvtz
 {rhf;maxit,200}
 {ccsd(t);maxit,200}

 Variables initialized (661), CPU time= 0.00 sec
 Commands  initialized (458), CPU time= 0.01 sec, 486 directives.
 Default parameters read. Elapsed time= 0.06 sec

 Checking input...
 Passed
1


                                         ***  PROGRAM SYSTEM MOLPRO  ***
                         Copyright, University College Cardiff Consultants Limited, 2008

                                    Version 2010.1 linked May 16 2016 07:17:05


 **********************************************************************************************************************************
 LABEL *   Optimization of min3                                                          
 Linux-4.4.3/n031(x86_64) 64 bit mpp version                                             DATE: 09-Nov-21          TIME: 12:17:31  
 **********************************************************************************************************************************

 SHA1:             9e8077add272b0f3cad6f7df79ec5211205f459d
 **********************************************************************************************************************************

 THRESHOLDS:

 ZERO    =  1.00D-12  ONEINT  =  1.00D-16  TWOINT  =  1.00D-16  PREFAC  =  1.00D-14  LOCALI  =  1.00D-09  EORDER  =  1.00D-04
 ENERGY  =  1.00D-12  ETEST   =  0.00D+00  EDENS   =  0.00D+00  THRDEDEF=  1.00D-06  GRADIENT=  1.00D-02  STEP    =  1.00D-03
 ORBITAL =  1.00D-10  CIVEC   =  1.00D-05  COEFF   =  1.00D-04  PRINTCI =  5.00D-02  PUNCHCI =  9.90D+01  OPTGRAD =  1.00D-06
 OPTENERG=  1.00D-06  OPTSTEP =  3.00D-04  THRGRAD =  1.00D-10  COMPRESS=  1.00D-13  VARMIN  =  1.00D-07  VARMAX  =  1.00D-03
 THRDOUB =  0.00D+00  THRDIV  =  1.00D-05  THRRED  =  1.00D-07  THRPSP  =  1.00D+00  THRDC   =  1.00D-10  THRCS   =  1.00D-10
 THRNRM  =  1.00D-08  THREQ   =  0.00D+00  THRDE   =  1.00D+00  THRREF  =  1.00D-05  SPARFAC =  1.00D+00  THRDLP  =  1.00D-07
 THRDIA  =  1.00D-10  THRDLS  =  1.00D-07  THRGPS  =  0.00D+00  THRKEX  =  0.00D+00  THRDIS  =  2.00D-01  THRVAR  =  1.00D-10
 THRLOC  =  1.00D-06  THRGAP  =  1.00D-06  THRLOCT = -1.00D+00  THRGAPT = -1.00D+00  THRORB  =  1.00D-06  THRMLTP =  0.00D+00
 THRCPQCI=  1.00D-10  KEXTA   =  0.00D+00  THRCOARS=  0.00D+00  SYMTOL  =  1.00D-06  GRADTOL =  1.00D-06  THROVL  =  1.00D-08
 THRORTH =  1.00D-08  GRID    =  1.00D-06  GRIDMAX =  1.00D-03  DTMAX   =  0.00D+00

 SETTING GEOMTYP        =    XYZ
 ZUNIT=BOHR
 

 Variable memory set to 1000000000 words,  buffer space   230000 words

 SETTING BASIS          =    CC-PVTZ


 Recomputing integrals since basis changed


 Using spherical harmonics

 Library entry H      S cc-pVTZ              selected for orbital group  1
 Library entry H      P cc-pVTZ              selected for orbital group  1
 Library entry H      D cc-pVTZ              selected for orbital group  1
 Library entry O      S cc-pVTZ              selected for orbital group  2
 Library entry O      P cc-pVTZ              selected for orbital group  2
 Library entry O      D cc-pVTZ              selected for orbital group  2
 Library entry O      F cc-pVTZ              selected for orbital group  2

1PROGRAM * SEWARD (Integral evaluation for generally contracted gaussian basis sets)     Author: Roland Lindh, 1990

 Geometry written to block  1 of record 700


 Point group  Cs  



 ATOMIC COORDINATES

 NR  ATOM    CHARGE       X              Y              Z

   1  H       1.00    0.000000000   -1.427116925    0.997877438
   2  O       8.00    0.000000000    0.004972311   -0.125497181
   3  H       1.00    0.000000000    1.422144614    0.993963362

 Bond lengths in Bohr (Angstrom)

 1-2  1.820123654  2-3  1.805981518
     ( 0.963167955)     ( 0.955684259)

 Bond angles

  1-2-3  103.58217002

 NUCLEAR CHARGE:                   10
 NUMBER OF PRIMITIVE AOS:          81
 NUMBER OF SYMMETRY AOS:           74
 NUMBER OF CONTRACTIONS:           58   (  40A'  +  18A"  )
 NUMBER OF CORE ORBITALS:           1   (   1A'  +   0A"  )
 NUMBER OF VALENCE ORBITALS:        6   (   5A'  +   1A"  )


 NUCLEAR REPULSION ENERGY    9.17599775


 Eigenvalues of metric

         1 0.259E-02 0.475E-02 0.581E-02 0.762E-02 0.109E-01 0.419E-01 0.480E-01 0.690E-01
         2 0.403E-01 0.109E+00 0.116E+00 0.245E+00 0.317E+00 0.448E+00 0.524E+00 0.540E+00


 Contracted 2-electron integrals neglected if value below      1.0D-16
 AO integral compression algorithm  1   Integral accuracy      1.0D-16

     7.864 MB (compressed) written to integral file (100.0%)

     Node minimum: 7.864 MB, node maximum: 7.864 MB


 NUMBER OF SORTED TWO-ELECTRON INTEGRALS:     771976.     BUFFER LENGTH:  32768
 NUMBER OF SEGMENTS:   1  SEGMENT LENGTH:     771976      RECORD LENGTH: 524288

 Memory used in sort:       1.33 MW

 SORT1 READ      966916. AND WROTE      721549. INTEGRALS IN      3 RECORDS. CPU TIME:     0.01 SEC, REAL TIME:     0.02 SEC
 SORT2 READ      721549. AND WROTE      771976. INTEGRALS IN     30 RECORDS. CPU TIME:     0.02 SEC, REAL TIME:     0.03 SEC

 FILE SIZES:   FILE 1:     8.6 MBYTE,  FILE 4:    12.6 MBYTE,   TOTAL:     21.2 MBYTE

 OPERATOR DM      FOR CENTER  0  COORDINATES:    0.000000    0.000000    0.000000


 **********************************************************************************************************************************
 DATASETS  * FILE   NREC   LENGTH (MB)   RECORD NAMES
              1      19        8.64       500      610      700      900      950      970     1000      129      960     1100   
                                          VAR    BASINP    GEOM    SYMINP    ZMAT    AOBASIS   BASIS     P2S    ABASIS      S 
                                         1400     1410     1200     1210     1080     1600     1650     1300     1700   
                                           T        V       H0       H01     AOSYM     SMH    MOLCAS    ERIS     OPER   

 PROGRAMS   *        TOTAL       INT
 CPU TIMES  *         0.36      0.30
 REAL TIME  *         0.54 SEC
 DISK USED  *        29.62 MB      
 GA USED    *         0.00 MB       (max)       0.00 MB       (current)
 **********************************************************************************************************************************

1PROGRAM * RHF-SCF (CLOSED SHELL)       Authors: W. Meyer, H.-J. Werner


 NUMBER OF ELECTRONS:       5+    5-
 CONVERGENCE THRESHOLDS:    1.00E-10 (Density)    1.00E-13 (Energy)
 MAX. NUMBER OF ITERATIONS:      200
 INTERPOLATION TYPE:            DIIS
 INTERPOLATION STEPS:              2 (START)      1 (STEP)
 LEVEL SHIFTS:                  0.00 (CLOSED)  0.00 (OPEN) 



 Orbital guess generated from atomic densities. Full valence occupancy:    6   1

 Molecular orbital dump at record        2100.2

 Initial alpha occupancy:   4   1
 Initial beta  occupancy:   4   1
 Wave function symmetry:    1

 ITERATION    DDIFF          GRAD             ENERGY        2-EL.EN.            DIPOLE MOMENTS         DIIS
    1      0.000D+00      0.000D+00       -76.01871871     77.737446    0.00000   -0.00993    1.15468    0
    2      0.000D+00      0.139D-01       -76.04669285     74.307524    0.00000   -0.00346    0.71150    1
    3      0.239D-01      0.825D-02       -76.05670824     75.769219    0.00000   -0.00445    0.81194    2
    4      0.788D-02      0.787D-03       -76.05689751     75.689738    0.00000   -0.00394    0.80667    3
    5      0.117D-02      0.221D-03       -76.05691742     75.701497    0.00000   -0.00372    0.80403    4
    6      0.403D-03      0.421D-04       -76.05691847     75.700133    0.00000   -0.00365    0.80339    5
    7      0.911D-04      0.725D-05       -76.05691850     75.700244    0.00000   -0.00364    0.80324    6
    8      0.185D-04      0.107D-05       -76.05691850     75.700188    0.00000   -0.00364    0.80321    5
    9      0.245D-05      0.202D-06       -76.05691850     75.700215    0.00000   -0.00364    0.80321    6
   10      0.451D-06      0.447D-07       -76.05691850     75.700210    0.00000   -0.00364    0.80321    6
   11      0.874D-07      0.106D-07       -76.05691850     75.700210    0.00000   -0.00364    0.80321    6
   12      0.276D-07      0.211D-08       -76.05691850     75.700210    0.00000   -0.00364    0.80321    6
   13      0.496D-08      0.424D-09       -76.05691850     75.700210    0.00000   -0.00364    0.80321    6
   14      0.123D-08      0.119D-09       -76.05691850     75.700210    0.00000   -0.00364    0.80321    6
   15      0.328D-09      0.282D-10       -76.05691850     75.700210    0.00000   -0.00364    0.80321    6
   16      0.645D-10      0.714D-11       -76.05691850     75.700210    0.00000   -0.00364    0.80321    6
   17      0.173D-10      0.275D-11       -76.05691850     75.700210    0.00000   -0.00364    0.80321    0

 Final occupancy:   4   1

 !RHF STATE 1.1 Energy                -76.056918499676
 Nuclear energy                         9.17599775
 One-electron energy                 -123.08302125
 Two-electron energy                   37.85010500
 Virial quotient                       -1.00076542
 !RHF STATE 1.1 Dipole moment           0.00000000    -0.00363591     0.80321312
 Dipole moment /Debye                   0.00000000    -0.00924096     2.04143041

 Orbital energies:

         1.1          2.1          3.1          4.1          5.1          6.1
    -20.555582    -1.345254    -0.706810    -0.579150     0.141858     0.204047

         1.2          2.2          3.2
     -0.504609     0.787191     0.862663


 **********************************************************************************************************************************
 DATASETS  * FILE   NREC   LENGTH (MB)   RECORD NAMES
              1      19        8.64       500      610      700      900      950      970     1000      129      960     1100   
                                          VAR    BASINP    GEOM    SYMINP    ZMAT    AOBASIS   BASIS     P2S    ABASIS      S 
                                         1400     1410     1200     1210     1080     1600     1650     1300     1700   
                                           T        V       H0       H01     AOSYM     SMH    MOLCAS    ERIS     OPER   

              2       3        0.33       700     1000     2100   
                                         GEOM     BASIS     RHF  

 PROGRAMS   *        TOTAL       RHF       INT
 CPU TIMES  *         0.45      0.09      0.30
 REAL TIME  *         0.65 SEC
 DISK USED  *        29.62 MB      
 GA USED    *         0.00 MB       (max)       0.00 MB       (current)
 **********************************************************************************************************************************


1PROGRAM * CCSD (Closed-shell coupled cluster)     Authors: C. Hampel, H.-J. Werner, 1991, M. Deegan, P.J. Knowles, 1992


 Convergence thresholds:  THRVAR = 1.00D-08  THRDEN = 1.00D-12

 CCSD(T)     terms to be evaluated (factor= 1.000)


 Number of core orbitals:           1 (   1   0 )
 Number of closed-shell orbitals:   4 (   3   1 )
 Number of external orbitals:      53 (  36  17 )

 Molecular orbitals read from record     2100.2  Type=RHF/CANONICAL (state 1.1)

 Number of N-1 electron functions:               4
 Number of N-2 electron functions:              10
 Number of singly external CSFs:               125
 Number of doubly external CSFs:             11703
 Total number of CSFs:                       11829

 Length of J-op  integral file:               0.00 MB
 Length of K-op  integral file:               0.17 MB
 Length of 3-ext integral record:             0.00 MB

 Memory could be reduced to 0.82 Mwords without degradation in triples

 Integral transformation finished. Total CPU:   0.02 sec, npass=  1  Memory used:   0.24 MW

 Reference energy:                    -76.05691850

 MP2 singlet pair energy:              -0.16636717
 MP2 triplet pair energy:              -0.09534378
 MP2 correlation energy:               -0.26171094
 MP2 total energy:                    -76.31862944

 SCS-MP2 correlation energy:           -0.25896562   (PS=  1.200000  PT=  0.333333)
 SCS-MP2 total energy:                -76.31588412

 ITER.      SQ.NORM     CORR.ENERGY   TOTAL ENERGY   ENERGY CHANGE        DEN1      VAR(S)    VAR(P)  DIIS     TIME
   1      1.06063206    -0.26711063   -76.32402913    -0.00539969    -0.00040582  0.45D-03  0.82D-03  1  1     0.03
   2      1.06377656    -0.26752953   -76.32444803    -0.00041890    -0.00448436  0.76D-05  0.87D-04  2  2     0.05
   3      1.06480896    -0.26759171   -76.32451021    -0.00006218    -0.00081604  0.15D-05  0.40D-05  3  3     0.07
   4      1.06507843    -0.26760187   -76.32452037    -0.00001016    -0.00016182  0.10D-06  0.20D-06  4  4     0.08
   5      1.06511462    -0.26759925   -76.32451775     0.00000262    -0.00001858  0.35D-07  0.11D-07  5  5     0.10
   6      1.06512064    -0.26759911   -76.32451761     0.00000014    -0.00000172  0.54D-08  0.12D-08  6  6     0.11
   7      1.06512227    -0.26759923   -76.32451773    -0.00000012    -0.00000031  0.82D-09  0.16D-09  6  1     0.13
   8      1.06512288    -0.26759925   -76.32451774    -0.00000001     0.00000042  0.29D-10  0.13D-10  6  2     0.15
   9      1.06512308    -0.26759923   -76.32451773     0.00000002    -0.00000008  0.12D-11  0.11D-11  6  3     0.16
  10      1.06512311    -0.26759922   -76.32451772     0.00000000     0.00000002  0.41D-13  0.57D-13  6  4     0.18
  11      1.06512312    -0.26759922   -76.32451772     0.00000000    -0.00000001  0.18D-14  0.42D-14  6  5     0.20
  12      1.06512312    -0.26759922   -76.32451772    -0.00000000     0.00000000  0.16D-15  0.29D-15  6  6     0.21
  13      1.06512312    -0.26759922   -76.32451772    -0.00000000     0.00000000  0.29D-16  0.23D-16  6  1     0.23
  14      1.06512312    -0.26759922   -76.32451772    -0.00000000     0.00000000  0.48D-17  0.23D-17  6  2     0.24
  15      1.06512312    -0.26759922   -76.32451772    -0.00000000     0.00000000  0.13D-17  0.20D-18  6  3     0.26
  16      1.06512312    -0.26759922   -76.32451772    -0.00000000     0.00000000  0.11D-18  0.19D-19  6  4     0.27
  17      1.06512312    -0.26759922   -76.32451772    -0.00000000     0.00000000  0.94D-20  0.24D-20  6  5     0.29
  18      1.06512312    -0.26759922   -76.32451772    -0.00000000    -0.00000000  0.42D-21  0.20D-21  6  6     0.31

 Norm of t1 vector:      0.02624518      S-energy:     0.00000000      T1 diagnostic:  0.00656129
                                                                       D1 diagnostic:  0.01083463


 Total CPU time for triples:      0.05 sec


 RESULTS
 =======

  Reference energy                    -76.056918499676
  CCSD singlet pair energy             -0.182588745839
  CCSD triplet pair energy             -0.085010477712
  CCSD correlation energy              -0.267599223551

  Triples (T) contribution             -0.007671250899
  Total correlation energy             -0.275270474451

  CCSD total energy                   -76.324517723227
  CCSD[T] energy                      -76.332382691591
  CCSD-T energy                       -76.332051869235
 !CCSD(T) total energy                -76.332188974126

 Timing summary (sec):

 STEP                 CPU(USER)    SYS     CPU(TOT)    WALL
 Transformation          0.02      0.00      0.02      0.02
 CCSD iterations         0.29      0.02      0.31      0.35
 Triples                 0.05      0.01      0.06      0.05

 Program statistics:

 Available memory in ccsd:               999999836
 Min. memory needed in ccsd:                 61793
 Max. memory used in ccsd:                   69544
 Max. memory used in cckext:                110816 (18 integral passes)



 **********************************************************************************************************************************
 DATASETS  * FILE   NREC   LENGTH (MB)   RECORD NAMES
              1      20       10.14       500      610      700      900      950      970     1000      129      960     1100   
                                          VAR    BASINP    GEOM    SYMINP    ZMAT    AOBASIS   BASIS     P2S    ABASIS      S 
                                         1400     1410     1200     1210     1080     1600     1650     1300     1700     1380   
                                           T        V       H0       H01     AOSYM     SMH    MOLCAS    ERIS     OPER     JKOP   

              2       3        0.33       700     1000     2100   
                                         GEOM     BASIS     RHF  

 PROGRAMS   *        TOTAL   CCSD(T)       RHF       INT
 CPU TIMES  *         0.82      0.37      0.09      0.30
 REAL TIME  *         1.10 SEC
 DISK USED  *        29.62 MB      
 GA USED    *         0.00 MB       (max)       0.00 MB       (current)
 **********************************************************************************************************************************

        CCSD(T)         RHF-SCF 
    -76.33218897    -76.05691850
 **********************************************************************************************************************************
 Variable memory released
