
    -----------------------------------------------------------------------
          Psi4: An Open-Source Ab Initio Electronic Structure Package
                               Psi4 1.4a2.dev629 

                         Git: Rev {master} 2938fc2 dirty


    D. G. A. Smith, L. A. Burns, A. C. Simmonett, R. M. Parrish,
    M. C. Schieber, R. Galvelis, P. Kraus, H. Kruse, R. Di Remigio,
    A. Alenaizan, A. M. James, S. Lehtola, J. P. Misiewicz, M. Scheurer,
    R. A. Shaw, J. B. Schriber, Y. Xie, Z. L. Glick, D. A. Sirianni,
    J. S. O'Brien, J. M. Waldrop, A. Kumar, E. G. Hohenstein,
    B. P. Pritchard, B. R. Brooks, H. F. Schaefer III, A. Yu. Sokolov,
    K. Patkowski, A. E. DePrince III, U. Bozkaya, R. A. King,
    F. A. Evangelista, J. M. Turney, T. D. Crawford, C. D. Sherrill,
    J. Chem. Phys. 152(18) 184108 (2020). https://doi.org/10.1063/5.0006002

                            Additional Code Authors
    E. T. Seidl, C. L. Janssen, E. F. Valeev, M. L. Leininger,
    J. F. Gonthier, R. M. Richard, H. R. McAlexander, M. Saitow, X. Wang,
    P. Verma, and M. H. Lechner

             Previous Authors, Complete List of Code Contributors,
                       and Citations for Specific Modules
    https://github.com/psi4/psi4/blob/master/codemeta.json
    https://github.com/psi4/psi4/graphs/contributors
    http://psicode.org/psi4manual/master/introduction.html#citing-psifour

    -----------------------------------------------------------------------


    Psi4 started on: Wednesday, 21 September 2022 04:16PM

    Process ID: 87143
    Host:       n071
    PSIDATADIR: /opt/psi/4/master/share/psi4
    Memory:     500.0 MiB
    Threads:    1
    
  ==> Input File <==

--------------------------------------------------------------------------
# o-Benzyne preliminary computations

memory 14 gb

molecule {
  0 1
  units bohr
 C   -1.3750701387   -0.0242787732   -0.0008234138
 O    1.3060182234    0.1207001624    0.0015468059
 H   -2.0778769575    1.9096089335   -0.0010055774
 H   -2.1023284342   -0.9805721464    1.6798727630
 H   -2.1156415492   -0.9780980472   -1.6839816304
 H    1.9411746963   -1.5774922492    0.0043826427
  no_reorient
  no_com
}

set {
  basis 6-31g*
  reference rhf
  e_convergence 10 
  d_convergence 10
  r_convergence 8
  maxiter 300
  dft_spherical_points 1202
  dft_radial_points 99
  freeze_core True
}


#gradient('ccsd(t)')
gradient('b3lyp')
--------------------------------------------------------------------------

  Memory set to  13.039 GiB by Python driver.

Scratch directory: /tmp/
gradient() will perform analytic gradient computation.

*** tstart() called on n071
*** at Wed Sep 21 16:16:56 2022

   => Loading Basis Set <=

    Name: 6-31G*
    Role: ORBITAL
    Keyword: BASIS
    atoms 1   entry C          line   111 file /opt/psi/4/master/share/psi4/basis/6-31gs.gbs 
    atoms 2   entry O          line   145 file /opt/psi/4/master/share/psi4/basis/6-31gs.gbs 
    atoms 3-6 entry H          line    44 file /opt/psi/4/master/share/psi4/basis/6-31gs.gbs 


         ---------------------------------------------------------
                                   SCF
               by Justin Turney, Rob Parrish, Andy Simmonett
                          and Daniel G. A. Smith
                              RKS Reference
                        1 Threads,  13351 MiB Core
         ---------------------------------------------------------

  ==> Geometry <==

    Molecular point group: c1
    Full point group: C1

    Geometry (in Bohr), charge = 0, multiplicity = 1:

       Center              X                  Y                   Z               Mass       
    ------------   -----------------  -----------------  -----------------  -----------------
         C           -1.375070138700    -0.024278773200    -0.000823413800    12.000000000000
         O            1.306018223400     0.120700162400     0.001546805900    15.994914619570
         H           -2.077876957500     1.909608933500    -0.001005577400     1.007825032230
         H           -2.102328434200    -0.980572146400     1.679872763000     1.007825032230
         H           -2.115641549200    -0.978098047200    -1.683981630400     1.007825032230
         H            1.941174696300    -1.577492249200     0.004382642700     1.007825032230

  Running in c1 symmetry.

  Rotational constants: A =      4.28212  B =      0.82705  C =      0.79795 [cm^-1]
  Rotational constants: A = 128374.77679  B =  24794.31533  C =  23921.93256 [MHz]
  Nuclear repulsion =   40.307772761311220

  Charge       = 0
  Multiplicity = 1
  Electrons    = 18
  Nalpha       = 9
  Nbeta        = 9

  ==> Algorithm <==

  SCF Algorithm Type is DF.
  DIIS enabled.
  MOM disabled.
  Fractional occupation disabled.
  Guess Type is SAD.
  Energy threshold   = 1.00e-10
  Density threshold  = 1.00e-10
  Integral threshold = 0.00e+00

  ==> Primary Basis <==

  Basis Set: 6-31G*
    Blend: 6-31G*
    Number of shells: 20
    Number of basis function: 38
    Number of Cartesian functions: 38
    Spherical Harmonics?: false
    Max angular momentum: 2

  ==> DFT Potential <==

   => Composite Functional: B3LYP <= 

    B3LYP Hyb-GGA Exchange-Correlation Functional

    P. J. Stephens, F. J. Devlin, C. F. Chabalowski, and M. J. Frisch, J. Phys. Chem. 98, 11623 (1994)

    Deriv               =              1
    GGA                 =           TRUE
    Meta                =          FALSE

    Exchange Hybrid     =           TRUE
    MP2 Hybrid          =          FALSE

   => Exchange Functionals <=

    0.0800   Slater exchange
    0.7200         Becke 88

   => Exact (HF) Exchange <=

    0.2000               HF 

   => Correlation Functionals <=

    0.1900   Vosko, Wilk & Nusair (VWN5_RPA)
    0.8100   Lee, Yang & Parr

   => Molecular Quadrature <=

    Radial Scheme          =       TREUTLER
    Pruning Scheme         =           NONE
    Nuclear Scheme         =       TREUTLER

    BS radius alpha        =              1
    Pruning alpha          =              1
    Radial Points          =             99
    Spherical Points       =           1202
    Total Points           =         678853
    Total Blocks           =           4720
    Max Points             =            256
    Max Functions          =             38
    Weights Tolerance      =       1.00E-15

   => Loading Basis Set <=

    Name: (6-31G* AUX)
    Role: JKFIT
    Keyword: DF_BASIS_SCF
    atoms 1   entry C          line   121 file /opt/psi/4/master/share/psi4/basis/cc-pvdz-jkfit.gbs 
    atoms 2   entry O          line   221 file /opt/psi/4/master/share/psi4/basis/cc-pvdz-jkfit.gbs 
    atoms 3-6 entry H          line    51 file /opt/psi/4/master/share/psi4/basis/cc-pvdz-jkfit.gbs 

  ==> Integral Setup <==

  DFHelper Memory: AOs need 0.004 GiB; user supplied 9.070 GiB. Using in-core AOs.

  ==> MemDFJK: Density-Fitted J/K Matrices <==

    J tasked:                   Yes
    K tasked:                   Yes
    wK tasked:                   No
    OpenMP threads:               1
    Memory [MiB]:              9287
    Algorithm:                 Core
    Schwarz Cutoff:           1E-12
    Mask sparsity (%):       0.0000
    Fitting Condition:        1E-10

   => Auxiliary Basis Set <=

  Basis Set: (6-31G* AUX)
    Blend: CC-PVDZ-JKFIT
    Number of shells: 84
    Number of basis function: 262
    Number of Cartesian functions: 262
    Spherical Harmonics?: false
    Max angular momentum: 3

  Cached 100.0% of DFT collocation blocks in 0.709 [GiB].

  Minimum eigenvalue in the overlap matrix is 9.7432412893E-03.
  Reciprocal condition number of the overlap matrix is 1.6240643138E-03.
    Using symmetric orthogonalization.

  ==> Pre-Iterations <==

  SCF Guess: Superposition of Atomic Densities via on-the-fly atomic UHF (no occupation information).

   -------------------------
    Irrep   Nso     Nmo    
   -------------------------
     A         38      38 
   -------------------------
    Total      38      38
   -------------------------

  ==> Iterations <==

                           Total Energy        Delta E     RMS |[F,P]|

   @DF-RKS iter SAD:  -115.27626618813444   -1.15276e+02   0.00000e+00 
   @DF-RKS iter   1:  -115.54947175347485   -2.73206e-01   1.60898e-02 DIIS
   @DF-RKS iter   2:  -115.45058442534435    9.88873e-02   2.10648e-02 DIIS
   @DF-RKS iter   3:  -115.71155037128744   -2.60966e-01   2.14123e-03 DIIS
   @DF-RKS iter   4:  -115.71400642115606   -2.45605e-03   6.73087e-04 DIIS
   @DF-RKS iter   5:  -115.71427309199031   -2.66671e-04   8.12163e-05 DIIS
   @DF-RKS iter   6:  -115.71427697376264   -3.88177e-06   8.53675e-06 DIIS
   @DF-RKS iter   7:  -115.71427701997780   -4.62152e-08   7.68774e-07 DIIS
   @DF-RKS iter   8:  -115.71427702038669   -4.08889e-10   1.06878e-07 DIIS
   @DF-RKS iter   9:  -115.71427702039459   -7.90124e-12   2.04691e-08 DIIS
   @DF-RKS iter  10:  -115.71427702039489   -2.98428e-13   1.33852e-09 DIIS
   @DF-RKS iter  11:  -115.71427702039485    4.26326e-14   1.18314e-10 DIIS
   @DF-RKS iter  12:  -115.71427702039499   -1.42109e-13   2.22331e-11 DIIS
  Energy and wave function converged.


  ==> Post-Iterations <==

    Orbital Energies [Eh]
    ---------------------

    Doubly Occupied:                                                      

       1A    -19.138433     2A    -10.223062     3A     -1.011280  
       4A     -0.680168     5A     -0.502600     6A     -0.435623  
       7A     -0.419712     8A     -0.330661     9A     -0.264416  

    Virtual:                                                              

      10A      0.077237    11A      0.132552    12A      0.168418  
      13A      0.176592    14A      0.205407    15A      0.533672  
      16A      0.566220    17A      0.575498    18A      0.791887  
      19A      0.853624    20A      0.872701    21A      0.906873  
      22A      0.955936    23A      0.976902    24A      1.025403  
      25A      1.115544    26A      1.462134    27A      1.502027  
      28A      1.585751    29A      1.744452    30A      2.041988  
      31A      2.115453    32A      2.137421    33A      2.350913  
      34A      2.401470    35A      2.457290    36A      2.793972  
      37A      3.699471    38A      4.216947  

    Final Occupation by Irrep:
              A 
    DOCC [     9 ]

  @DF-RKS Final Energy:  -115.71427702039499

   => Energetics <=

    Nuclear Repulsion Energy =             40.3077727613112202
    One-Electron Energy =                -237.0143167026770072
    Two-Electron Energy =                  93.5446816823202738
    DFT Exchange-Correlation Energy =     -12.5524147613494641
    Empirical Dispersion Energy =           0.0000000000000000
    VV10 Nonlocal Energy =                  0.0000000000000000
    Total Energy =                       -115.7142770203949880

Computation Completed


Properties will be evaluated at   0.000000,   0.000000,   0.000000 [a0]

Properties computed using the SCF density matrix

  Nuclear Dipole Moment: [e a0]
     X:    -2.1569      Y:    -0.8066      Z:     0.0067

  Electronic Dipole Moment: [e a0]
     X:     1.8243      Y:     0.2226      Z:    -0.0052

  Dipole Moment: [e a0]
     X:    -0.3326      Y:    -0.5841      Z:     0.0015     Total:     0.6721

  Dipole Moment: [D]
     X:    -0.8455      Y:    -1.4845      Z:     0.0039     Total:     1.7084


*** tstop() called on n071 at Wed Sep 21 16:17:15 2022
Module time:
	user time   =      18.63 seconds =       0.31 minutes
	system time =       0.32 seconds =       0.01 minutes
	total time  =         19 seconds =       0.32 minutes
Total time:
	user time   =      18.63 seconds =       0.31 minutes
	system time =       0.32 seconds =       0.01 minutes
	total time  =         19 seconds =       0.32 minutes

*** tstart() called on n071
*** at Wed Sep 21 16:17:15 2022


         ------------------------------------------------------------
                                   SCF GRAD                          
                          Rob Parrish, Justin Turney,                
                       Andy Simmonett, and Alex Sokolov              
         ------------------------------------------------------------

  ==> Geometry <==

    Molecular point group: c1
    Full point group: C1

    Geometry (in Bohr), charge = 0, multiplicity = 1:

       Center              X                  Y                   Z               Mass       
    ------------   -----------------  -----------------  -----------------  -----------------
         C           -1.375070138700    -0.024278773200    -0.000823413800    12.000000000000
         O            1.306018223400     0.120700162400     0.001546805900    15.994914619570
         H           -2.077876957500     1.909608933500    -0.001005577400     1.007825032230
         H           -2.102328434200    -0.980572146400     1.679872763000     1.007825032230
         H           -2.115641549200    -0.978098047200    -1.683981630400     1.007825032230
         H            1.941174696300    -1.577492249200     0.004382642700     1.007825032230

  Nuclear repulsion =   40.307772761311220

  ==> Basis Set <==

  Basis Set: 6-31G*
    Blend: 6-31G*
    Number of shells: 20
    Number of basis function: 38
    Number of Cartesian functions: 38
    Spherical Harmonics?: false
    Max angular momentum: 2

  ==> DFJKGrad: Density-Fitted SCF Gradients <==

    Gradient:                    1
    J tasked:                  Yes
    K tasked:                  Yes
    wK tasked:                  No
    OpenMP threads:              1
    Integrals threads:           1
    Memory [MiB]:            10013
    Schwarz Cutoff:          0E+00
    Fitting Condition:       1E-10

   => Auxiliary Basis Set <=

  Basis Set: (6-31G* AUX)
    Blend: CC-PVDZ-JKFIT
    Number of shells: 84
    Number of basis function: 262
    Number of Cartesian functions: 262
    Spherical Harmonics?: false
    Max angular momentum: 3

  ==> DFT Potential <==

   => Composite Functional: B3LYP <= 

    B3LYP Hyb-GGA Exchange-Correlation Functional

    P. J. Stephens, F. J. Devlin, C. F. Chabalowski, and M. J. Frisch, J. Phys. Chem. 98, 11623 (1994)

    Deriv               =              1
    GGA                 =           TRUE
    Meta                =          FALSE

    Exchange Hybrid     =           TRUE
    MP2 Hybrid          =          FALSE

   => Exchange Functionals <=

    0.0800   Slater exchange
    0.7200         Becke 88

   => Exact (HF) Exchange <=

    0.2000               HF 

   => Correlation Functionals <=

    0.1900   Vosko, Wilk & Nusair (VWN5_RPA)
    0.8100   Lee, Yang & Parr

   => Molecular Quadrature <=

    Radial Scheme          =       TREUTLER
    Pruning Scheme         =           NONE
    Nuclear Scheme         =       TREUTLER

    BS radius alpha        =              1
    Pruning alpha          =              1
    Radial Points          =             99
    Spherical Points       =           1202
    Total Points           =         678853
    Total Blocks           =           4720
    Max Points             =            256
    Max Functions          =             38
    Weights Tolerance      =       1.00E-15


  -Total Gradient:
     Atom            X                  Y                   Z
    ------   -----------------  -----------------  -----------------
       1       -0.005166792858    -0.000464093802     0.001010885473
       2        0.003761084859    -0.008761185512     0.000471278127
       3        0.000798719029    -0.002844705097    -0.000190700671
       4        0.002791630668     0.002110944699    -0.003603312491
       5        0.001412547209     0.001563019279     0.002312251177
       6       -0.003597273898     0.008396085349    -0.000000401556


*** tstop() called on n071 at Wed Sep 21 16:17:18 2022
Module time:
	user time   =       2.76 seconds =       0.05 minutes
	system time =       0.01 seconds =       0.00 minutes
	total time  =          3 seconds =       0.05 minutes
Total time:
	user time   =      21.39 seconds =       0.36 minutes
	system time =       0.33 seconds =       0.01 minutes
	total time  =         22 seconds =       0.37 minutes

    Psi4 stopped on: Wednesday, 21 September 2022 04:17PM
    Psi4 wall time for execution: 0:00:21.79

*** Psi4 exiting successfully. Buy a developer a beer!
