[Molden Format]

[FREQ]
        1776.2490054505
        4113.3828152571
        4211.7701190487

[FR-COORD]
H         -1.4150869886        0.9709659079        0.0000000000
O          0.0000000000       -0.1223593587        0.0000000000
H          1.4150869886        0.9709659079        0.0000000000

[FR-NORM-COORD]
vibration 1
           0.4325177727        0.5571922541        0.0000000000
          -0.0000000000       -0.0702163550       -0.0000000000
          -0.4325177727        0.5571922541        0.0000000000
vibration 2
           0.5814333003       -0.4008236936       -0.0000000000
          -0.0000000000        0.0505110732       -0.0000000000
          -0.5814333000       -0.4008236933        0.0000000000
vibration 3
           0.5581659545       -0.4312504786       -0.0000000000
          -0.0703390590       -0.0000000000        0.0000000000
           0.5581659549        0.4312504788       -0.0000000000
