
    -----------------------------------------------------------------------
          Psi4: An Open-Source Ab Initio Electronic Structure Package
                               Psi4 1.4a2.dev629 

                         Git: Rev {master} 2938fc2 dirty


    D. G. A. Smith, L. A. Burns, A. C. Simmonett, R. M. Parrish,
    M. C. Schieber, R. Galvelis, P. Kraus, H. Kruse, R. Di Remigio,
    A. Alenaizan, A. M. James, S. Lehtola, J. P. Misiewicz, M. Scheurer,
    R. A. Shaw, J. B. Schriber, Y. Xie, Z. L. Glick, D. A. Sirianni,
    J. S. O'Brien, J. M. Waldrop, A. Kumar, E. G. Hohenstein,
    B. P. Pritchard, B. R. Brooks, H. F. Schaefer III, A. Yu. Sokolov,
    K. Patkowski, A. E. DePrince III, U. Bozkaya, R. A. King,
    F. A. Evangelista, J. M. Turney, T. D. Crawford, C. D. Sherrill,
    J. Chem. Phys. 152(18) 184108 (2020). https://doi.org/10.1063/5.0006002

                            Additional Code Authors
    E. T. Seidl, C. L. Janssen, E. F. Valeev, M. L. Leininger,
    J. F. Gonthier, R. M. Richard, H. R. McAlexander, M. Saitow, X. Wang,
    P. Verma, and M. H. Lechner

             Previous Authors, Complete List of Code Contributors,
                       and Citations for Specific Modules
    https://github.com/psi4/psi4/blob/master/codemeta.json
    https://github.com/psi4/psi4/graphs/contributors
    http://psicode.org/psi4manual/master/introduction.html#citing-psifour

    -----------------------------------------------------------------------


    Psi4 started on: Friday, 19 June 2020 12:17PM

    Process ID: 7741
    Host:       n045
    PSIDATADIR: /opt/psi/4/master/share/psi4
    Memory:     500.0 MiB
    Threads:    4
    
  ==> Input File <==

--------------------------------------------------------------------------
# o-Benzyne preliminary computations

memory 30 gb

molecule P1P2_CN_Singlet
{
  0 1
  H         -1.8897259886          1.4550890112          0.0000000000  
  O          0.0000000000          0.0000000000          0.0000000000  
  H          1.8897259886          1.4550890112          0.0000000000  
  no_reorient
  units bohr
}

set {
  reference rhf
  basis cc-pvdz
  e_convergence 9 
  d_convergence 10
  maxiter 300
  normal_modes_write true
}

opt('scf')
freq('scf')
--------------------------------------------------------------------------

  Memory set to  27.940 GiB by Python driver.

Scratch directory: /tmp/330815.1.debug.q/
gradient() will perform analytic gradient computation.

*** tstart() called on n045
*** at Fri Jun 19 12:17:51 2020

   => Loading Basis Set <=

    Name: CC-PVDZ
    Role: ORBITAL
    Keyword: BASIS
    atoms 1, 3 entry H          line    22 file /opt/psi/4/master/share/psi4/basis/cc-pvdz.gbs 
    atoms 2    entry O          line   198 file /opt/psi/4/master/share/psi4/basis/cc-pvdz.gbs 


         ---------------------------------------------------------
                                   SCF
               by Justin Turney, Rob Parrish, Andy Simmonett
                          and Daniel G. A. Smith
                              RHF Reference
                        4 Threads,  28610 MiB Core
         ---------------------------------------------------------

  ==> Geometry <==

    Molecular point group: c2v
    Full point group: C2v

    Geometry (in Bohr), charge = 0, multiplicity = 1:

       Center              X                  Y                   Z               Mass       
    ------------   -----------------  -----------------  -----------------  -----------------
         H           -1.889725988600     1.292242908889     0.000000000000     1.007825032230
         O            0.000000000000    -0.162846102311     0.000000000000    15.994914619570
         H            1.889725988600     1.292242908889     0.000000000000     1.007825032230

  Running in c2v symmetry.

  Rotational constants: A =     15.88347  B =      8.36337  C =      5.47863 [cm^-1]
  Rotational constants: A = 476174.43856  B = 250727.58955  C = 164245.06270 [MHz]
  Nuclear repulsion =    6.973111279498809

  Charge       = 0
  Multiplicity = 1
  Electrons    = 10
  Nalpha       = 5
  Nbeta        = 5

  ==> Algorithm <==

  SCF Algorithm Type is DF.
  DIIS enabled.
  MOM disabled.
  Fractional occupation disabled.
  Guess Type is SAD.
  Energy threshold   = 1.00e-09
  Density threshold  = 1.00e-10
  Integral threshold = 0.00e+00

  ==> Primary Basis <==

  Basis Set: CC-PVDZ
    Blend: CC-PVDZ
    Number of shells: 12
    Number of basis function: 24
    Number of Cartesian functions: 25
    Spherical Harmonics?: true
    Max angular momentum: 2

   => Loading Basis Set <=

    Name: (CC-PVDZ AUX)
    Role: JKFIT
    Keyword: DF_BASIS_SCF
    atoms 1, 3 entry H          line    51 file /opt/psi/4/master/share/psi4/basis/cc-pvdz-jkfit.gbs 
    atoms 2    entry O          line   221 file /opt/psi/4/master/share/psi4/basis/cc-pvdz-jkfit.gbs 

  ==> Integral Setup <==

  DFHelper Memory: AOs need 0.001 GiB; user supplied 20.955 GiB. Using in-core AOs.

  ==> MemDFJK: Density-Fitted J/K Matrices <==

    J tasked:                   Yes
    K tasked:                   Yes
    wK tasked:                   No
    OpenMP threads:               4
    Memory [MiB]:             21457
    Algorithm:                 Core
    Schwarz Cutoff:           1E-12
    Mask sparsity (%):       0.0000
    Fitting Condition:        1E-10

   => Auxiliary Basis Set <=

  Basis Set: (CC-PVDZ AUX)
    Blend: CC-PVDZ-JKFIT
    Number of shells: 42
    Number of basis function: 116
    Number of Cartesian functions: 131
    Spherical Harmonics?: true
    Max angular momentum: 3

  Minimum eigenvalue in the overlap matrix is 6.3312801036E-02.
  Reciprocal condition number of the overlap matrix is 2.2728593608E-02.
    Using symmetric orthogonalization.

  ==> Pre-Iterations <==

  SCF Guess: Superposition of Atomic Densities via on-the-fly atomic UHF (no occupation information).

   -------------------------
    Irrep   Nso     Nmo    
   -------------------------
     A1        11      11 
     A2         2       2 
     B1         7       7 
     B2         4       4 
   -------------------------
    Total      24      24
   -------------------------

  ==> Iterations <==

                           Total Energy        Delta E     RMS |[F,P]|

   @DF-RHF iter SAD:   -75.10254352034127   -7.51025e+01   0.00000e+00 
   @DF-RHF iter   1:   -75.79900844548260   -6.96465e-01   3.31531e-02 DIIS
   @DF-RHF iter   2:   -75.85735915782431   -5.83507e-02   2.77941e-02 DIIS
   @DF-RHF iter   3:   -75.91004127849530   -5.26821e-02   2.67706e-03 DIIS
   @DF-RHF iter   4:   -75.91117001161965   -1.12873e-03   8.43737e-04 DIIS
   @DF-RHF iter   5:   -75.91126898880790   -9.89772e-05   1.14880e-04 DIIS
   @DF-RHF iter   6:   -75.91127178921847   -2.80041e-06   1.86553e-05 DIIS
   @DF-RHF iter   7:   -75.91127189300084   -1.03782e-07   6.48783e-06 DIIS
   @DF-RHF iter   8:   -75.91127191241037   -1.94095e-08   1.75089e-06 DIIS
   @DF-RHF iter   9:   -75.91127191394612   -1.53575e-09   2.07823e-07 DIIS
   @DF-RHF iter  10:   -75.91127191395773   -1.16103e-11   2.33102e-08 DIIS
   @DF-RHF iter  11:   -75.91127191395793   -1.98952e-13   1.69376e-09 DIIS
   @DF-RHF iter  12:   -75.91127191395790    2.84217e-14   1.02959e-10 DIIS
   @DF-RHF iter  13:   -75.91127191395792   -1.42109e-14   1.77327e-11 DIIS
  Energy and wave function converged.


  ==> Post-Iterations <==

    Orbital Energies [Eh]
    ---------------------

    Doubly Occupied:                                                      

       1A1   -20.599656     2A1    -1.236330     1B1    -0.569648  
       3A1    -0.512581     1B2    -0.485702  

    Virtual:                                                              

       4A1     0.118059     2B1     0.186958     3B1     0.654541  
       5A1     0.664308     2B2     1.160914     6A1     1.178803  
       4B1     1.288371     1A2     1.442527     7A1     1.518363  
       3B2     1.651320     5B1     1.708494     8A1     1.769015  
       6B1     1.886712     9A1     2.119865     4B2     3.075359  
       2A2     3.102098    10A1     3.156110    11A1     3.551939  
       7B1     3.774307  

    Final Occupation by Irrep:
             A1    A2    B1    B2 
    DOCC [     3,    0,    1,    1 ]

  @DF-RHF Final Energy:   -75.91127191395792

   => Energetics <=

    Nuclear Repulsion Energy =              6.9731112794988093
    One-Electron Energy =                -118.9609296993496343
    Two-Electron Energy =                  36.0765465058928996
    Total Energy =                        -75.9112719139579326

Computation Completed


Properties will be evaluated at   0.000000,   0.000000,   0.000000 [a0]

Properties computed using the SCF density matrix

  Nuclear Dipole Moment: [e a0]
     X:     0.0000      Y:     1.2817      Z:     0.0000

  Electronic Dipole Moment: [e a0]
     X:     0.0000      Y:    -0.4079      Z:     0.0000

  Dipole Moment: [e a0]
     X:     0.0000      Y:     0.8738      Z:     0.0000     Total:     0.8738

  Dipole Moment: [D]
     X:     0.0000      Y:     2.2210      Z:     0.0000     Total:     2.2210


*** tstop() called on n045 at Fri Jun 19 12:17:52 2020
Module time:
	user time   =       1.64 seconds =       0.03 minutes
	system time =       0.03 seconds =       0.00 minutes
	total time  =          1 seconds =       0.02 minutes
Total time:
	user time   =       1.64 seconds =       0.03 minutes
	system time =       0.03 seconds =       0.00 minutes
	total time  =          1 seconds =       0.02 minutes

*** tstart() called on n045
*** at Fri Jun 19 12:17:52 2020


         ------------------------------------------------------------
                                   SCF GRAD                          
                          Rob Parrish, Justin Turney,                
                       Andy Simmonett, and Alex Sokolov              
         ------------------------------------------------------------

  ==> Geometry <==

    Molecular point group: c2v
    Full point group: C2v

    Geometry (in Bohr), charge = 0, multiplicity = 1:

       Center              X                  Y                   Z               Mass       
    ------------   -----------------  -----------------  -----------------  -----------------
         H           -1.889725988600     1.292242908889     0.000000000000     1.007825032230
         O            0.000000000000    -0.162846102311     0.000000000000    15.994914619570
         H            1.889725988600     1.292242908889     0.000000000000     1.007825032230

  Nuclear repulsion =    6.973111279498809

  ==> Basis Set <==

  Basis Set: CC-PVDZ
    Blend: CC-PVDZ
    Number of shells: 12
    Number of basis function: 24
    Number of Cartesian functions: 25
    Spherical Harmonics?: true
    Max angular momentum: 2

  ==> DFJKGrad: Density-Fitted SCF Gradients <==

    Gradient:                    1
    J tasked:                  Yes
    K tasked:                  Yes
    wK tasked:                  No
    OpenMP threads:              4
    Integrals threads:           4
    Memory [MiB]:            21457
    Schwarz Cutoff:          0E+00
    Fitting Condition:       1E-10

   => Auxiliary Basis Set <=

  Basis Set: (CC-PVDZ AUX)
    Blend: CC-PVDZ-JKFIT
    Number of shells: 42
    Number of basis function: 116
    Number of Cartesian functions: 131
    Spherical Harmonics?: true
    Max angular momentum: 3


  -Total Gradient:
     Atom            X                  Y                   Z
    ------   -----------------  -----------------  -----------------
       1       -0.115258456984     0.077999279130     0.000000000000
       2        0.000000000000    -0.155998558261     0.000000000000
       3        0.115258456984     0.077999279130     0.000000000000


*** tstop() called on n045 at Fri Jun 19 12:17:52 2020
Module time:
	user time   =       1.27 seconds =       0.02 minutes
	system time =       0.03 seconds =       0.00 minutes
	total time  =          0 seconds =       0.00 minutes
Total time:
	user time   =       2.91 seconds =       0.05 minutes
	system time =       0.06 seconds =       0.00 minutes
	total time  =          1 seconds =       0.02 minutes

			-----------------------------------------
			 OPTKING 2.0: for geometry optimizations 
			  - R.A. King,  Bethel University        
			-----------------------------------------

	Internal coordinates to be generated automatically.
	Detected frag 1 with atoms:  1
	Detected frag 2 with atoms:  2
	Detected frag 3 with atoms:  3
	Unifying fragments since fragment_mode == SINGLE
	Connecting fragments 1 and 2
	Connecting fragments 2 and 3
	---Fragment 1 Bond Connectivity---
	 1 : 2
	 2 : 1 3
	 3 : 2

	---Fragment 1 Geometry and Gradient---
	 H          -1.8897259886        1.2922429089        0.0000000000
	 O           0.0000000000       -0.1628461023        0.0000000000
	 H           1.8897259886        1.2922429089        0.0000000000
	            -0.1152584570        0.0779992791        0.0000000000
	             0.0000000000       -0.1559985583        0.0000000000
	             0.1152584570        0.0779992791        0.0000000000

	Previous optimization step data not found.  Starting new optimization.

	---Fragment 1 Intrafragment Coordinates---
	 - Coordinate -           - BOHR/RAD -       - ANG/DEG -
	 R(1,2)           =         2.385026	       1.262101
	 R(2,3)           =         2.385026	       1.262101
	 B(1,2,3)         =         1.829235	     104.807458

	Current energy   :       -75.9112719140

	Generating empirical Hessian (Schlegel '84) for each fragment.
	Taking RFO optimization step.
	Going to follow RFO solution 1.
	Using RFO vector 1.

	Determining step-restricting scale parameter for RS-RFO.
	Maximum step size allowed    0.50000

	 Iter      |step|        alpha        rfo_root  
	------------------------------------------------
	    0     0.60667       1.00000           1
	    1     0.52405       1.65335           1
	    2     0.50171       1.89630           1
	    3     0.50001       1.91630           1
	------------------------------------------------
	Norm of target step-size    0.50001
	Projected energy change by RFO approximation:        -0.0610523340

	Back-transformation to cartesian coordinates...
	Successfully converged to displaced geometry.

	--- Internal Coordinate Step in ANG or DEG, aJ/ANG or AJ/DEG ---
	 ---------------------------------------------------------------------------
	   Coordinate                Previous        Force       Change         New 
	   ----------                --------       ------       ------       ------
	    1 R(1,2)          =      1.262101    -1.144437    -0.185826     1.076276
	    2 R(2,3)          =      1.262101    -1.144437    -0.185826     1.076276
	    3 B(1,2,3)        =    104.807458    -0.001546    -3.332917   101.474540
	 ---------------------------------------------------------------------------
	Successfully symmetrized geometry.

  ==> Convergence Check <==

  Measures of convergence in internal coordinates in au.
  Criteria marked as inactive (o), active & met (*), and active & unmet ( ).
  --------------------------------------------------------------------------------------------- ~
   Step     Total Energy     Delta E     MAX Force     RMS Force      MAX Disp      RMS Disp    ~
  --------------------------------------------------------------------------------------------- ~
    Convergence Criteria    1.00e-06 *    3.00e-04 *             o    1.20e-03 *             o  ~
  --------------------------------------------------------------------------------------------- ~
      1     -75.91127191   -7.59e+01      1.39e-01      1.14e-01 o    3.51e-01      2.89e-01 o  ~
  ---------------------------------------------------------------------------------------------

	Writing optimization data to binary file.
	Structure for next step:
	Cartesian Geometry (in Angstrom)
	    H    -0.8333087076   0.6542090355   0.0000000000
	    O     0.0000000000  -0.0269415261   0.0000000000
	    H     0.8333087076   0.6542090355   0.0000000000
			--------------------------
			 OPTKING Finished Execution 
			--------------------------

    Structure for next step:
    Molecular point group: c2v
    Full point group: C2v

    Geometry (in Bohr), charge = 0, multiplicity = 1:

    H           -1.574725241433     1.143132532841     0.000000000000
    O            0.000000000000    -0.144055483778     0.000000000000
    H            1.574725241433     1.143132532841     0.000000000000


Scratch directory: /tmp/330815.1.debug.q/
gradient() will perform analytic gradient computation.

*** tstart() called on n045
*** at Fri Jun 19 12:17:52 2020

   => Loading Basis Set <=

    Name: CC-PVDZ
    Role: ORBITAL
    Keyword: BASIS
    atoms 1, 3 entry H          line    22 file /opt/psi/4/master/share/psi4/basis/cc-pvdz.gbs 
    atoms 2    entry O          line   198 file /opt/psi/4/master/share/psi4/basis/cc-pvdz.gbs 


         ---------------------------------------------------------
                                   SCF
               by Justin Turney, Rob Parrish, Andy Simmonett
                          and Daniel G. A. Smith
                              RHF Reference
                        4 Threads,  28610 MiB Core
         ---------------------------------------------------------

  ==> Geometry <==

    Molecular point group: c2v
    Full point group: C2v

    Geometry (in Bohr), charge = 0, multiplicity = 1:

       Center              X                  Y                   Z               Mass       
    ------------   -----------------  -----------------  -----------------  -----------------
         H           -1.574725241433     1.143132532841     0.000000000000     1.007825032230
         O            0.000000000000    -0.144055483778     0.000000000000    15.994914619570
         H            1.574725241433     1.143132532841     0.000000000000     1.007825032230

  Running in c2v symmetry.

  Rotational constants: A =     20.29741  B =     12.04397  C =      7.55878 [cm^-1]
  Rotational constants: A = 608500.89930  B = 361069.01336  C = 226606.47414 [MHz]
  Nuclear repulsion =    8.184305737450799

  Charge       = 0
  Multiplicity = 1
  Electrons    = 10
  Nalpha       = 5
  Nbeta        = 5

  ==> Algorithm <==

  SCF Algorithm Type is DF.
  DIIS enabled.
  MOM disabled.
  Fractional occupation disabled.
  Guess Type is READ.
  Energy threshold   = 1.00e-09
  Density threshold  = 1.00e-10
  Integral threshold = 0.00e+00

  ==> Primary Basis <==

  Basis Set: CC-PVDZ
    Blend: CC-PVDZ
    Number of shells: 12
    Number of basis function: 24
    Number of Cartesian functions: 25
    Spherical Harmonics?: true
    Max angular momentum: 2

   => Loading Basis Set <=

    Name: (CC-PVDZ AUX)
    Role: JKFIT
    Keyword: DF_BASIS_SCF
    atoms 1, 3 entry H          line    51 file /opt/psi/4/master/share/psi4/basis/cc-pvdz-jkfit.gbs 
    atoms 2    entry O          line   221 file /opt/psi/4/master/share/psi4/basis/cc-pvdz-jkfit.gbs 

   => Loading Basis Set <=

    Name: CC-PVDZ
    Role: ORBITAL
    Keyword: BASIS
    atoms 1, 3 entry H          line    22 file /opt/psi/4/master/share/psi4/basis/cc-pvdz.gbs 
    atoms 2    entry O          line   198 file /opt/psi/4/master/share/psi4/basis/cc-pvdz.gbs 

  Reading orbitals from file 180, no projection.

  ==> Integral Setup <==

  DFHelper Memory: AOs need 0.001 GiB; user supplied 20.955 GiB. Using in-core AOs.

  ==> MemDFJK: Density-Fitted J/K Matrices <==

    J tasked:                   Yes
    K tasked:                   Yes
    wK tasked:                   No
    OpenMP threads:               4
    Memory [MiB]:             21457
    Algorithm:                 Core
    Schwarz Cutoff:           1E-12
    Mask sparsity (%):       0.0000
    Fitting Condition:        1E-10

   => Auxiliary Basis Set <=

  Basis Set: (CC-PVDZ AUX)
    Blend: CC-PVDZ-JKFIT
    Number of shells: 42
    Number of basis function: 116
    Number of Cartesian functions: 131
    Spherical Harmonics?: true
    Max angular momentum: 3

  Minimum eigenvalue in the overlap matrix is 4.1668413882E-02.
  Reciprocal condition number of the overlap matrix is 1.3782234346E-02.
    Using symmetric orthogonalization.

  ==> Pre-Iterations <==

  SCF Guess: Orbitals guess was supplied from a previous computation.

   -------------------------------------------------------
    Irrep   Nso     Nmo     Nalpha   Nbeta   Ndocc  Nsocc
   -------------------------------------------------------
     A1        11      11       3       3       3       0
     A2         2       2       0       0       0       0
     B1         7       7       1       1       1       0
     B2         4       4       1       1       1       0
   -------------------------------------------------------
    Total      24      24       5       5       5       0
   -------------------------------------------------------

  ==> Iterations <==

                           Total Energy        Delta E     RMS |[F,P]|

   @DF-RHF iter   0:   -76.18230834793501   -7.61823e+01   2.79052e-02 
   @DF-RHF iter   1:   -75.99645726881654    1.85851e-01   5.12133e-03 DIIS
   @DF-RHF iter   2:   -75.99882788217873   -2.37061e-03   2.59052e-03 DIIS
   @DF-RHF iter   3:   -75.99928540668573   -4.57525e-04   5.38209e-04 DIIS
   @DF-RHF iter   4:   -75.99934483735106   -5.94307e-05   2.16223e-04 DIIS
   @DF-RHF iter   5:   -75.99935491832412   -1.00810e-05   4.33160e-05 DIIS
   @DF-RHF iter   6:   -75.99935554002721   -6.21703e-07   8.81916e-06 DIIS
   @DF-RHF iter   7:   -75.99935556250193   -2.24747e-08   1.60362e-06 DIIS
   @DF-RHF iter   8:   -75.99935556310434   -6.02412e-10   1.69211e-07 DIIS
   @DF-RHF iter   9:   -75.99935556311056   -6.21014e-12   1.65396e-08 DIIS
   @DF-RHF iter  10:   -75.99935556311060   -4.26326e-14   2.50450e-09 DIIS
   @DF-RHF iter  11:   -75.99935556311061   -1.42109e-14   1.87176e-10 DIIS
   @DF-RHF iter  12:   -75.99935556311060    1.42109e-14   1.15359e-11 DIIS
  Energy and wave function converged.


  ==> Post-Iterations <==

    Orbital Energies [Eh]
    ---------------------

    Doubly Occupied:                                                      

       1A1   -20.572494     2A1    -1.287449     1B1    -0.636461  
       3A1    -0.550741     1B2    -0.488299  

    Virtual:                                                              

       4A1     0.162774     2B1     0.234415     3B1     0.709035  
       5A1     0.769124     6A1     1.171784     2B2     1.188941  
       4B1     1.268622     7A1     1.444947     1A2     1.461348  
       3B2     1.649244     5B1     1.834276     8A1     1.887319  
       6B1     2.192416     9A1     2.238953     4B2     3.199615  
       2A2     3.221965    10A1     3.364101    11A1     3.734740  
       7B1     4.022818  

    Final Occupation by Irrep:
             A1    A2    B1    B2 
    DOCC [     3,    0,    1,    1 ]

  @DF-RHF Final Energy:   -75.99935556311060

   => Energetics <=

    Nuclear Repulsion Energy =              8.1843057374507993
    One-Electron Energy =                -121.2964350768127133
    Two-Electron Energy =                  37.1127737762513163
    Total Energy =                        -75.9993555631105977

Computation Completed


Properties will be evaluated at   0.000000,   0.000000,   0.000000 [a0]

Properties computed using the SCF density matrix

  Nuclear Dipole Moment: [e a0]
     X:     0.0000      Y:     1.1338      Z:     0.0000

  Electronic Dipole Moment: [e a0]
     X:     0.0000      Y:    -0.2674      Z:     0.0000

  Dipole Moment: [e a0]
     X:     0.0000      Y:     0.8664      Z:     0.0000     Total:     0.8664

  Dipole Moment: [D]
     X:     0.0000      Y:     2.2022      Z:     0.0000     Total:     2.2022


*** tstop() called on n045 at Fri Jun 19 12:17:52 2020
Module time:
	user time   =       1.11 seconds =       0.02 minutes
	system time =       0.02 seconds =       0.00 minutes
	total time  =          0 seconds =       0.00 minutes
Total time:
	user time   =       4.08 seconds =       0.07 minutes
	system time =       0.09 seconds =       0.00 minutes
	total time  =          1 seconds =       0.02 minutes

*** tstart() called on n045
*** at Fri Jun 19 12:17:52 2020


         ------------------------------------------------------------
                                   SCF GRAD                          
                          Rob Parrish, Justin Turney,                
                       Andy Simmonett, and Alex Sokolov              
         ------------------------------------------------------------

  ==> Geometry <==

    Molecular point group: c2v
    Full point group: C2v

    Geometry (in Bohr), charge = 0, multiplicity = 1:

       Center              X                  Y                   Z               Mass       
    ------------   -----------------  -----------------  -----------------  -----------------
         H           -1.574725241433     1.143132532841     0.000000000000     1.007825032230
         O            0.000000000000    -0.144055483778     0.000000000000    15.994914619570
         H            1.574725241433     1.143132532841     0.000000000000     1.007825032230

  Nuclear repulsion =    8.184305737450799

  ==> Basis Set <==

  Basis Set: CC-PVDZ
    Blend: CC-PVDZ
    Number of shells: 12
    Number of basis function: 24
    Number of Cartesian functions: 25
    Spherical Harmonics?: true
    Max angular momentum: 2

  ==> DFJKGrad: Density-Fitted SCF Gradients <==

    Gradient:                    1
    J tasked:                  Yes
    K tasked:                  Yes
    wK tasked:                  No
    OpenMP threads:              4
    Integrals threads:           4
    Memory [MiB]:            21457
    Schwarz Cutoff:          0E+00
    Fitting Condition:       1E-10

   => Auxiliary Basis Set <=

  Basis Set: (CC-PVDZ AUX)
    Blend: CC-PVDZ-JKFIT
    Number of shells: 42
    Number of basis function: 116
    Number of Cartesian functions: 131
    Spherical Harmonics?: true
    Max angular momentum: 3


  -Total Gradient:
     Atom            X                  Y                   Z
    ------   -----------------  -----------------  -----------------
       1       -0.076588711150     0.060840516929     0.000000000000
       2        0.000000000000    -0.121681033858     0.000000000000
       3        0.076588711150     0.060840516929     0.000000000000


*** tstop() called on n045 at Fri Jun 19 12:17:53 2020
Module time:
	user time   =       1.26 seconds =       0.02 minutes
	system time =       0.04 seconds =       0.00 minutes
	total time  =          1 seconds =       0.02 minutes
Total time:
	user time   =       5.34 seconds =       0.09 minutes
	system time =       0.13 seconds =       0.00 minutes
	total time  =          2 seconds =       0.03 minutes

			-----------------------------------------
			 OPTKING 2.0: for geometry optimizations 
			  - R.A. King,  Bethel University        
			-----------------------------------------

	Previous internal coordinate definitions found.
	---Fragment 1 Geometry and Gradient---
	 H          -1.5747252414        1.1431325328        0.0000000000
	 O           0.0000000000       -0.1440554838        0.0000000000
	 H           1.5747252414        1.1431325328        0.0000000000
	            -0.0765887112        0.0608405169        0.0000000000
	             0.0000000000       -0.1216810339        0.0000000000
	             0.0765887112        0.0608405169        0.0000000000

	---Fragment 1 Intrafragment Coordinates---
	 - Coordinate -           - BOHR/RAD -       - ANG/DEG -
	 R(1,2)           =         2.033866	       1.076276
	 R(2,3)           =         2.033866	       1.076276
	 B(1,2,3)         =         1.771065	     101.474540

	Current energy   :       -75.9993555631

	Energy change for the previous step:
		Projected    :        -0.0610523340
		Actual       :        -0.0880836492
	Energy ratio indicates good step: Trust radius increased to 1.000e+00.


	Performing BFGS update.
	Previous computed or guess Hessian on step 1.
	Steps to be used in Hessian update: 1
	Taking RFO optimization step.
	Going to follow RFO solution 1.
	Using RFO vector 1.
	Norm of target step-size    0.66906
	Projected energy change by RFO approximation:         0.0666431997

	Back-transformation to cartesian coordinates...
	Successfully converged to displaced geometry.

	--- Internal Coordinate Step in ANG or DEG, aJ/ANG or AJ/DEG ---
	 ---------------------------------------------------------------------------
	   Coordinate                Previous        Force       Change         New 
	   ----------                --------       ------       ------       ------
	    1 R(1,2)          =      1.076276    -0.805776    -0.250115     0.826161
	    2 R(2,3)          =      1.076276    -0.805776    -0.250115     0.826161
	    3 B(1,2,3)        =    101.474540    -0.000211     1.674304   103.148844
	 ---------------------------------------------------------------------------
	Successfully symmetrized geometry.

  ==> Convergence Check <==

  Measures of convergence in internal coordinates in au.
  Criteria marked as inactive (o), active & met (*), and active & unmet ( ).
  ---------------------------------------------------------------------------------------------
   Step     Total Energy     Delta E     MAX Force     RMS Force      MAX Disp      RMS Disp   
  ---------------------------------------------------------------------------------------------
    Convergence Criteria    1.00e-06 *    3.00e-04 *             o    1.20e-03 *             o
  ---------------------------------------------------------------------------------------------
      2     -75.99935556   -8.81e-02      9.78e-02      7.99e-02 o    4.73e-01      3.86e-01 o  ~
  ---------------------------------------------------------------------------------------------

	Writing optimization data to binary file.
	Structure for next step:
	Cartesian Geometry (in Angstrom)
	    H    -0.6472277753   0.5490218360   0.0000000000
	    O     0.0000000000   0.0355648149   0.0000000000
	    H     0.6472277753   0.5490218360   0.0000000000
			--------------------------
			 OPTKING Finished Execution 
			--------------------------

    Structure for next step:
    Molecular point group: c2v
    Full point group: C2v

    Geometry (in Bohr), charge = 0, multiplicity = 1:

    H           -1.223083240879     0.861702915836     0.000000000000
    O            0.000000000000    -0.108590235032     0.000000000000
    H            1.223083240879     0.861702915836     0.000000000000


Scratch directory: /tmp/330815.1.debug.q/
gradient() will perform analytic gradient computation.

*** tstart() called on n045
*** at Fri Jun 19 12:17:53 2020

   => Loading Basis Set <=

    Name: CC-PVDZ
    Role: ORBITAL
    Keyword: BASIS
    atoms 1, 3 entry H          line    22 file /opt/psi/4/master/share/psi4/basis/cc-pvdz.gbs 
    atoms 2    entry O          line   198 file /opt/psi/4/master/share/psi4/basis/cc-pvdz.gbs 


         ---------------------------------------------------------
                                   SCF
               by Justin Turney, Rob Parrish, Andy Simmonett
                          and Daniel G. A. Smith
                              RHF Reference
                        4 Threads,  28610 MiB Core
         ---------------------------------------------------------

  ==> Geometry <==

    Molecular point group: c2v
    Full point group: C2v

    Geometry (in Bohr), charge = 0, multiplicity = 1:

       Center              X                  Y                   Z               Mass       
    ------------   -----------------  -----------------  -----------------  -----------------
         H           -1.223083240879     0.861702915836     0.000000000000     1.007825032230
         O            0.000000000000    -0.108590235032     0.000000000000    15.994914619570
         H            1.223083240879     0.861702915836     0.000000000000     1.007825032230

  Running in c2v symmetry.

  Rotational constants: A =     35.72059  B =     19.96490  C =     12.80689 [cm^-1]
  Rotational constants: A = 1070876.20533  B = 598532.53993  C = 383940.87544 [MHz]
  Nuclear repulsion =   10.657212019259841

  Charge       = 0
  Multiplicity = 1
  Electrons    = 10
  Nalpha       = 5
  Nbeta        = 5

  ==> Algorithm <==

  SCF Algorithm Type is DF.
  DIIS enabled.
  MOM disabled.
  Fractional occupation disabled.
  Guess Type is READ.
  Energy threshold   = 1.00e-09
  Density threshold  = 1.00e-10
  Integral threshold = 0.00e+00

  ==> Primary Basis <==

  Basis Set: CC-PVDZ
    Blend: CC-PVDZ
    Number of shells: 12
    Number of basis function: 24
    Number of Cartesian functions: 25
    Spherical Harmonics?: true
    Max angular momentum: 2

   => Loading Basis Set <=

    Name: (CC-PVDZ AUX)
    Role: JKFIT
    Keyword: DF_BASIS_SCF
    atoms 1, 3 entry H          line    51 file /opt/psi/4/master/share/psi4/basis/cc-pvdz-jkfit.gbs 
    atoms 2    entry O          line   221 file /opt/psi/4/master/share/psi4/basis/cc-pvdz-jkfit.gbs 

   => Loading Basis Set <=

    Name: CC-PVDZ
    Role: ORBITAL
    Keyword: BASIS
    atoms 1, 3 entry H          line    22 file /opt/psi/4/master/share/psi4/basis/cc-pvdz.gbs 
    atoms 2    entry O          line   198 file /opt/psi/4/master/share/psi4/basis/cc-pvdz.gbs 

  Reading orbitals from file 180, no projection.

  ==> Integral Setup <==

  DFHelper Memory: AOs need 0.001 GiB; user supplied 20.955 GiB. Using in-core AOs.

  ==> MemDFJK: Density-Fitted J/K Matrices <==

    J tasked:                   Yes
    K tasked:                   Yes
    wK tasked:                   No
    OpenMP threads:               4
    Memory [MiB]:             21457
    Algorithm:                 Core
    Schwarz Cutoff:           1E-12
    Mask sparsity (%):       0.0000
    Fitting Condition:        1E-10

   => Auxiliary Basis Set <=

  Basis Set: (CC-PVDZ AUX)
    Blend: CC-PVDZ-JKFIT
    Number of shells: 42
    Number of basis function: 116
    Number of Cartesian functions: 131
    Spherical Harmonics?: true
    Max angular momentum: 3

  Minimum eigenvalue in the overlap matrix is 2.3966041033E-02.
  Reciprocal condition number of the overlap matrix is 7.3174687216E-03.
    Using symmetric orthogonalization.

  ==> Pre-Iterations <==

  SCF Guess: Orbitals guess was supplied from a previous computation.

   -------------------------------------------------------
    Irrep   Nso     Nmo     Nalpha   Nbeta   Ndocc  Nsocc
   -------------------------------------------------------
     A1        11      11       3       3       3       0
     A2         2       2       0       0       0       0
     B1         7       7       1       1       1       0
     B2         4       4       1       1       1       0
   -------------------------------------------------------
    Total      24      24       5       5       5       0
   -------------------------------------------------------

  ==> Iterations <==

                           Total Energy        Delta E     RMS |[F,P]|

   @DF-RHF iter   0:   -76.32776345151832   -7.63278e+01   6.56517e-02 
   @DF-RHF iter   1:   -75.97844480949314    3.49319e-01   7.16169e-03 DIIS
   @DF-RHF iter   2:   -75.98337625253582   -4.93144e-03   2.70706e-03 DIIS
   @DF-RHF iter   3:   -75.98390667531638   -5.30423e-04   7.16360e-04 DIIS
   @DF-RHF iter   4:   -75.98398873202711   -8.20567e-05   2.04047e-04 DIIS
   @DF-RHF iter   5:   -75.98399727320566   -8.54118e-06   3.88145e-05 DIIS
   @DF-RHF iter   6:   -75.98399764585363   -3.72648e-07   5.44893e-06 DIIS
   @DF-RHF iter   7:   -75.98399765127580   -5.42217e-09   6.27902e-07 DIIS
   @DF-RHF iter   8:   -75.98399765133991   -6.41052e-11   9.21774e-08 DIIS
   @DF-RHF iter   9:   -75.98399765134131   -1.40687e-12   9.09235e-09 DIIS
   @DF-RHF iter  10:   -75.98399765134133   -1.42109e-14   1.16502e-09 DIIS
   @DF-RHF iter  11:   -75.98399765134130    2.84217e-14   1.57723e-10 DIIS
   @DF-RHF iter  12:   -75.98399765134127    2.84217e-14   1.58948e-11 DIIS
  Energy and wave function converged.


  ==> Post-Iterations <==

    Orbital Energies [Eh]
    ---------------------

    Doubly Occupied:                                                      

       1A1   -20.526436     2A1    -1.417280     1B1    -0.773484  
       3A1    -0.594219     1B2    -0.506004  

    Virtual:                                                              

       4A1     0.203867     2B1     0.271520     3B1     0.892861  
       5A1     1.002606     6A1     1.157205     2B2     1.184052  
       4B1     1.255368     7A1     1.427399     1A2     1.524985  
       3B2     1.713703     8A1     1.853360     5B1     2.107230  
       6B1     2.787118     9A1     2.870891     4B2     3.418568  
       2A2     3.472315    10A1     3.685634    11A1     4.043413  
       7B1     4.320360  

    Final Occupation by Irrep:
             A1    A2    B1    B2 
    DOCC [     3,    0,    1,    1 ]

  @DF-RHF Final Energy:   -75.98399765134127

   => Energetics <=

    Nuclear Repulsion Energy =             10.6572120192598412
    One-Electron Energy =                -125.6475709142915491
    Two-Electron Energy =                  39.0063612436904208
    Total Energy =                        -75.9839976513412836

Computation Completed


Properties will be evaluated at   0.000000,   0.000000,   0.000000 [a0]

Properties computed using the SCF density matrix

  Nuclear Dipole Moment: [e a0]
     X:     0.0000      Y:     0.8547      Z:     0.0000

  Electronic Dipole Moment: [e a0]
     X:     0.0000      Y:    -0.0930      Z:     0.0000

  Dipole Moment: [e a0]
     X:     0.0000      Y:     0.7617      Z:     0.0000     Total:     0.7617

  Dipole Moment: [D]
     X:     0.0000      Y:     1.9361      Z:     0.0000     Total:     1.9361


*** tstop() called on n045 at Fri Jun 19 12:17:53 2020
Module time:
	user time   =       1.12 seconds =       0.02 minutes
	system time =       0.03 seconds =       0.00 minutes
	total time  =          0 seconds =       0.00 minutes
Total time:
	user time   =       6.51 seconds =       0.11 minutes
	system time =       0.16 seconds =       0.00 minutes
	total time  =          2 seconds =       0.03 minutes

*** tstart() called on n045
*** at Fri Jun 19 12:17:53 2020


         ------------------------------------------------------------
                                   SCF GRAD                          
                          Rob Parrish, Justin Turney,                
                       Andy Simmonett, and Alex Sokolov              
         ------------------------------------------------------------

  ==> Geometry <==

    Molecular point group: c2v
    Full point group: C2v

    Geometry (in Bohr), charge = 0, multiplicity = 1:

       Center              X                  Y                   Z               Mass       
    ------------   -----------------  -----------------  -----------------  -----------------
         H           -1.223083240879     0.861702915836     0.000000000000     1.007825032230
         O            0.000000000000    -0.108590235032     0.000000000000    15.994914619570
         H            1.223083240879     0.861702915836     0.000000000000     1.007825032230

  Nuclear repulsion =   10.657212019259841

  ==> Basis Set <==

  Basis Set: CC-PVDZ
    Blend: CC-PVDZ
    Number of shells: 12
    Number of basis function: 24
    Number of Cartesian functions: 25
    Spherical Harmonics?: true
    Max angular momentum: 2

  ==> DFJKGrad: Density-Fitted SCF Gradients <==

    Gradient:                    1
    J tasked:                  Yes
    K tasked:                  Yes
    wK tasked:                  No
    OpenMP threads:              4
    Integrals threads:           4
    Memory [MiB]:            21457
    Schwarz Cutoff:          0E+00
    Fitting Condition:       1E-10

   => Auxiliary Basis Set <=

  Basis Set: (CC-PVDZ AUX)
    Blend: CC-PVDZ-JKFIT
    Number of shells: 42
    Number of basis function: 116
    Number of Cartesian functions: 131
    Spherical Harmonics?: true
    Max angular momentum: 3


  -Total Gradient:
     Atom            X                  Y                   Z
    ------   -----------------  -----------------  -----------------
       1        0.178318698514    -0.124384531518     0.000000000000
       2        0.000000000000     0.248769063036     0.000000000000
       3       -0.178318698514    -0.124384531518     0.000000000000


*** tstop() called on n045 at Fri Jun 19 12:17:53 2020
Module time:
	user time   =       1.24 seconds =       0.02 minutes
	system time =       0.04 seconds =       0.00 minutes
	total time  =          0 seconds =       0.00 minutes
Total time:
	user time   =       7.76 seconds =       0.13 minutes
	system time =       0.20 seconds =       0.00 minutes
	total time  =          2 seconds =       0.03 minutes

			-----------------------------------------
			 OPTKING 2.0: for geometry optimizations 
			  - R.A. King,  Bethel University        
			-----------------------------------------

	Previous internal coordinate definitions found.
	---Fragment 1 Geometry and Gradient---
	 H          -1.2230832409        0.8617029158        0.0000000000
	 O           0.0000000000       -0.1085902350        0.0000000000
	 H           1.2230832409        0.8617029158        0.0000000000
	             0.1783186985       -0.1243845315        0.0000000000
	             0.0000000000        0.2487690630        0.0000000000
	            -0.1783186985       -0.1243845315        0.0000000000

	---Fragment 1 Intrafragment Coordinates---
	 - Coordinate -           - BOHR/RAD -       - ANG/DEG -
	 R(1,2)           =         1.561218	       0.826161
	 R(2,3)           =         1.561218	       0.826161
	 B(1,2,3)         =         1.800287	     103.148844

	Current energy   :       -75.9839976513

	Energy change for the previous step:
		Projected    :         0.0666431997
		Actual       :         0.0153579118

	Performing BFGS update.
	Previous computed or guess Hessian on step 1.
	Change in internal coordinate of 8.24e-01 exceeds limit of 5.00e-01.
	 Skipping Hessian update for step 1.
	Steps to be used in Hessian update: 2
	Taking RFO optimization step.
	Going to follow RFO solution 1.
	Using RFO vector 1.
	Norm of target step-size    0.38915
	Projected energy change by RFO approximation:        -0.1085880721

	Back-transformation to cartesian coordinates...
	Successfully converged to displaced geometry.

	--- Internal Coordinate Step in ANG or DEG, aJ/ANG or AJ/DEG ---
	 ---------------------------------------------------------------------------
	   Coordinate                Previous        Force       Change         New 
	   ----------                --------       ------       ------       ------
	    1 R(1,2)          =      0.826161     1.787823     0.145510     0.971671
	    2 R(2,3)          =      0.826161     1.787823     0.145510     0.971671
	    3 B(1,2,3)        =    103.148844     0.001589     0.837468   103.986313
	 ---------------------------------------------------------------------------
	Successfully symmetrized geometry.

  ==> Convergence Check <==

  Measures of convergence in internal coordinates in au.
  Criteria marked as inactive (o), active & met (*), and active & unmet ( ).
  ---------------------------------------------------------------------------------------------
   Step     Total Energy     Delta E     MAX Force     RMS Force      MAX Disp      RMS Disp   
  ---------------------------------------------------------------------------------------------
    Convergence Criteria    1.00e-06 *    3.00e-04 *             o    1.20e-03 *             o
  ---------------------------------------------------------------------------------------------
      3     -75.98399765    1.54e-02      2.17e-01      1.78e-01 o    2.75e-01      2.25e-01 o  ~
  ---------------------------------------------------------------------------------------------

	Writing optimization data to binary file.
	Structure for next step:
	Cartesian Geometry (in Angstrom)
	    H    -0.7656156338   0.4842784615   0.0000000000
	    O     0.0000000000  -0.1140333132   0.0000000000
	    H     0.7656156338   0.4842784615   0.0000000000
			--------------------------
			 OPTKING Finished Execution 
			--------------------------

    Structure for next step:
    Molecular point group: c2v
    Full point group: C2v

    Geometry (in Bohr), charge = 0, multiplicity = 1:

    H           -1.446803870884     1.004109360118     0.000000000000
    O            0.000000000000    -0.126536036271     0.000000000000
    H            1.446803870884     1.004109360118     0.000000000000


Scratch directory: /tmp/330815.1.debug.q/
gradient() will perform analytic gradient computation.

*** tstart() called on n045
*** at Fri Jun 19 12:17:54 2020

   => Loading Basis Set <=

    Name: CC-PVDZ
    Role: ORBITAL
    Keyword: BASIS
    atoms 1, 3 entry H          line    22 file /opt/psi/4/master/share/psi4/basis/cc-pvdz.gbs 
    atoms 2    entry O          line   198 file /opt/psi/4/master/share/psi4/basis/cc-pvdz.gbs 


         ---------------------------------------------------------
                                   SCF
               by Justin Turney, Rob Parrish, Andy Simmonett
                          and Daniel G. A. Smith
                              RHF Reference
                        4 Threads,  28610 MiB Core
         ---------------------------------------------------------

  ==> Geometry <==

    Molecular point group: c2v
    Full point group: C2v

    Geometry (in Bohr), charge = 0, multiplicity = 1:

       Center              X                  Y                   Z               Mass       
    ------------   -----------------  -----------------  -----------------  -----------------
         H           -1.446803870884     1.004109360118     0.000000000000     1.007825032230
         O            0.000000000000    -0.126536036271     0.000000000000    15.994914619570
         H            1.446803870884     1.004109360118     0.000000000000     1.007825032230

  Running in c2v symmetry.

  Rotational constants: A =     26.30702  B =     14.26789  C =      9.25068 [cm^-1]
  Rotational constants: A = 788664.62765  B = 427740.59869  C = 277328.53550 [MHz]
  Nuclear repulsion =    9.059275843602361

  Charge       = 0
  Multiplicity = 1
  Electrons    = 10
  Nalpha       = 5
  Nbeta        = 5

  ==> Algorithm <==

  SCF Algorithm Type is DF.
  DIIS enabled.
  MOM disabled.
  Fractional occupation disabled.
  Guess Type is READ.
  Energy threshold   = 1.00e-09
  Density threshold  = 1.00e-10
  Integral threshold = 0.00e+00

  ==> Primary Basis <==

  Basis Set: CC-PVDZ
    Blend: CC-PVDZ
    Number of shells: 12
    Number of basis function: 24
    Number of Cartesian functions: 25
    Spherical Harmonics?: true
    Max angular momentum: 2

   => Loading Basis Set <=

    Name: (CC-PVDZ AUX)
    Role: JKFIT
    Keyword: DF_BASIS_SCF
    atoms 1, 3 entry H          line    51 file /opt/psi/4/master/share/psi4/basis/cc-pvdz-jkfit.gbs 
    atoms 2    entry O          line   221 file /opt/psi/4/master/share/psi4/basis/cc-pvdz-jkfit.gbs 

   => Loading Basis Set <=

    Name: CC-PVDZ
    Role: ORBITAL
    Keyword: BASIS
    atoms 1, 3 entry H          line    22 file /opt/psi/4/master/share/psi4/basis/cc-pvdz.gbs 
    atoms 2    entry O          line   198 file /opt/psi/4/master/share/psi4/basis/cc-pvdz.gbs 

  Reading orbitals from file 180, no projection.

  ==> Integral Setup <==

  DFHelper Memory: AOs need 0.001 GiB; user supplied 20.955 GiB. Using in-core AOs.

  ==> MemDFJK: Density-Fitted J/K Matrices <==

    J tasked:                   Yes
    K tasked:                   Yes
    wK tasked:                   No
    OpenMP threads:               4
    Memory [MiB]:             21457
    Algorithm:                 Core
    Schwarz Cutoff:           1E-12
    Mask sparsity (%):       0.0000
    Fitting Condition:        1E-10

   => Auxiliary Basis Set <=

  Basis Set: (CC-PVDZ AUX)
    Blend: CC-PVDZ-JKFIT
    Number of shells: 42
    Number of basis function: 116
    Number of Cartesian functions: 131
    Spherical Harmonics?: true
    Max angular momentum: 3

  Minimum eigenvalue in the overlap matrix is 3.3491149223E-02.
  Reciprocal condition number of the overlap matrix is 1.0678094274E-02.
    Using symmetric orthogonalization.

  ==> Pre-Iterations <==

  SCF Guess: Orbitals guess was supplied from a previous computation.

   -------------------------------------------------------
    Irrep   Nso     Nmo     Nalpha   Nbeta   Ndocc  Nsocc
   -------------------------------------------------------
     A1        11      11       3       3       3       0
     A2         2       2       0       0       0       0
     B1         7       7       1       1       1       0
     B2         4       4       1       1       1       0
   -------------------------------------------------------
    Total      24      24       5       5       5       0
   -------------------------------------------------------

  ==> Iterations <==

                           Total Energy        Delta E     RMS |[F,P]|

   @DF-RHF iter   0:   -75.79851903293053   -7.57985e+01   4.52149e-02 
   @DF-RHF iter   1:   -76.02140124101206   -2.22882e-01   6.93533e-03 DIIS
   @DF-RHF iter   2:   -76.02475340118008   -3.35216e-03   3.77722e-03 DIIS
   @DF-RHF iter   3:   -76.02566149074185   -9.08090e-04   4.66250e-04 DIIS
   @DF-RHF iter   4:   -76.02570457368137   -4.30829e-05   1.41868e-04 DIIS
   @DF-RHF iter   5:   -76.02570868632128   -4.11264e-06   3.15784e-05 DIIS
   @DF-RHF iter   6:   -76.02570898412722   -2.97806e-07   5.61091e-06 DIIS
   @DF-RHF iter   7:   -76.02570899201581   -7.88859e-09   8.21304e-07 DIIS
   @DF-RHF iter   8:   -76.02570899215769   -1.41881e-10   1.20927e-07 DIIS
   @DF-RHF iter   9:   -76.02570899216067   -2.98428e-12   1.09538e-08 DIIS
   @DF-RHF iter  10:   -76.02570899216066    1.42109e-14   1.41229e-09 DIIS
   @DF-RHF iter  11:   -76.02570899216067   -1.42109e-14   1.62886e-10 DIIS
   @DF-RHF iter  12:   -76.02570899216062    5.68434e-14   8.46501e-12 DIIS
  Energy and wave function converged.


  ==> Post-Iterations <==

    Orbital Energies [Eh]
    ---------------------

    Doubly Occupied:                                                      

       1A1   -20.553258     2A1    -1.329910     1B1    -0.690672  
       3A1    -0.564977     1B2    -0.492332  

    Virtual:                                                              

       4A1     0.183011     2B1     0.254132     3B1     0.777411  
       5A1     0.843304     6A1     1.165025     2B2     1.200019  
       4B1     1.254892     7A1     1.442556     1A2     1.474728  
       3B2     1.669798     8A1     1.869586     5B1     1.922823  
       6B1     2.417957     9A1     2.455922     4B2     3.276315  
       2A2     3.323366    10A1     3.494299    11A1     3.847143  
       7B1     4.134322  

    Final Occupation by Irrep:
             A1    A2    B1    B2 
    DOCC [     3,    0,    1,    1 ]

  @DF-RHF Final Energy:   -76.02570899216062

   => Energetics <=

    Nuclear Repulsion Energy =              9.0592758436023608
    One-Electron Energy =                -122.9076721348045851
    Two-Electron Energy =                  37.8226872990416041
    Total Energy =                        -76.0257089921606166

Computation Completed


Properties will be evaluated at   0.000000,   0.000000,   0.000000 [a0]

Properties computed using the SCF density matrix

  Nuclear Dipole Moment: [e a0]
     X:     0.0000      Y:     0.9959      Z:     0.0000

  Electronic Dipole Moment: [e a0]
     X:     0.0000      Y:    -0.1782      Z:     0.0000

  Dipole Moment: [e a0]
     X:     0.0000      Y:     0.8177      Z:     0.0000     Total:     0.8177

  Dipole Moment: [D]
     X:     0.0000      Y:     2.0784      Z:     0.0000     Total:     2.0784


*** tstop() called on n045 at Fri Jun 19 12:17:54 2020
Module time:
	user time   =       1.13 seconds =       0.02 minutes
	system time =       0.02 seconds =       0.00 minutes
	total time  =          0 seconds =       0.00 minutes
Total time:
	user time   =       8.94 seconds =       0.15 minutes
	system time =       0.22 seconds =       0.00 minutes
	total time  =          3 seconds =       0.05 minutes

*** tstart() called on n045
*** at Fri Jun 19 12:17:54 2020


         ------------------------------------------------------------
                                   SCF GRAD                          
                          Rob Parrish, Justin Turney,                
                       Andy Simmonett, and Alex Sokolov              
         ------------------------------------------------------------

  ==> Geometry <==

    Molecular point group: c2v
    Full point group: C2v

    Geometry (in Bohr), charge = 0, multiplicity = 1:

       Center              X                  Y                   Z               Mass       
    ------------   -----------------  -----------------  -----------------  -----------------
         H           -1.446803870884     1.004109360118     0.000000000000     1.007825032230
         O            0.000000000000    -0.126536036271     0.000000000000    15.994914619570
         H            1.446803870884     1.004109360118     0.000000000000     1.007825032230

  Nuclear repulsion =    9.059275843602361

  ==> Basis Set <==

  Basis Set: CC-PVDZ
    Blend: CC-PVDZ
    Number of shells: 12
    Number of basis function: 24
    Number of Cartesian functions: 25
    Spherical Harmonics?: true
    Max angular momentum: 2

  ==> DFJKGrad: Density-Fitted SCF Gradients <==

    Gradient:                    1
    J tasked:                  Yes
    K tasked:                  Yes
    wK tasked:                  No
    OpenMP threads:              4
    Integrals threads:           4
    Memory [MiB]:            21457
    Schwarz Cutoff:          0E+00
    Fitting Condition:       1E-10

   => Auxiliary Basis Set <=

  Basis Set: (CC-PVDZ AUX)
    Blend: CC-PVDZ-JKFIT
    Number of shells: 42
    Number of basis function: 116
    Number of Cartesian functions: 131
    Spherical Harmonics?: true
    Max angular momentum: 3


  -Total Gradient:
     Atom            X                  Y                   Z
    ------   -----------------  -----------------  -----------------
       1       -0.021464953357     0.016207868158     0.000000000000
       2        0.000000000000    -0.032415736316     0.000000000000
       3        0.021464953357     0.016207868158     0.000000000000


*** tstop() called on n045 at Fri Jun 19 12:17:54 2020
Module time:
	user time   =       1.25 seconds =       0.02 minutes
	system time =       0.03 seconds =       0.00 minutes
	total time  =          0 seconds =       0.00 minutes
Total time:
	user time   =      10.19 seconds =       0.17 minutes
	system time =       0.25 seconds =       0.00 minutes
	total time  =          3 seconds =       0.05 minutes

			-----------------------------------------
			 OPTKING 2.0: for geometry optimizations 
			  - R.A. King,  Bethel University        
			-----------------------------------------

	Previous internal coordinate definitions found.
	---Fragment 1 Geometry and Gradient---
	 H          -1.4468038709        1.0041093601        0.0000000000
	 O           0.0000000000       -0.1265360363        0.0000000000
	 H           1.4468038709        1.0041093601        0.0000000000
	            -0.0214649534        0.0162078682        0.0000000000
	             0.0000000000       -0.0324157363        0.0000000000
	             0.0214649534        0.0162078682        0.0000000000

	---Fragment 1 Intrafragment Coordinates---
	 - Coordinate -           - BOHR/RAD -       - ANG/DEG -
	 R(1,2)           =         1.836192	       0.971671
	 R(2,3)           =         1.836192	       0.971671
	 B(1,2,3)         =         1.814904	     103.986313

	Current energy   :       -76.0257089922

	Energy change for the previous step:
		Projected    :        -0.1085880721
		Actual       :        -0.0417113408

	Performing BFGS update.
	Previous computed or guess Hessian on step 1.
	Steps to be used in Hessian update: 3 2
	Taking RFO optimization step.
	Going to follow RFO solution 1.
	Using RFO vector 1.
	Norm of target step-size    0.10593
	Projected energy change by RFO approximation:        -0.0043495307

	Back-transformation to cartesian coordinates...
	Successfully converged to displaced geometry.

	--- Internal Coordinate Step in ANG or DEG, aJ/ANG or AJ/DEG ---
	 ---------------------------------------------------------------------------
	   Coordinate                Previous        Force       Change         New 
	   ----------                --------       ------       ------       ------
	    1 R(1,2)          =      0.971671    -0.221565    -0.039207     0.932464
	    2 R(2,3)          =      0.971671    -0.221565    -0.039207     0.932464
	    3 B(1,2,3)        =    103.986313    -0.000062     0.891430   104.877743
	 ---------------------------------------------------------------------------
	Successfully symmetrized geometry.

  ==> Convergence Check <==

  Measures of convergence in internal coordinates in au.
  Criteria marked as inactive (o), active & met (*), and active & unmet ( ).
  ---------------------------------------------------------------------------------------------
   Step     Total Energy     Delta E     MAX Force     RMS Force      MAX Disp      RMS Disp   
  ---------------------------------------------------------------------------------------------
    Convergence Criteria    1.00e-06 *    3.00e-04 *             o    1.20e-03 *             o
  ---------------------------------------------------------------------------------------------
      4     -76.02570899   -4.17e-02      2.69e-02      2.20e-02 o    7.41e-02      6.12e-02 o  ~
  ---------------------------------------------------------------------------------------------

	Writing optimization data to binary file.
	Structure for next step:
	Cartesian Geometry (in Angstrom)
	    H    -0.7391671352   0.5213934836   0.0000000000
	    O     0.0000000000  -0.0470433770   0.0000000000
	    H     0.7391671352   0.5213934836   0.0000000000
			--------------------------
			 OPTKING Finished Execution 
			--------------------------

    Structure for next step:
    Molecular point group: c2v
    Full point group: C2v

    Geometry (in Bohr), charge = 0, multiplicity = 1:

    H           -1.396823451892     0.953972153721     0.000000000000
    O            0.000000000000    -0.120217836661     0.000000000000
    H            1.396823451892     0.953972153721     0.000000000000


Scratch directory: /tmp/330815.1.debug.q/
gradient() will perform analytic gradient computation.

*** tstart() called on n045
*** at Fri Jun 19 12:17:54 2020

   => Loading Basis Set <=

    Name: CC-PVDZ
    Role: ORBITAL
    Keyword: BASIS
    atoms 1, 3 entry H          line    22 file /opt/psi/4/master/share/psi4/basis/cc-pvdz.gbs 
    atoms 2    entry O          line   198 file /opt/psi/4/master/share/psi4/basis/cc-pvdz.gbs 


         ---------------------------------------------------------
                                   SCF
               by Justin Turney, Rob Parrish, Andy Simmonett
                          and Daniel G. A. Smith
                              RHF Reference
                        4 Threads,  28610 MiB Core
         ---------------------------------------------------------

  ==> Geometry <==

    Molecular point group: c2v
    Full point group: C2v

    Geometry (in Bohr), charge = 0, multiplicity = 1:

       Center              X                  Y                   Z               Mass       
    ------------   -----------------  -----------------  -----------------  -----------------
         H           -1.396823451892     0.953972153721     0.000000000000     1.007825032230
         O            0.000000000000    -0.120217836661     0.000000000000    15.994914619570
         H            1.396823451892     0.953972153721     0.000000000000     1.007825032230

  Running in c2v symmetry.

  Rotational constants: A =     29.14488  B =     15.30721  C =     10.03613 [cm^-1]
  Rotational constants: A = 873741.56862  B = 458898.62990  C = 300875.51702 [MHz]
  Nuclear repulsion =    9.438024864392332

  Charge       = 0
  Multiplicity = 1
  Electrons    = 10
  Nalpha       = 5
  Nbeta        = 5

  ==> Algorithm <==

  SCF Algorithm Type is DF.
  DIIS enabled.
  MOM disabled.
  Fractional occupation disabled.
  Guess Type is READ.
  Energy threshold   = 1.00e-09
  Density threshold  = 1.00e-10
  Integral threshold = 0.00e+00

  ==> Primary Basis <==

  Basis Set: CC-PVDZ
    Blend: CC-PVDZ
    Number of shells: 12
    Number of basis function: 24
    Number of Cartesian functions: 25
    Spherical Harmonics?: true
    Max angular momentum: 2

   => Loading Basis Set <=

    Name: (CC-PVDZ AUX)
    Role: JKFIT
    Keyword: DF_BASIS_SCF
    atoms 1, 3 entry H          line    51 file /opt/psi/4/master/share/psi4/basis/cc-pvdz-jkfit.gbs 
    atoms 2    entry O          line   221 file /opt/psi/4/master/share/psi4/basis/cc-pvdz-jkfit.gbs 

   => Loading Basis Set <=

    Name: CC-PVDZ
    Role: ORBITAL
    Keyword: BASIS
    atoms 1, 3 entry H          line    22 file /opt/psi/4/master/share/psi4/basis/cc-pvdz.gbs 
    atoms 2    entry O          line   198 file /opt/psi/4/master/share/psi4/basis/cc-pvdz.gbs 

  Reading orbitals from file 180, no projection.

  ==> Integral Setup <==

  DFHelper Memory: AOs need 0.001 GiB; user supplied 20.955 GiB. Using in-core AOs.

  ==> MemDFJK: Density-Fitted J/K Matrices <==

    J tasked:                   Yes
    K tasked:                   Yes
    wK tasked:                   No
    OpenMP threads:               4
    Memory [MiB]:             21457
    Algorithm:                 Core
    Schwarz Cutoff:           1E-12
    Mask sparsity (%):       0.0000
    Fitting Condition:        1E-10

   => Auxiliary Basis Set <=

  Basis Set: (CC-PVDZ AUX)
    Blend: CC-PVDZ-JKFIT
    Number of shells: 42
    Number of basis function: 116
    Number of Cartesian functions: 131
    Spherical Harmonics?: true
    Max angular momentum: 3

  Minimum eigenvalue in the overlap matrix is 3.0790438811E-02.
  Reciprocal condition number of the overlap matrix is 9.6951678898E-03.
    Using symmetric orthogonalization.

  ==> Pre-Iterations <==

  SCF Guess: Orbitals guess was supplied from a previous computation.

   -------------------------------------------------------
    Irrep   Nso     Nmo     Nalpha   Nbeta   Ndocc  Nsocc
   -------------------------------------------------------
     A1        11      11       3       3       3       0
     A2         2       2       0       0       0       0
     B1         7       7       1       1       1       0
     B2         4       4       1       1       1       0
   -------------------------------------------------------
    Total      24      24       5       5       5       0
   -------------------------------------------------------

  ==> Iterations <==

                           Total Energy        Delta E     RMS |[F,P]|

   @DF-RHF iter   0:   -76.08432186188985   -7.60843e+01   1.05914e-02 
   @DF-RHF iter   1:   -76.02637417011599    5.79477e-02   1.51057e-03 DIIS
   @DF-RHF iter   2:   -76.02656079802418   -1.86628e-04   7.69138e-04 DIIS
   @DF-RHF iter   3:   -76.02659919649301   -3.83985e-05   1.26652e-04 DIIS
   @DF-RHF iter   4:   -76.02660258118935   -3.38470e-06   3.95595e-05 DIIS
   @DF-RHF iter   5:   -76.02660293939776   -3.58208e-07   8.48038e-06 DIIS
   @DF-RHF iter   6:   -76.02660296019661   -2.07989e-08   1.29111e-06 DIIS
   @DF-RHF iter   7:   -76.02660296055666   -3.60046e-10   1.81083e-07 DIIS
   @DF-RHF iter   8:   -76.02660296056280   -6.13909e-12   2.50212e-08 DIIS
   @DF-RHF iter   9:   -76.02660296056297   -1.70530e-13   2.11868e-09 DIIS
   @DF-RHF iter  10:   -76.02660296056293    4.26326e-14   2.85268e-10 DIIS
   @DF-RHF iter  11:   -76.02660296056294   -1.42109e-14   4.32212e-11 DIIS
  Energy and wave function converged.


  ==> Post-Iterations <==

    Orbital Energies [Eh]
    ---------------------

    Doubly Occupied:                                                      

       1A1   -20.545821     2A1    -1.349431     1B1    -0.713584  
       3A1    -0.570425     1B2    -0.494914  

    Virtual:                                                              

       4A1     0.189712     2B1     0.259653     3B1     0.809067  
       5A1     0.876815     6A1     1.161482     2B2     1.200213  
       4B1     1.251829     7A1     1.444840     1A2     1.482234  
       3B2     1.682841     8A1     1.863546     5B1     1.961435  
       6B1     2.514018     9A1     2.554145     4B2     3.306516  
       2A2     3.365689    10A1     3.542255    11A1     3.897809  
       7B1     4.174039  

    Final Occupation by Irrep:
             A1    A2    B1    B2 
    DOCC [     3,    0,    1,    1 ]

  @DF-RHF Final Energy:   -76.02660296056294

   => Energetics <=

    Nuclear Repulsion Energy =              9.4380248643923323
    One-Electron Energy =                -123.5809065505314237
    Two-Electron Energy =                  38.1162787255761444
    Total Energy =                        -76.0266029605629399

Computation Completed


Properties will be evaluated at   0.000000,   0.000000,   0.000000 [a0]

Properties computed using the SCF density matrix

  Nuclear Dipole Moment: [e a0]
     X:     0.0000      Y:     0.9462      Z:     0.0000

  Electronic Dipole Moment: [e a0]
     X:     0.0000      Y:    -0.1488      Z:     0.0000

  Dipole Moment: [e a0]
     X:     0.0000      Y:     0.7974      Z:     0.0000     Total:     0.7974

  Dipole Moment: [D]
     X:     0.0000      Y:     2.0268      Z:     0.0000     Total:     2.0268


*** tstop() called on n045 at Fri Jun 19 12:17:55 2020
Module time:
	user time   =       1.13 seconds =       0.02 minutes
	system time =       0.02 seconds =       0.00 minutes
	total time  =          1 seconds =       0.02 minutes
Total time:
	user time   =      11.37 seconds =       0.19 minutes
	system time =       0.27 seconds =       0.00 minutes
	total time  =          4 seconds =       0.07 minutes

*** tstart() called on n045
*** at Fri Jun 19 12:17:55 2020


         ------------------------------------------------------------
                                   SCF GRAD                          
                          Rob Parrish, Justin Turney,                
                       Andy Simmonett, and Alex Sokolov              
         ------------------------------------------------------------

  ==> Geometry <==

    Molecular point group: c2v
    Full point group: C2v

    Geometry (in Bohr), charge = 0, multiplicity = 1:

       Center              X                  Y                   Z               Mass       
    ------------   -----------------  -----------------  -----------------  -----------------
         H           -1.396823451892     0.953972153721     0.000000000000     1.007825032230
         O            0.000000000000    -0.120217836661     0.000000000000    15.994914619570
         H            1.396823451892     0.953972153721     0.000000000000     1.007825032230

  Nuclear repulsion =    9.438024864392332

  ==> Basis Set <==

  Basis Set: CC-PVDZ
    Blend: CC-PVDZ
    Number of shells: 12
    Number of basis function: 24
    Number of Cartesian functions: 25
    Spherical Harmonics?: true
    Max angular momentum: 2

  ==> DFJKGrad: Density-Fitted SCF Gradients <==

    Gradient:                    1
    J tasked:                  Yes
    K tasked:                  Yes
    wK tasked:                  No
    OpenMP threads:              4
    Integrals threads:           4
    Memory [MiB]:            21457
    Schwarz Cutoff:          0E+00
    Fitting Condition:       1E-10

   => Auxiliary Basis Set <=

  Basis Set: (CC-PVDZ AUX)
    Blend: CC-PVDZ-JKFIT
    Number of shells: 42
    Number of basis function: 116
    Number of Cartesian functions: 131
    Spherical Harmonics?: true
    Max angular momentum: 3


  -Total Gradient:
     Atom            X                  Y                   Z
    ------   -----------------  -----------------  -----------------
       1        0.013586858126    -0.009884347275     0.000000000000
       2        0.000000000000     0.019768694549     0.000000000000
       3       -0.013586858126    -0.009884347275     0.000000000000


*** tstop() called on n045 at Fri Jun 19 12:17:55 2020
Module time:
	user time   =       1.24 seconds =       0.02 minutes
	system time =       0.04 seconds =       0.00 minutes
	total time  =          0 seconds =       0.00 minutes
Total time:
	user time   =      12.61 seconds =       0.21 minutes
	system time =       0.31 seconds =       0.01 minutes
	total time  =          4 seconds =       0.07 minutes

			-----------------------------------------
			 OPTKING 2.0: for geometry optimizations 
			  - R.A. King,  Bethel University        
			-----------------------------------------

	Previous internal coordinate definitions found.
	---Fragment 1 Geometry and Gradient---
	 H          -1.3968234519        0.9539721537        0.0000000000
	 O           0.0000000000       -0.1202178367        0.0000000000
	 H           1.3968234519        0.9539721537        0.0000000000
	             0.0135868581       -0.0098843473        0.0000000000
	             0.0000000000        0.0197686945        0.0000000000
	            -0.0135868581       -0.0098843473        0.0000000000

	---Fragment 1 Intrafragment Coordinates---
	 - Coordinate -           - BOHR/RAD -       - ANG/DEG -
	 R(1,2)           =         1.762101	       0.932464
	 R(2,3)           =         1.762101	       0.932464
	 B(1,2,3)         =         1.830462	     104.877743

	Current energy   :       -76.0266029606

	Energy change for the previous step:
		Projected    :        -0.0043495307
		Actual       :        -0.0008939684
	Energy ratio indicates iffy step: Trust radius decreased to 2.500e-01.


	Performing BFGS update.
	Previous computed or guess Hessian on step 1.
	Steps to be used in Hessian update: 4 3
	Taking RFO optimization step.
	Going to follow RFO solution 1.
	Using RFO vector 1.
	Norm of target step-size    0.02428
	Projected energy change by RFO approximation:        -0.0005733123

	Back-transformation to cartesian coordinates...
	Successfully converged to displaced geometry.

	--- Internal Coordinate Step in ANG or DEG, aJ/ANG or AJ/DEG ---
	 ---------------------------------------------------------------------------
	   Coordinate                Previous        Force       Change         New 
	   ----------                --------       ------       ------       ------
	    1 R(1,2)          =      0.932464     0.138377     0.009020     0.941484
	    2 R(2,3)          =      0.932464     0.138377     0.009020     0.941484
	    3 B(1,2,3)        =    104.877743     0.000060    -0.164011   104.713732
	 ---------------------------------------------------------------------------
	Successfully symmetrized geometry.

  ==> Convergence Check <==

  Measures of convergence in internal coordinates in au.
  Criteria marked as inactive (o), active & met (*), and active & unmet ( ).
  ---------------------------------------------------------------------------------------------
   Step     Total Energy     Delta E     MAX Force     RMS Force      MAX Disp      RMS Disp   
  ---------------------------------------------------------------------------------------------
    Convergence Criteria    1.00e-06 *    3.00e-04 *             o    1.20e-03 *             o
  ---------------------------------------------------------------------------------------------
      5     -76.02660296   -8.94e-04      1.68e-02      1.37e-02 o    1.70e-02      1.40e-02 o  ~
  ---------------------------------------------------------------------------------------------

	Writing optimization data to binary file.
	Structure for next step:
	Cartesian Geometry (in Angstrom)
	    H    -0.7454954425   0.5070091587   0.0000000000
	    O     0.0000000000  -0.0679942139   0.0000000000
	    H     0.7454954425   0.5070091587   0.0000000000
			--------------------------
			 OPTKING Finished Execution 
			--------------------------

    Structure for next step:
    Molecular point group: c2v
    Full point group: C2v

    Geometry (in Bohr), charge = 0, multiplicity = 1:

    H           -1.408782219553     0.964992321556     0.000000000000
    O            0.000000000000    -0.121606578179     0.000000000000
    H            1.408782219553     0.964992321556     0.000000000000


Scratch directory: /tmp/330815.1.debug.q/
gradient() will perform analytic gradient computation.

*** tstart() called on n045
*** at Fri Jun 19 12:17:55 2020

   => Loading Basis Set <=

    Name: CC-PVDZ
    Role: ORBITAL
    Keyword: BASIS
    atoms 1, 3 entry H          line    22 file /opt/psi/4/master/share/psi4/basis/cc-pvdz.gbs 
    atoms 2    entry O          line   198 file /opt/psi/4/master/share/psi4/basis/cc-pvdz.gbs 


         ---------------------------------------------------------
                                   SCF
               by Justin Turney, Rob Parrish, Andy Simmonett
                          and Daniel G. A. Smith
                              RHF Reference
                        4 Threads,  28610 MiB Core
         ---------------------------------------------------------

  ==> Geometry <==

    Molecular point group: c2v
    Full point group: C2v

    Geometry (in Bohr), charge = 0, multiplicity = 1:

       Center              X                  Y                   Z               Mass       
    ------------   -----------------  -----------------  -----------------  -----------------
         H           -1.408782219553     0.964992321556     0.000000000000     1.007825032230
         O            0.000000000000    -0.121606578179     0.000000000000    15.994914619570
         H            1.408782219553     0.964992321556     0.000000000000     1.007825032230

  Running in c2v symmetry.

  Rotational constants: A =     28.48302  B =     15.04844  C =      9.84633 [cm^-1]
  Rotational constants: A = 853899.34104  B = 451140.76706  C = 295185.41332 [MHz]
  Nuclear repulsion =    9.347989449997305

  Charge       = 0
  Multiplicity = 1
  Electrons    = 10
  Nalpha       = 5
  Nbeta        = 5

  ==> Algorithm <==

  SCF Algorithm Type is DF.
  DIIS enabled.
  MOM disabled.
  Fractional occupation disabled.
  Guess Type is READ.
  Energy threshold   = 1.00e-09
  Density threshold  = 1.00e-10
  Integral threshold = 0.00e+00

  ==> Primary Basis <==

  Basis Set: CC-PVDZ
    Blend: CC-PVDZ
    Number of shells: 12
    Number of basis function: 24
    Number of Cartesian functions: 25
    Spherical Harmonics?: true
    Max angular momentum: 2

   => Loading Basis Set <=

    Name: (CC-PVDZ AUX)
    Role: JKFIT
    Keyword: DF_BASIS_SCF
    atoms 1, 3 entry H          line    51 file /opt/psi/4/master/share/psi4/basis/cc-pvdz-jkfit.gbs 
    atoms 2    entry O          line   221 file /opt/psi/4/master/share/psi4/basis/cc-pvdz-jkfit.gbs 

   => Loading Basis Set <=

    Name: CC-PVDZ
    Role: ORBITAL
    Keyword: BASIS
    atoms 1, 3 entry H          line    22 file /opt/psi/4/master/share/psi4/basis/cc-pvdz.gbs 
    atoms 2    entry O          line   198 file /opt/psi/4/master/share/psi4/basis/cc-pvdz.gbs 

  Reading orbitals from file 180, no projection.

  ==> Integral Setup <==

  DFHelper Memory: AOs need 0.001 GiB; user supplied 20.955 GiB. Using in-core AOs.

  ==> MemDFJK: Density-Fitted J/K Matrices <==

    J tasked:                   Yes
    K tasked:                   Yes
    wK tasked:                   No
    OpenMP threads:               4
    Memory [MiB]:             21457
    Algorithm:                 Core
    Schwarz Cutoff:           1E-12
    Mask sparsity (%):       0.0000
    Fitting Condition:        1E-10

   => Auxiliary Basis Set <=

  Basis Set: (CC-PVDZ AUX)
    Blend: CC-PVDZ-JKFIT
    Number of shells: 42
    Number of basis function: 116
    Number of Cartesian functions: 131
    Spherical Harmonics?: true
    Max angular momentum: 3

  Minimum eigenvalue in the overlap matrix is 3.1402512166E-02.
  Reciprocal condition number of the overlap matrix is 9.9158455309E-03.
    Using symmetric orthogonalization.

  ==> Pre-Iterations <==

  SCF Guess: Orbitals guess was supplied from a previous computation.

   -------------------------------------------------------
    Irrep   Nso     Nmo     Nalpha   Nbeta   Ndocc  Nsocc
   -------------------------------------------------------
     A1        11      11       3       3       3       0
     A2         2       2       0       0       0       0
     B1         7       7       1       1       1       0
     B2         4       4       1       1       1       0
   -------------------------------------------------------
    Total      24      24       5       5       5       0
   -------------------------------------------------------

  ==> Iterations <==

                           Total Energy        Delta E     RMS |[F,P]|

   @DF-RHF iter   0:   -76.01328923377241   -7.60133e+01   2.54358e-03 
   @DF-RHF iter   1:   -76.02696861612471   -1.36794e-02   3.73016e-04 DIIS
   @DF-RHF iter   2:   -76.02697944389926   -1.08278e-05   1.95188e-04 DIIS
   @DF-RHF iter   3:   -76.02698189043443   -2.44654e-06   2.92016e-05 DIIS
   @DF-RHF iter   4:   -76.02698207061120   -1.80177e-07   9.03700e-06 DIIS
   @DF-RHF iter   5:   -76.02698208906214   -1.84509e-08   1.98571e-06 DIIS
   @DF-RHF iter   6:   -76.02698209021854   -1.15639e-09   3.11360e-07 DIIS
   @DF-RHF iter   7:   -76.02698209024024   -2.17000e-11   4.40439e-08 DIIS
   @DF-RHF iter   8:   -76.02698209024048   -2.41585e-13   6.13314e-09 DIIS
   @DF-RHF iter   9:   -76.02698209024055   -7.10543e-14   5.22317e-10 DIIS
   @DF-RHF iter  10:   -76.02698209024052    2.84217e-14   6.67236e-11 DIIS
  Energy and wave function converged.


  ==> Post-Iterations <==

    Orbital Energies [Eh]
    ---------------------

    Doubly Occupied:                                                      

       1A1   -20.547525     2A1    -1.344725     1B1    -0.708257  
       3A1    -0.569084     1B2    -0.494253  

    Virtual:                                                              

       4A1     0.188224     2B1     0.258460     3B1     0.801636  
       5A1     0.868635     6A1     1.162331     2B2     1.200424  
       4B1     1.252365     7A1     1.444500     1A2     1.480253  
       3B2     1.679726     8A1     1.864819     5B1     1.952066  
       6B1     2.491446     9A1     2.530724     4B2     3.299307  
       2A2     3.355909    10A1     3.531172    11A1     3.885819  
       7B1     4.164674  

    Final Occupation by Irrep:
             A1    A2    B1    B2 
    DOCC [     3,    0,    1,    1 ]

  @DF-RHF Final Energy:   -76.02698209024052

   => Energetics <=

    Nuclear Repulsion Energy =              9.3479894499973053
    One-Electron Energy =                -123.4222532287554372
    Two-Electron Energy =                  38.0472816885176215
    Total Energy =                        -76.0269820902405229

Computation Completed


Properties will be evaluated at   0.000000,   0.000000,   0.000000 [a0]

Properties computed using the SCF density matrix

  Nuclear Dipole Moment: [e a0]
     X:     0.0000      Y:     0.9571      Z:     0.0000

  Electronic Dipole Moment: [e a0]
     X:     0.0000      Y:    -0.1552      Z:     0.0000

  Dipole Moment: [e a0]
     X:     0.0000      Y:     0.8019      Z:     0.0000     Total:     0.8019

  Dipole Moment: [D]
     X:     0.0000      Y:     2.0383      Z:     0.0000     Total:     2.0383


[...]

    Name: CC-PVDZ
    Role: ORBITAL
    Keyword: BASIS
    atoms 1, 3 entry H          line    22 file /opt/psi/4/master/share/psi4/basis/cc-pvdz.gbs 
    atoms 2    entry O          line   198 file /opt/psi/4/master/share/psi4/basis/cc-pvdz.gbs 


         ---------------------------------------------------------
                                   SCF
               by Justin Turney, Rob Parrish, Andy Simmonett
                          and Daniel G. A. Smith
                              RHF Reference
                        4 Threads,  28610 MiB Core
         ---------------------------------------------------------

  ==> Geometry <==

    Molecular point group: c2v
    Full point group: C2v

    Geometry (in Bohr), charge = 0, multiplicity = 1:

       Center              X                  Y                   Z               Mass       
    ------------   -----------------  -----------------  -----------------  -----------------
         H           -1.415086988583     0.970965907857     0.000000000000     1.007825032230
         O            0.000000000000    -0.122359358666     0.000000000000    15.994914619570
         H            1.415086988583     0.970965907857     0.000000000000     1.007825032230

  Running in c2v symmetry.

  Rotational constants: A =     28.13363  B =     14.91464  C =      9.74727 [cm^-1]
  Rotational constants: A = 843424.92450  B = 447129.70338  C = 292215.70956 [MHz]
  Nuclear repulsion =    9.300639437503989

  Charge       = 0
  Multiplicity = 1
  Electrons    = 10
  Nalpha       = 5
  Nbeta        = 5

  ==> Algorithm <==

  SCF Algorithm Type is DF.
  DIIS enabled.
  MOM disabled.
  Fractional occupation disabled.
  Guess Type is SAD.
  Energy threshold   = 1.00e-09
  Density threshold  = 1.00e-10
  Integral threshold = 0.00e+00

  ==> Primary Basis <==

  Basis Set: CC-PVDZ
    Blend: CC-PVDZ
    Number of shells: 12
    Number of basis function: 24
    Number of Cartesian functions: 25
    Spherical Harmonics?: true
    Max angular momentum: 2

   => Loading Basis Set <=

    Name: (CC-PVDZ AUX)
    Role: JKFIT
    Keyword: DF_BASIS_SCF
    atoms 1, 3 entry H          line    51 file /opt/psi/4/master/share/psi4/basis/cc-pvdz-jkfit.gbs 
    atoms 2    entry O          line   221 file /opt/psi/4/master/share/psi4/basis/cc-pvdz-jkfit.gbs 

  ==> Integral Setup <==

  DFHelper Memory: AOs need 0.001 GiB; user supplied 20.955 GiB. Using in-core AOs.

  ==> MemDFJK: Density-Fitted J/K Matrices <==

    J tasked:                   Yes
    K tasked:                   Yes
    wK tasked:                   No
    OpenMP threads:               4
    Memory [MiB]:             21457
    Algorithm:                 Core
    Schwarz Cutoff:           1E-12
    Mask sparsity (%):       0.0000
    Fitting Condition:        1E-10

   => Auxiliary Basis Set <=

  Basis Set: (CC-PVDZ AUX)
    Blend: CC-PVDZ-JKFIT
    Number of shells: 42
    Number of basis function: 116
    Number of Cartesian functions: 131
    Spherical Harmonics?: true
    Max angular momentum: 3

  Minimum eigenvalue in the overlap matrix is 3.1732067035E-02.
  Reciprocal condition number of the overlap matrix is 1.0035164188E-02.
    Using symmetric orthogonalization.

  ==> Pre-Iterations <==

  SCF Guess: Superposition of Atomic Densities via on-the-fly atomic UHF (no occupation information).

   -------------------------
    Irrep   Nso     Nmo    
   -------------------------
     A1        11      11 
     A2         2       2 
     B1         7       7 
     B2         4       4 
   -------------------------
    Total      24      24
   -------------------------

  ==> Iterations <==

                           Total Energy        Delta E     RMS |[F,P]|

   @DF-RHF iter SAD:   -75.52642019746111   -7.55264e+01   0.00000e+00 
   @DF-RHF iter   1:   -75.95493361028993   -4.28513e-01   3.03408e-02 DIIS
   @DF-RHF iter   2:   -76.00811312607610   -5.31795e-02   1.71017e-02 DIIS
   @DF-RHF iter   3:   -76.02664565166123   -1.85325e-02   1.55849e-03 DIIS
   @DF-RHF iter   4:   -76.02701447511890   -3.68823e-04   3.47283e-04 DIIS
   @DF-RHF iter   5:   -76.02703191121626   -1.74361e-05   6.41650e-05 DIIS
   @DF-RHF iter   6:   -76.02703275773665   -8.46520e-07   1.03404e-05 DIIS
   @DF-RHF iter   7:   -76.02703278233383   -2.45972e-08   1.41152e-06 DIIS
   @DF-RHF iter   8:   -76.02703278279549   -4.61654e-10   3.19642e-07 DIIS
   @DF-RHF iter   9:   -76.02703278282279   -2.72991e-11   5.52721e-08 DIIS
   @DF-RHF iter  10:   -76.02703278282345   -6.67910e-13   4.51790e-09 DIIS
   @DF-RHF iter  11:   -76.02703278282351   -5.68434e-14   7.93164e-10 DIIS
   @DF-RHF iter  12:   -76.02703278282348    2.84217e-14   4.80961e-11 DIIS
  Energy and wave function converged.


  ==> Post-Iterations <==

    Orbital Energies [Eh]
    ---------------------

    Doubly Occupied:                                                      

       1A1   -20.548435     2A1    -1.342264     1B1    -0.705432  
       3A1    -0.568384     1B2    -0.493915  

    Virtual:                                                              

       4A1     0.187416     2B1     0.257805     3B1     0.797713  
       5A1     0.864371     6A1     1.162773     2B2     1.200473  
       4B1     1.252690     7A1     1.444303     1A2     1.479248  
       3B2     1.678109     8A1     1.865539     5B1     1.947166  
       6B1     2.479516     9A1     2.518415     4B2     3.295508  
       2A2     3.350708    10A1     3.525255    11A1     3.879528  
       7B1     4.159721  

    Final Occupation by Irrep:
             A1    A2    B1    B2 
    DOCC [     3,    0,    1,    1 ]

  @DF-RHF Final Energy:   -76.02703278282348

   => Energetics <=

    Nuclear Repulsion Energy =              9.3006394375039889
    One-Electron Energy =                -123.3384854484001210
    Two-Electron Energy =                  38.0108132280726565
    Total Energy =                        -76.0270327828234826

Computation Completed


Properties will be evaluated at   0.000000,   0.000000,   0.000000 [a0]

Properties computed using the SCF density matrix

  Nuclear Dipole Moment: [e a0]
     X:     0.0000      Y:     0.9631      Z:     0.0000

  Electronic Dipole Moment: [e a0]
     X:     0.0000      Y:    -0.1587      Z:     0.0000

  Dipole Moment: [e a0]
     X:     0.0000      Y:     0.8044      Z:     0.0000     Total:     0.8044

  Dipole Moment: [D]
     X:     0.0000      Y:     2.0445      Z:     0.0000     Total:     2.0445


*** tstop() called on n045 at Fri Jun 19 12:17:59 2020
Module time:
	user time   =       2.15 seconds =       0.04 minutes
	system time =       0.05 seconds =       0.00 minutes
	total time  =          1 seconds =       0.02 minutes
Total time:
	user time   =      25.44 seconds =       0.42 minutes
	system time =       0.64 seconds =       0.01 minutes
	total time  =          8 seconds =       0.13 minutes

*** tstart() called on n045
*** at Fri Jun 19 12:17:59 2020


         ------------------------------------------------------------
                                   SCF HESS                          
                          Rob Parrish, Justin Turney,                
                       Andy Simmonett, and Alex Sokolov              
         ------------------------------------------------------------

  ==> Geometry <==

    Molecular point group: c2v
    Full point group: C2v

    Geometry (in Bohr), charge = 0, multiplicity = 1:

       Center              X                  Y                   Z               Mass       
    ------------   -----------------  -----------------  -----------------  -----------------
         H           -1.415086988583     0.970965907857     0.000000000000     1.007825032230
         O            0.000000000000    -0.122359358666     0.000000000000    15.994914619570
         H            1.415086988583     0.970965907857     0.000000000000     1.007825032230

  Nuclear repulsion =    9.300639437503989

  ==> Basis Set <==

  Basis Set: CC-PVDZ
    Blend: CC-PVDZ
    Number of shells: 12
    Number of basis function: 24
    Number of Cartesian functions: 25
    Spherical Harmonics?: true
    Max angular momentum: 2

  ==> DFJKGrad: Density-Fitted SCF Gradients <==

    Gradient:                    2
    J tasked:                  Yes
    K tasked:                  Yes
    wK tasked:                  No
    OpenMP threads:              4
    Integrals threads:           4
    Memory [MiB]:            21457
    Schwarz Cutoff:          0E+00
    Fitting Condition:       1E-10

   => Auxiliary Basis Set <=

  Basis Set: (CC-PVDZ AUX)
    Blend: CC-PVDZ-JKFIT
    Number of shells: 42
    Number of basis function: 116
    Number of Cartesian functions: 131
    Spherical Harmonics?: true
    Max angular momentum: 3

  DFHelper Memory: AOs need 0.001 GiB; user supplied 25.146 GiB. Using in-core AOs.

  ==> MemDFJK: Density-Fitted J/K Matrices <==

    J tasked:                   Yes
    K tasked:                   Yes
    wK tasked:                   No
    OpenMP threads:               4
    Memory [MiB]:             25749
    Algorithm:                 Core
    Schwarz Cutoff:           1E-12
    Mask sparsity (%):       0.0000
    Fitting Condition:        1E-10

   => Auxiliary Basis Set <=

  Basis Set: (CC-PVDZ AUX)
    Blend: CC-PVDZ-JKFIT
    Number of shells: 42
    Number of basis function: 116
    Number of Cartesian functions: 131
    Spherical Harmonics?: true
    Max angular momentum: 3


   ==> Coupled-Perturbed RHF Solver <==

    Maxiter             =         100
    Convergence         =   1.000E-06
    Number of equations =           9
   -----------------------------------------------------
     Iter   Residual RMS      Max RMS  Remain  Time [s]
   -----------------------------------------------------
        1      4.108e-01    6.256e-01       9         0
        2      1.017e-01    1.345e-01       9         0
        3      2.966e-02    4.326e-02       9         0
        4      4.701e-03    7.989e-03       9         0
        5      6.966e-04    1.116e-03       9         0
        6      1.498e-04    2.314e-04       9         0
        7      2.647e-05    4.510e-05       9         0
        8      3.530e-06    6.956e-06       7         0
        9      8.336e-07    1.606e-06       4         0
       10      2.216e-07    2.526e-07       0         0
  ## Total Hessian (Symmetry 0) ##
  Irrep: 1 Size: 9 x 9

                 1                   2                   3                   4                   5

    1     0.42749693804751    -0.26956729215804     0.00000000000000    -0.39267717812859     0.23575398968197
    2    -0.26956729215804     0.25189968504275    -0.00000000000000     0.30338059463567    -0.26938797498946
    3     0.00000000000000    -0.00000000000000     0.00001303773898    -0.00000000000000     0.00000000000000
    4    -0.39267717812859     0.30338059463567    -0.00000000000000     0.78535435626028     0.00000000000009
    5     0.23575398968197    -0.26938797498946     0.00000000000000     0.00000000000009     0.53877594997047
    6    -0.00000000000000     0.00000000000000    -0.00001275778548    -0.00000000000000    -0.00000000000000
    7    -0.03481975992484    -0.03381330247513    -0.00000000000000    -0.39267717813699    -0.23575398969550
    8     0.03381330247497     0.01748828994311    -0.00000000000000    -0.30338059464193    -0.26938797498915
    9     0.00000000000000    -0.00000000000000    -0.00000027995304     0.00000000000000     0.00000000000000

                 6                   7                   8                   9

    1    -0.00000000000000    -0.03481975992484     0.03381330247497     0.00000000000000
    2     0.00000000000000    -0.03381330247513     0.01748828994311    -0.00000000000000
    3    -0.00001275778548    -0.00000000000000    -0.00000000000000    -0.00000027995304
    4    -0.00000000000000    -0.39267717813699    -0.30338059464193     0.00000000000000
    5    -0.00000000000000    -0.23575398969550    -0.26938797498915     0.00000000000000
    6     0.00002551555168     0.00000000000000     0.00000000000000    -0.00001275778425
    7     0.00000000000000     0.42749693807480     0.26956729216255    -0.00000000000000
    8     0.00000000000000     0.26956729216255     0.25189968503903    -0.00000000000000
    9    -0.00001275778425    -0.00000000000000    -0.00000000000000     0.00001303773763




*** tstop() called on n045 at Fri Jun 19 12:18:00 2020
Module time:
	user time   =       3.78 seconds =       0.06 minutes
	system time =       0.14 seconds =       0.00 minutes
	total time  =          1 seconds =       0.02 minutes
Total time:
	user time   =      29.23 seconds =       0.49 minutes
	system time =       0.78 seconds =       0.01 minutes
	total time  =          9 seconds =       0.15 minutes


  ==> Harmonic Vibrational Analysis <==

  non-mass-weighted Hessian:       Symmetric? True   Hermitian? True   Lin Dep Dim?  0 (0)
  projection of translations (True) and rotations (True) removed 6 degrees of freedom (6)
  total projector:                 Symmetric? True   Hermitian? True   Lin Dep Dim?  6 (6)
  mass-weighted Hessian:           Symmetric? True   Hermitian? True   Lin Dep Dim?  0 (0)
  pre-proj  low-frequency mode:    0.0000i [cm^-1]
  pre-proj  low-frequency mode:    0.0000i [cm^-1]
  pre-proj  low-frequency mode:    0.0038  [cm^-1]
  pre-proj  low-frequency mode:   18.6864  [cm^-1]
  pre-proj  low-frequency mode:   18.9394  [cm^-1]
  pre-proj  low-frequency mode:   19.4076  [cm^-1]
  pre-proj  all modes:['0.0063i' '0.0050i' '0.0038' '18.6864' '18.9394' '19.4076' '1776.2490'
 '4113.3828' '4211.7701']
  projected mass-weighted Hessian: Symmetric? True   Hermitian? True   Lin Dep Dim?  6 (6)
  post-proj low-frequency mode:    0.0000i [cm^-1] (TR)
  post-proj low-frequency mode:    0.0000i [cm^-1] (TR)
  post-proj low-frequency mode:    0.0000i [cm^-1] (TR)
  post-proj low-frequency mode:    0.0000  [cm^-1] (TR)
  post-proj low-frequency mode:    0.0000  [cm^-1] (TR)
  post-proj low-frequency mode:    0.0000  [cm^-1] (TR)
  post-proj  all modes:['0.0000i' '0.0000i' '0.0000i' '0.0000' '0.0000' '0.0000' '1776.2490'
 '4113.3828' '4211.7701']

  Vibration                       7                   8                   9           
  Freq [cm^-1]                1776.2490           4113.3828           4211.7701       
  Irrep                           A1                  A1                  B1          
  Reduced mass [u]              1.0817              1.0461              1.0820        
  Force const [mDyne/A]         2.0108             10.4281             11.3083        
  Turning point v=0 [a0]        0.2503              0.1673              0.1625        
  RMS dev v=0 [a0 u^1/2]        0.1841              0.1210              0.1196        
  IR activ [km/mol]            80.8268             21.1731             60.5609        
  Char temp [K]               2555.6268           5918.2420           6059.7995       
  ----------------------------------------------------------------------------------
      1   H                0.43  0.56  0.00    0.58 -0.40 -0.00    0.56 -0.43 -0.00   
      2   O               -0.00 -0.07 -0.00   -0.00  0.05 -0.00   -0.07 -0.00  0.00   
      3   H               -0.43  0.56  0.00   -0.58 -0.40  0.00    0.56  0.43 -0.00   

  ==> Thermochemistry Components <==

  Entropy, S
    Electronic S            0.000 [cal/(mol K)]        0.000 [J/(mol K)]       0.00000000 [mEh/K] (multiplicity = 1)
    Translational S        34.608 [cal/(mol K)]      144.801 [J/(mol K)]       0.05515177 [mEh/K] (mol. weight = 18.0106 [u], P = 101325.00 [Pa])
    Rotational S           10.377 [cal/(mol K)]       43.416 [J/(mol K)]       0.01653637 [mEh/K] (symmetry no. = 2)
    Vibrational S           0.004 [cal/(mol K)]        0.015 [J/(mol K)]       0.00000574 [mEh/K]
  Total S                  44.989 [cal/(mol K)]      188.232 [J/(mol K)]       0.07169388 [mEh/K]
  Correction S              0.000 [cal/(mol K)]        0.000 [J/(mol K)]       0.00000000 [mEh/K]

  Constant volume heat capacity, Cv
    Electronic Cv           0.000 [cal/(mol K)]        0.000 [J/(mol K)]       0.00000000 [mEh/K]
    Translational Cv        2.981 [cal/(mol K)]       12.472 [J/(mol K)]       0.00475022 [mEh/K]
    Rotational Cv           2.981 [cal/(mol K)]       12.472 [J/(mol K)]       0.00475022 [mEh/K]
    Vibrational Cv          0.028 [cal/(mol K)]        0.116 [J/(mol K)]       0.00004409 [mEh/K]
  Total Cv                  5.989 [cal/(mol K)]       25.059 [J/(mol K)]       0.00954452 [mEh/K]
  Correction Cv             0.000 [cal/(mol K)]        0.000 [J/(mol K)]       0.00000000 [mEh/K]

  Constant pressure heat capacity, Cp
    Electronic Cp           0.000 [cal/(mol K)]        0.000 [J/(mol K)]       0.00000000 [mEh/K]
    Translational Cp        4.968 [cal/(mol K)]       20.786 [J/(mol K)]       0.00791703 [mEh/K]
    Rotational Cp           2.981 [cal/(mol K)]       12.472 [J/(mol K)]       0.00475022 [mEh/K]
    Vibrational Cp          0.028 [cal/(mol K)]        0.116 [J/(mol K)]       0.00004409 [mEh/K]
  Total Cp                  7.976 [cal/(mol K)]       33.374 [J/(mol K)]       0.01271133 [mEh/K]
  Correction Cp             0.000 [cal/(mol K)]        0.000 [J/(mol K)]       0.00000000 [mEh/K]

  ==> Thermochemistry Energy Analysis <==

  Raw electronic energy, E0
  Total E0, Electronic energy at well bottom at 0 [K]                  -76.02703278 [Eh]

  Zero-point energy, ZPE_vib = Sum_i nu_i / 2
    Electronic ZPE          0.000 [kcal/mol]        0.000 [kJ/mol]       0.00000000 [Eh]
    Translational ZPE       0.000 [kcal/mol]        0.000 [kJ/mol]       0.00000000 [Eh]
    Rotational ZPE          0.000 [kcal/mol]        0.000 [kJ/mol]       0.00000000 [Eh]
    Vibrational ZPE        14.441 [kcal/mol]       60.420 [kJ/mol]       0.02301269 [Eh]        5050.701 [cm^-1]
  Correction ZPE           14.441 [kcal/mol]       60.420 [kJ/mol]       0.02301269 [Eh]        5050.701 [cm^-1]
  Total ZPE, Electronic energy at 0 [K]                                -76.00402010 [Eh]

  Thermal Energy, E (includes ZPE)
    Electronic E            0.000 [kcal/mol]        0.000 [kJ/mol]       0.00000000 [Eh]
    Translational E         0.889 [kcal/mol]        3.718 [kJ/mol]       0.00141628 [Eh]
    Rotational E            0.889 [kcal/mol]        3.718 [kJ/mol]       0.00141628 [Eh]
    Vibrational E          14.442 [kcal/mol]       60.424 [kJ/mol]       0.02301422 [Eh]
  Correction E             16.219 [kcal/mol]       67.861 [kJ/mol]       0.02584677 [Eh]
  Total E, Electronic energy at  298.15 [K]                            -76.00118601 [Eh]

  Enthalpy, H_trans = E_trans + k_B * T
    Electronic H            0.000 [kcal/mol]        0.000 [kJ/mol]       0.00000000 [Eh]
    Translational H         1.481 [kcal/mol]        6.197 [kJ/mol]       0.00236046 [Eh]
    Rotational H            0.889 [kcal/mol]        3.718 [kJ/mol]       0.00141628 [Eh]
    Vibrational H          14.442 [kcal/mol]       60.424 [kJ/mol]       0.02301422 [Eh]
  Correction H             16.812 [kcal/mol]       70.340 [kJ/mol]       0.02679096 [Eh]
  Total H, Enthalpy at  298.15 [K]                                     -76.00024182 [Eh]

  Gibbs free energy, G = H - T * S
    Electronic G            0.000 [kcal/mol]        0.000 [kJ/mol]       0.00000000 [Eh]
    Translational G        -8.837 [kcal/mol]      -36.975 [kJ/mol]      -0.01408304 [Eh]
    Rotational G           -2.205 [kcal/mol]       -9.226 [kJ/mol]      -0.00351404 [Eh]
    Vibrational G          14.441 [kcal/mol]       60.419 [kJ/mol]       0.02301251 [Eh]
  Correction G              3.398 [kcal/mol]       14.218 [kJ/mol]       0.00541543 [Eh]
  Total G, Free enthalpy at  298.15 [K]                                -76.02161736 [Eh]

    Psi4 stopped on: Friday, 19 June 2020 12:18PM
    Psi4 wall time for execution: 0:00:09.00

*** Psi4 exiting successfully. Buy a developer a beer!
