
 Working directory              : /scratch/mel64643/tmp/40073058/
 Global scratch directory       : /scratch/mel64643/tmp/40073058/
 Wavefunction directory         : /home/mel64643/wfu/
 Main file repository           : /scratch/mel64643/tmp/40073058/

 id        : ccgc

 Nodes     nprocs
 a1-8         3
 Distribution of processes:   nprocs(total)=    4   nprocs(compute)=    3   nprocs(helper)=    1
 GA implementation: MPI file
 GA implementation (serial work in mppx): MPI file

 Using customized tuning parameters: mindgm=1; mindgv=20; mindgc=4; mindgr=1; noblas=0; minvec=7
 default implementation of scratch files=sf  


 Variables initialized (1015), CPU time= 0.01 sec
 ***,Optimization of min3
 memory,1000,m
 gthresh,energy=1.0d-12,orbital=1.0d-10,oneint=1.0d-16,twoint=1.0d-16,optgrad=1.0d-6,compress=1.0d-13
 geomtyp=xyz
 
  bohr
  geometry = {
  6
  arbitrary comment
  C   -1.3715749741   -0.0283091558    0.0000004780
  O    1.3056815318    0.1219614963    0.0000002829
  H   -2.0786873486    1.9098657547   -0.0000799125
  H   -2.1101306708   -0.9779277107    1.6821415121
  H   -2.1101236220   -0.9780589830   -1.6820694403
  H    1.9411109236   -1.5776635215   -0.0000013303
 }
 
 basis=cc-pvdz
 {rhf;maxit,200}
 {ccsd(t);maxit,200}
 Commands initialized (818), CPU time= 0.01 sec, 672 directives.
 Default parameters read. Elapsed time= 0.08 sec

 Checking input...
 Passed
1


                                         ***  PROGRAM SYSTEM MOLPRO  ***
                                       Copyright, TTI GmbH Stuttgart, 2015
                                    Version 2022.1 linked Mar  4 2022 00:40:14


 **********************************************************************************************************************************
 LABEL *   Optimization of min3                                                          
  64 bit mpp version                                                                     DATE: 07-Aug-25          TIME: 21:22:54  
 **********************************************************************************************************************************

 SHA1:             31073afc4d8441e10870424e0d77336a33bc4286
 **********************************************************************************************************************************

 Memory per process:      1000 MW
 Total memory per node:   3000 MW

 GA preallocation disabled
 GA check disabled

 Variable memory set to 1000.0 MW


 THRESHOLDS:

 ZERO    =  1.00D-12  ONEINT  =  1.00D-16  TWOINT  =  1.00D-16  PREFAC  =  1.00D-14  XXXXXX  =  1.00D-09  EORDER  =  1.00D-04
 ENERGY  =  1.00D-12  ETEST   =  0.00D+00  EDENS   =  0.00D+00  THRDEDEF=  1.00D-06  GRADIENT=  1.00D-05  STEP    =  1.00D-03
 ORBITAL =  1.00D-10  CIVEC   =  1.00D-05  COEFF   =  1.00D-04  PRINTCI =  5.00D-02  PUNCHCI =  9.90D+01  OPTGRAD =  1.00D-06
 OPTENERG=  1.00D-06  OPTSTEP =  3.00D-04  THRGRAD =  1.00D-10  COMPRESS=  1.00D-13  VARMIN  =  1.00D-07  VARMAX  =  1.00D-03
 THRDOUB =  0.00D+00  THRDIV  =  1.00D-05  THRRED  =  1.00D-07  THRPSP  =  1.00D+00  THRDC   =  1.00D-10  THRCS   =  1.00D-10
 THRNRM  =  1.00D-08  THREQ   =  0.00D+00  THRDE   =  1.00D+00  THRREF  =  1.00D-05  SPARFAC =  1.00D+00  THRDLP  =  1.00D-07
 THRDIA  =  1.00D-10  THRDLS  =  1.00D-07  THRGPS  =  0.00D+00  THRKEX  =  0.00D+00  THRDIS  =  2.00D-01  THRVAR  =  1.00D-10
 THRLOC  =  1.00D-06  THRGAP  =  1.00D-06  THRLOCT = -1.00D+00  THRGAPT = -1.00D+00  THRORB  =  1.00D-06  THRMLTP =  0.00D+00
 THRCPQCI=  1.00D-10  KEXTA   =  0.00D+00  THRCOARS=  0.00D+00  SYMTOL  =  1.00D-06  GRADTOL =  1.00D-06  THROVL  =  1.00D-08
 THRORTH =  1.00D-08  THRDLOVL= -1.00D+00  GRID    =  1.00D-06  GRIDMAX =  1.00D-03  DTMAX   =  0.00D+00  THROCCDE=  1.00D-01
 THROCCDE=  1.00D-01  THRPRINT=  2.50D-01

 SETTING GEOMTYP        =    XYZ
 ZUNIT=BOHR

 SETTING BASIS          =    CC-PVDZ


 Recomputing integrals since basis changed


 Using spherical harmonics

 Library entry C      S cc-pVDZ              selected for orbital group  1
 Library entry C      P cc-pVDZ              selected for orbital group  1
 Library entry C      D cc-pVDZ              selected for orbital group  1
 Library entry O      S cc-pVDZ              selected for orbital group  2
 Library entry O      P cc-pVDZ              selected for orbital group  2
 Library entry O      D cc-pVDZ              selected for orbital group  2
 Library entry H      S cc-pVDZ              selected for orbital group  3
 Library entry H      P cc-pVDZ              selected for orbital group  3


 PROGRAM * SEWARD (Integral evaluation for generally contracted gaussian basis sets)     Author: Roland Lindh, 1990

 Geometry written to block  1 of record 700


 Point group  C1  



 ATOMIC COORDINATES

 NR  ATOM    CHARGE       X              Y              Z

   1  C       6.00   -1.371574974   -0.028309156    0.000000478
   2  O       8.00    1.305681532    0.121961496    0.000000283
   3  H       1.00   -2.078687349    1.909865755   -0.000079912
   4  H       1.00   -2.110130671   -0.977927711    1.682141512
   5  H       1.00   -2.110123622   -0.978058983   -1.682069440
   6  H       1.00    1.941110924   -1.577663522   -0.000001330

 Bond lengths in Bohr (Angstrom)

 1-2  2.681470430  1-3  2.063135938  1-4  2.068051831  1-5  2.068051752  2-6  1.814523550
     ( 1.418973043)     ( 1.091764522)     ( 1.094365900)     ( 1.094365858)     ( 0.960204511)

 Bond angles

  1-2-6  107.28642273   2-1-3  106.83113484   2-1-4  112.47610181   2-1-5  112.47610493

  3-1-4  107.99923809   3-1-5  107.99908295   4-1-5  108.85436888

 NUCLEAR CHARGE:                   18
 NUMBER OF PRIMITIVE AOS:          82
 NUMBER OF SYMMETRY AOS:           80
 NUMBER OF CONTRACTIONS:           48   (   48A   )
 NUMBER OF INNER CORE ORBITALS:     0   (    0A   )
 NUMBER OF OUTER CORE ORBITALS:     2   (    2A   )
 NUMBER OF VALENCE ORBITALS:       12   (   12A   )


 NUCLEAR REPULSION ENERGY   40.32339629

 Eigenvalues of metric

         1 0.967E-02 0.176E-01 0.370E-01 0.374E-01 0.383E-01 0.472E-01 0.479E-01 0.520E-01


 Contracted 2-electron integrals neglected if value below      1.0D-16
 AO integral compression algorithm  1   Integral accuracy      1.0D-16

     6.816 MB (compressed) written to integral file ( 98.5%)

     Node minimum: 2.097 MB, node maximum: 2.359 MB


 NUMBER OF SORTED TWO-ELECTRON INTEGRALS:     231084.     BUFFER LENGTH:  32768
 NUMBER OF SEGMENTS:   1  SEGMENT LENGTH:     231084      RECORD LENGTH: 524288

 Memory used in sort:       0.79 MW

 SORT1 READ      832256. AND WROTE      227682. INTEGRALS IN      1 RECORDS. CPU TIME:     0.01 SEC, REAL TIME:     0.02 SEC
 SORT2 READ      682148. AND WROTE      692076. INTEGRALS IN     27 RECORDS. CPU TIME:     0.01 SEC, REAL TIME:     0.02 SEC

 Node minimum:      230300.  Node maximum:      231084. integrals

 OPERATOR DM      FOR CENTER  0  COORDINATES:    0.000000    0.000000    0.000000


 **********************************************************************************************************************************
 DATASETS  * FILE   NREC   LENGTH (MB)   RECORD NAMES
              1      18       28.73       500      610      700      900      950      970     1000      129      960     1100   
                                          VAR    BASINP    GEOM    SYMINP    ZMAT    AOBASIS   BASIS     P2S    ABASIS      S 
                                         1400     1410     1200     1210     1080     1600     1650     1700   
                                           T        V       H0       H01     AOSYM     SMH    MOLCAS    OPER   

 PROGRAMS   *        TOTAL       INT
 CPU TIMES  *         0.36      0.24
 REAL TIME  *         0.95 SEC
 DISK USED  *        29.07 MB (local),      104.32 MB (total)
 GA USED    *         0.00 MB       (max)       0.00 MB       (current)
 **********************************************************************************************************************************


 Program * Restricted Hartree-Fock

 Orbital guess generated from atomic densities. Full valence occupancy:   14

 Initial occupancy:   9

 NELEC=   18   SYM=1   MS2= 0   THRE=1.0D-12   THRD=1.0D-10   THRG=1.0D-10  HFMA2=F  DIIS_START=2   DIIS_MAX=10   DIIS_INCORE=F

 Level shifts:    0.00 (CLOSED)    0.00 (OPEN)    0.30 (GAP_MIN)

 ITER           ETOT              DE          GRAD        DDIFF     DIIS  NEXP   TIME(IT)  TIME(TOT)  DIAG
   1     -115.01425342    -115.01425342     0.00D+00     0.16D+00     0     0       0.01      0.01    start
   2     -115.04260050      -0.02834708     0.10D-01     0.20D-01     1     0       0.00      0.01    diag
   3     -115.04861634      -0.00601584     0.48D-02     0.64D-02     2     0       0.00      0.01    diag
   4     -115.04908062      -0.00046428     0.10D-02     0.20D-02     3     0       0.00      0.01    diag
   5     -115.04910172      -0.00002110     0.19D-03     0.43D-03     4     0       0.00      0.01    diag
   6     -115.04910252      -0.00000080     0.33D-04     0.93D-04     5     0       0.01      0.02    diag
   7     -115.04910255      -0.00000003     0.67D-05     0.15D-04     6     0       0.01      0.03    diag
   8     -115.04910256      -0.00000000     0.22D-05     0.50D-05     7     0       0.00      0.03    fixocc
   9     -115.04910256      -0.00000000     0.45D-06     0.14D-05     8     0       0.00      0.03    diag
  10     -115.04910256      -0.00000000     0.73D-07     0.24D-06     9     0       0.00      0.03    diag/orth
  11     -115.04910256      -0.00000000     0.17D-07     0.48D-07     9     0       0.01      0.04    diag
  12     -115.04910256      -0.00000000     0.44D-08     0.14D-07     9     0       0.00      0.04    diag
  13     -115.04910256      -0.00000000     0.68D-09     0.19D-08     9     0       0.00      0.04    diag
  14     -115.04910256       0.00000000     0.15D-09     0.39D-09     9     0       0.00      0.04    diag
  15     -115.04910256       0.00000000     0.61D-10     0.11D-09     9     0       0.00      0.04    diag
  16     -115.04910256      -0.00000000     0.13D-10     0.32D-10     9     0       0.00      0.04    diag
  17     -115.04910256       0.00000000     0.23D-11     0.45D-11     0     0       0.00      0.04    diag

 Final occupancy:   9

 !RHF STATE 1.1 Energy               -115.049102558111
  RHF One-electron energy            -236.907509237195
  RHF Two-electron energy              81.535010393465
  RHF Kinetic energy                  114.941751718670
  RHF Nuclear energy                   40.323396285619
  RHF Virial quotient                  -1.000933958617

 !RHF STATE 1.1 Dipole moment          -0.38960007    -0.59683145    -0.00000275
 Dipole moment /Debye                  -0.99026459    -1.51699423    -0.00000699

 Orbital energies:

           1.1          2.1          3.1          4.1          5.1          6.1          7.1          8.1          9.1         10.1
    -20.550366   -11.274732    -1.350636    -0.920961    -0.683160    -0.614178    -0.584820    -0.496591    -0.443299     0.184543

          11.1
      0.224211


 HOMO      9.1    -0.443299 =     -12.0628eV
 LUMO     10.1     0.184543 =       5.0217eV
 LUMO-HOMO         0.627842 =      17.0845eV

 Orbitals saved in record  2100.2


 **********************************************************************************************************************************
 DATASETS  * FILE   NREC   LENGTH (MB)   RECORD NAMES
              1      18       28.73       500      610      700      900      950      970     1000      129      960     1100   
                                          VAR    BASINP    GEOM    SYMINP    ZMAT    AOBASIS   BASIS     P2S    ABASIS      S 
                                         1400     1410     1200     1210     1080     1600     1650     1700   
                                           T        V       H0       H01     AOSYM     SMH    MOLCAS    OPER   

              2       4        0.47       700     1000      520     2100   
                                         GEOM     BASIS   MCVARS     RHF  

 PROGRAMS   *        TOTAL   RHF-SCF       INT
 CPU TIMES  *         0.41      0.05      0.24
 REAL TIME  *         1.15 SEC
 DISK USED  *        29.40 MB (local),      105.31 MB (total)
 GA USED    *         0.00 MB       (max)       0.00 MB       (current)
 **********************************************************************************************************************************


 PROGRAM * CCSD (Closed-shell coupled cluster)     Authors: C. Hampel, H.-J. Werner, 1991, M. Deegan, P.J. Knowles, 1992


 Convergence thresholds:  THRVAR = 1.00D-08  THRDEN = 1.00D-12

 CCSD(T)     terms to be evaluated (factor= 1.000)


 Number of core orbitals:           2 (   2 )
 Number of closed-shell orbitals:   7 (   7 )
 Number of external orbitals:      39 (  39 )

 Molecular orbitals read from record     2100.2  Type=RHF/CANONICAL  

 Number of N-1 electron functions:               7
 Number of N-2 electron functions:              28
 Number of singly external CSFs:               273
 Number of doubly external CSFs:             37401
 Total number of CSFs:                       37675

 Length of J-op  integral file:               0.00 MB
 Length of K-op  integral file:               0.16 MB
 Length of 3-ext integral record:             0.00 MB

 Memory could be reduced to 0.73 Mwords without degradation in triples

 Integral transformation finished. Total CPU:   0.01 sec, npass=  1  Memory used:   0.66 MW

 Reference energy:                   -115.04910256

 MP2 singlet pair energy:              -0.21867748
 MP2 triplet pair energy:              -0.11987201
 MP2 correlation energy:               -0.33854949
 MP2 total energy:                   -115.38765205

 SCS-MP2 correlation energy:           -0.33700001   (PS=  1.200000  PT=  0.333333)
 SCS-MP2 total energy:               -115.38610257

 ITER.      SQ.NORM     CORR.ENERGY   TOTAL ENERGY   ENERGY CHANGE        DEN1      VAR(S)    VAR(P)  DIIS     TIME  TIME/IT
   1      1.10737017    -0.36134577  -115.41044833    -0.02279628    -0.01411323  0.91D-03  0.17D-02  1  1     0.04     0.04
   2      1.11590145    -0.36329170  -115.41239425    -0.00194592    -0.00925294  0.20D-04  0.16D-03  2  2     0.06     0.03
   3      1.11778543    -0.36341918  -115.41252173    -0.00012748    -0.00120531  0.95D-05  0.86D-05  3  3     0.08     0.03
   4      1.11830105    -0.36341785  -115.41252041     0.00000133    -0.00025517  0.33D-06  0.68D-06  4  4     0.09     0.03
   5      1.11839918    -0.36341827  -115.41252082    -0.00000042    -0.00003606  0.99D-07  0.49D-07  5  5     0.11     0.03
   6      1.11841819    -0.36341692  -115.41251948     0.00000135    -0.00000436  0.16D-07  0.41D-08  6  6     0.12     0.03
   7      1.11842292    -0.36341650  -115.41251906     0.00000042    -0.00000035  0.20D-08  0.71D-09  6  1     0.14     0.03
   8      1.11842418    -0.36341660  -115.41251916    -0.00000010     0.00000074  0.26D-09  0.71D-10  6  3     0.16     0.03
   9      1.11842524    -0.36341648  -115.41251904     0.00000012    -0.00000038  0.13D-10  0.10D-10  6  2     0.17     0.03
  10      1.11842517    -0.36341648  -115.41251904    -0.00000000     0.00000007  0.11D-11  0.87D-12  6  5     0.19     0.03
  11      1.11842520    -0.36341648  -115.41251904     0.00000000    -0.00000000  0.19D-12  0.50D-13  6  4     0.20     0.03
  12      1.11842518    -0.36341648  -115.41251904    -0.00000000     0.00000001  0.19D-13  0.10D-13  6  1     0.22     0.03
  13      1.11842519    -0.36341648  -115.41251904    -0.00000000    -0.00000000  0.23D-14  0.94D-15  6  6     0.24     0.03
  14      1.11842519    -0.36341648  -115.41251904     0.00000000    -0.00000000  0.22D-15  0.12D-15  6  3     0.25     0.03
  15      1.11842519    -0.36341648  -115.41251904    -0.00000000    -0.00000000  0.25D-16  0.16D-16  6  2     0.27     0.03
  16      1.11842519    -0.36341648  -115.41251904    -0.00000000    -0.00000000  0.55D-17  0.16D-17  6  5     0.29     0.03
  17      1.11842519    -0.36341648  -115.41251904    -0.00000000    -0.00000000  0.53D-18  0.25D-18  6  4     0.30     0.03
  18      1.11842519    -0.36341648  -115.41251904     0.00000000    -0.00000000  0.82D-19  0.42D-19  6  1     0.32     0.03
  19      1.11842519    -0.36341648  -115.41251904    -0.00000000    -0.00000000  0.92D-20  0.42D-20  6  6     0.34     0.03
  20      1.11842519    -0.36341648  -115.41251904     0.00000000     0.00000000  0.13D-20  0.55D-21  6  3     0.35     0.03

 Norm of t1 vector:      0.04165919      S-energy:    -0.00000000      T1 diagnostic:  0.00787285
                                                                       D1 diagnostic:  0.01742200
                                                                       D2 diagnostic:  0.13445678 (internal)


 Total CPU time for triples:      0.07 sec


 RESULTS
 =======

  Reference energy                   -115.049102558111
  CCSD singlet pair energy             -0.254636563183
  CCSD triplet pair energy             -0.108779916775
  CCSD correlation energy              -0.363416479958

  Triples (T) contribution             -0.007741987383
  Total correlation energy             -0.371158467342

  CCSD total energy                  -115.412519038069
  CCSD[T] energy                     -115.420551201037
  CCSD-T energy                      -115.420111023920
 !CCSD(T) total energy               -115.420261025453

 Timing summary (sec):

 STEP                 CPU(USER)    SYS     CPU(TOT)    WALL
 Transformation          0.01      0.01      0.02      0.04
 CCSD iterations         0.35      0.07      0.42      0.61
 Triples                 0.07      0.00      0.07      0.08

 Program statistics:

 Available memory in ccsd:               999999795
 Min. memory needed in ccsd:                136177
 Max. memory used in ccsd:                  162910
 Max. memory used in cckext:                178997 (20 integral passes)



 **********************************************************************************************************************************
 DATASETS  * FILE   NREC   LENGTH (MB)   RECORD NAMES
              1      19       31.13       500      610      700      900      950      970     1000      129      960     1100   
                                          VAR    BASINP    GEOM    SYMINP    ZMAT    AOBASIS   BASIS     P2S    ABASIS      S 
                                         1400     1410     1200     1210     1080     1600     1650     1700     1380   
                                           T        V       H0       H01     AOSYM     SMH    MOLCAS    OPER     JKOP   

              2       4        0.47       700     1000      520     2100   
                                         GEOM     BASIS   MCVARS     RHF  

 PROGRAMS   *        TOTAL   CCSD(T)   RHF-SCF       INT
 CPU TIMES  *         0.87      0.45      0.05      0.24
 REAL TIME  *         1.94 SEC
 DISK USED  *        35.56 MB (local),      115.96 MB (total)
 SF USED    *         5.97 MB
 GA USED    *         0.00 MB       (max)       0.00 MB       (current)
 **********************************************************************************************************************************

 CCSD(T)/cc-pVDZ energy=   -115.420261025453

         CCSD(T)         RHF-SCF
   -115.42026103   -115.04910256
 **********************************************************************************************************************************
 Molpro calculation terminated
