
 Primary working directories    : /tmp/333988.47.gen4.q
 Secondary working directories  : /tmp/333988.47.gen4.q
 Wavefunction directory         : /home/vulcan/mel64643/wfu/
 Main file repository           : /tmp/333988.47.gen4.q/

 ARCHNAME  : Linux/x86_64
 FC        : /opt/intel/compilers_and_libraries_2016.1.150/linux/bin/intel64/ifort
 FCVERSION : 16.0.1
 BLASLIB   : -mkl
 id        : ccgc

 Nodes     nprocs
 n058         3
 Number of processes for MPI-2 version of Molpro:   nprocs(total)=    4   nprocs(compute)=    3   nprocs(helper)=    1
 ga_uses_ma=false, calling ma_init with nominal heap.
 GA-space will be limited to   8.0 MW (determined by -G option)

 Using customized tuning parameters: mindgm=10; mindgv=16; mindgc=4; mindgr=1; noblas=0; mincuda=1000; minvec=7
 default implementation of scratch files=sf  

 ***,Optimization of min3
 memory,1000,m
 gthresh,energy=1.0d-10,orbital=1.0d-10,oneint=1.0d-16,twoint=1.0d-16,optgrad=1.0d-6,compress=1.0d-13
 geomtyp=xyz
 
  bohr
  geometry = {
  12
  arbitrary comment
  C         -3.1012389092          1.5871025906          0.0209164068
  C         -0.8628734047         -0.0702378248         -0.6553495320
  C         -1.1172974162         -2.7801214978          0.2473795723
  O          1.3114436426          1.1048529501          0.5889368683
  O          3.4492267308          0.1200953115         -0.2517968005
  H         -4.8087939440          0.8547626348         -0.8741724518
  H         -2.8075946591          3.5182401128         -0.6346562722
  H         -3.3951764578          1.5814269383          2.0629579157
  H         -0.4629546226         -0.0065561895         -2.6773744221
  H         -2.6923283084         -3.7018158143         -0.7160890708
  H         -1.4852281843         -2.8136826593          2.2776775756
  H          0.6002577482         -3.8318113607         -0.1804204723
 }
 
 basis=cc-pvtz
 {rhf;maxit,200}
 {uccsd(t);maxit,200}

 Variables initialized (661), CPU time= 0.00 sec
 Commands  initialized (458), CPU time= 0.01 sec, 486 directives.
 Default parameters read. Elapsed time= 0.06 sec

 Checking input...
 Passed
1


                                         ***  PROGRAM SYSTEM MOLPRO  ***
                         Copyright, University College Cardiff Consultants Limited, 2008

                                    Version 2010.1 linked May 16 2016 07:17:05


 **********************************************************************************************************************************
 LABEL *   Optimization of min3                                                          
 Linux-4.4.3/n058(x86_64) 64 bit mpp version                                             DATE: 15-Jul-20          TIME: 17:36:23  
 **********************************************************************************************************************************

 SHA1:             9e8077add272b0f3cad6f7df79ec5211205f459d
 **********************************************************************************************************************************

 THRESHOLDS:

 ZERO    =  1.00D-12  ONEINT  =  1.00D-16  TWOINT  =  1.00D-16  PREFAC  =  1.00D-14  LOCALI  =  1.00D-09  EORDER  =  1.00D-04
 ENERGY  =  1.00D-10  ETEST   =  0.00D+00  EDENS   =  0.00D+00  THRDEDEF=  1.00D-06  GRADIENT=  1.00D-02  STEP    =  1.00D-03
 ORBITAL =  1.00D-10  CIVEC   =  1.00D-05  COEFF   =  1.00D-04  PRINTCI =  5.00D-02  PUNCHCI =  9.90D+01  OPTGRAD =  1.00D-06
 OPTENERG=  1.00D-06  OPTSTEP =  3.00D-04  THRGRAD =  1.00D-10  COMPRESS=  1.00D-13  VARMIN  =  1.00D-07  VARMAX  =  1.00D-03
 THRDOUB =  0.00D+00  THRDIV  =  1.00D-05  THRRED  =  1.00D-07  THRPSP  =  1.00D+00  THRDC   =  1.00D-10  THRCS   =  1.00D-10
 THRNRM  =  1.00D-08  THREQ   =  0.00D+00  THRDE   =  1.00D+00  THRREF  =  1.00D-05  SPARFAC =  1.00D+00  THRDLP  =  1.00D-07
 THRDIA  =  1.00D-10  THRDLS  =  1.00D-07  THRGPS  =  0.00D+00  THRKEX  =  0.00D+00  THRDIS  =  2.00D-01  THRVAR  =  1.00D-10
 THRLOC  =  1.00D-06  THRGAP  =  1.00D-06  THRLOCT = -1.00D+00  THRGAPT = -1.00D+00  THRORB  =  1.00D-06  THRMLTP =  0.00D+00
 THRCPQCI=  1.00D-10  KEXTA   =  0.00D+00  THRCOARS=  0.00D+00  SYMTOL  =  1.00D-06  GRADTOL =  1.00D-06  THROVL  =  1.00D-08
 THRORTH =  1.00D-08  GRID    =  1.00D-06  GRIDMAX =  1.00D-03  DTMAX   =  0.00D+00

 SETTING GEOMTYP        =    XYZ
 ZUNIT=BOHR
 

 Variable memory set to 1000000000 words,  buffer space   230000 words

 SETTING BASIS          =    CC-PVTZ


 Recomputing integrals since basis changed


 Using spherical harmonics

 Library entry C      S cc-pVTZ              selected for orbital group  1
 Library entry C      P cc-pVTZ              selected for orbital group  1
 Library entry C      D cc-pVTZ              selected for orbital group  1
 Library entry C      F cc-pVTZ              selected for orbital group  1
 Library entry O      S cc-pVTZ              selected for orbital group  2
 Library entry O      P cc-pVTZ              selected for orbital group  2
 Library entry O      D cc-pVTZ              selected for orbital group  2
 Library entry O      F cc-pVTZ              selected for orbital group  2
 Library entry H      S cc-pVTZ              selected for orbital group  3
 Library entry H      P cc-pVTZ              selected for orbital group  3
 Library entry H      D cc-pVTZ              selected for orbital group  3

1PROGRAM * SEWARD (Integral evaluation for generally contracted gaussian basis sets)     Author: Roland Lindh, 1990

 Geometry written to block  1 of record 700


 Point group  C1  



 ATOMIC COORDINATES

 NR  ATOM    CHARGE       X              Y              Z

   1  C       6.00   -3.101238909    1.587102591    0.020916407
   2  C       6.00   -0.862873405   -0.070237825   -0.655349532
   3  C       6.00   -1.117297416   -2.780121498    0.247379572
   4  O       8.00    1.311443643    1.104852950    0.588936868
   5  O       8.00    3.449226731    0.120095311   -0.251796800
   6  H       1.00   -4.808793944    0.854762635   -0.874172452
   7  H       1.00   -2.807594659    3.518240113   -0.634656272
   8  H       1.00   -3.395176458    1.581426938    2.062957916
   9  H       1.00   -0.462954623   -0.006556190   -2.677374422
  10  H       1.00   -2.692328308   -3.701815814   -0.716089071
  11  H       1.00   -1.485228184   -2.813682659    2.277677576
  12  H       1.00    0.600257748   -3.831811361   -0.180420472

 Bond lengths in Bohr (Angstrom)

 1-2  2.866076238  1-6  2.062340921  1-7  2.060411273  1-8  2.063095979  2-3  2.867598461
     ( 1.516662225)     ( 1.091343812)     ( 1.090322687)     ( 1.091743372)     ( 1.517467750)

  2- 4  2.767081784   2- 9  2.062177257   3-10  2.063616861   3-11  2.063639839   3-12  2.058897809
       ( 1.464276615)       ( 1.091257205)       ( 1.092019011)       ( 1.092031170)       ( 1.089521796)

 4-5  2.499339361
     ( 1.322593427)

 Bond angles

  1-2-3  113.75871462   1-2-4  105.18942315   1-2-9  111.40517148   2-1-6  109.80882493

  2- 1- 7  110.83026763   2- 1- 8  110.07358581   2- 3-10  110.04855893   2- 3-11  109.93198107

  2- 3-12  110.07710035   2- 4- 5  110.70298277   3- 2- 4  109.23660588   3- 2- 9  110.79726136

  4-2-9  105.98695020   6-1-7  108.22372698   6-1-8  108.09814732   7-1-8  109.74362601

 10- 3-11  108.42101508  10- 3-12  108.15249111  11- 3-12  110.17264286

 NUCLEAR CHARGE:                   41
 NUMBER OF PRIMITIVE AOS:         354
 NUMBER OF SYMMETRY AOS:          322
 NUMBER OF CONTRACTIONS:          248   ( 248A   )
 NUMBER OF CORE ORBITALS:           5   (   5A   )
 NUMBER OF VALENCE ORBITALS:       27   (  27A   )


 NUCLEAR REPULSION ENERGY  186.63113237


 Eigenvalues of metric

         1 0.808E-03 0.957E-03 0.110E-02 0.124E-02 0.136E-02 0.150E-02 0.160E-02 0.164E-02


 Contracted 2-electron integrals neglected if value below      1.0D-16
 AO integral compression algorithm  1   Integral accuracy      1.0D-16

     3371.958 MB (compressed) written to integral file ( 82.1%)

     Node minimum: 1104.151 MB, node maximum: 1137.705 MB


 NUMBER OF SORTED TWO-ELECTRON INTEGRALS:  158903334.     BUFFER LENGTH:  32768
 NUMBER OF SEGMENTS:  10  SEGMENT LENGTH:   15997437      RECORD LENGTH: 524288

 Memory used in sort:      16.55 MW

 SORT1 READ   513522987. AND WROTE   152626976. INTEGRALS IN    442 RECORDS. CPU TIME:    27.33 SEC, REAL TIME:    32.51 SEC
 SORT2 READ   459372748. AND WROTE   476679126. INTEGRALS IN  12933 RECORDS. CPU TIME:     1.58 SEC, REAL TIME:    13.28 SEC

 Node minimum:   158882750.  Node maximum:   158903334. integrals

 OPERATOR DM      FOR CENTER  0  COORDINATES:    0.000000    0.000000    0.000000


 **********************************************************************************************************************************
 DATASETS  * FILE   NREC   LENGTH (MB)   RECORD NAMES
              1      18        5.04       500      610      700      900      950      970     1000      129      960     1100   
                                          VAR    BASINP    GEOM    SYMINP    ZMAT    AOBASIS   BASIS     P2S    ABASIS      S 
                                         1400     1410     1200     1210     1080     1600     1650     1700   
                                           T        V       H0       H01     AOSYM     SMH    MOLCAS    OPER   

 PROGRAMS   *        TOTAL       INT
 CPU TIMES  *        35.65     35.57
 REAL TIME  *        53.98 SEC
 DISK USED  *         8.83 GB      
 GA USED    *         0.01 MB       (max)       0.00 MB       (current)
 **********************************************************************************************************************************

1PROGRAM * RHF-SCF (OPEN SHELL)       Authors: W. Meyer, H.-J. Werner


 NUMBER OF ELECTRONS:      21+   20-    SPACE SYMMETRY=1    SPIN SYMMETRY: Doublet 
 CONVERGENCE THRESHOLDS:    1.00E-10 (Density)    1.00E-11 (Energy)
 MAX. NUMBER OF ITERATIONS:      200
 INTERPOLATION TYPE:            DIIS
 INTERPOLATION STEPS:              2 (START)      1 (STEP)
 LEVEL SHIFTS:                 -0.30 (CLOSED)  0.00 (OPEN) 



 Orbital guess generated from atomic densities. Full valence occupancy:   32

 Molecular orbital dump at record        2100.2

 ITERATION    DDIFF          GRAD             ENERGY        2-EL.EN.            DIPOLE MOMENTS         DIIS
    1      0.000D+00      0.000D+00      -267.26092136    559.804582   -1.77753   -0.07054   -0.10271    0
    2      0.000D+00      0.326D-02      -267.33455524    562.655098   -1.01667   -0.43239   -0.36290    1
    3      0.471D-02      0.230D-02      -267.36110722    561.607167   -1.18985   -0.24390   -0.22054    2
    4      0.211D-02      0.546D-03      -267.36935644    561.794026   -0.97808   -0.31675   -0.30131    3
    5      0.927D-03      0.485D-03      -267.37358429    561.836278   -0.92243   -0.31877   -0.30530    4
    6      0.583D-03      0.272D-03      -267.37550576    561.803127   -0.88118   -0.31204   -0.30304    5
    7      0.485D-03      0.133D-03      -267.37583958    561.788940   -0.89122   -0.30048   -0.29490    6
    8      0.257D-03      0.357D-04      -267.37586156    561.786260   -0.89073   -0.29725   -0.29344    7
    9      0.851D-04      0.190D-04      -267.37587261    561.786461   -0.89329   -0.29777   -0.29349    8
   10      0.450D-04      0.821D-05      -267.37587442    561.786352   -0.89448   -0.29713   -0.29319    9
   11      0.198D-04      0.319D-05      -267.37587467    561.786307   -0.89509   -0.29698   -0.29303    9
   12      0.782D-05      0.147D-05      -267.37587473    561.786534   -0.89524   -0.29707   -0.29307    9
   13      0.369D-05      0.526D-06      -267.37587474    561.786584   -0.89525   -0.29713   -0.29310    9
   14      0.148D-05      0.296D-06      -267.37587474    561.786584   -0.89524   -0.29715   -0.29311    9
   15      0.800D-06      0.143D-06      -267.37587474    561.786591   -0.89523   -0.29715   -0.29311    9
   16      0.401D-06      0.691D-07      -267.37587474    561.786593   -0.89523   -0.29716   -0.29311    9
   17      0.160D-06      0.312D-07      -267.37587474    561.786588   -0.89523   -0.29716   -0.29311    9
   18      0.951D-07      0.163D-07      -267.37587474    561.786586   -0.89523   -0.29715   -0.29311    9
   19      0.462D-07      0.700D-08      -267.37587474    561.786587   -0.89523   -0.29715   -0.29311    9
   20      0.177D-07      0.243D-08      -267.37587474    561.786587   -0.89523   -0.29715   -0.29311    9
   21      0.708D-08      0.152D-08      -267.37587474    561.786587   -0.89523   -0.29715   -0.29311    9
   22      0.491D-08      0.110D-08      -267.37587474    561.786587   -0.89523   -0.29715   -0.29311    9
   23      0.429D-08      0.779D-09      -267.37587474    561.786587   -0.89523   -0.29715   -0.29311    9
   24      0.414D-08      0.666D-09      -267.37587474    561.786587   -0.89523   -0.29715   -0.29311    9
   25      0.577D-08      0.535D-09      -267.37587474    561.786587   -0.89523   -0.29715   -0.29311    9
   26      0.854D-08      0.336D-09      -267.37587474    561.786587   -0.89523   -0.29715   -0.29311    9
   27      0.789D-08      0.178D-09      -267.37587474    561.786587   -0.89523   -0.29715   -0.29311    9
   28      0.358D-08      0.817D-10      -267.37587474    561.786587   -0.89523   -0.29715   -0.29311    9
   29      0.946D-09      0.394D-10      -267.37587474    561.786587   -0.89523   -0.29715   -0.29311    9
   30      0.254D-09      0.174D-10      -267.37587474    561.786587   -0.89523   -0.29715   -0.29311    9
   31      0.772D-10      0.125D-10      -267.37587474    561.786587   -0.89523   -0.29715   -0.29311    0

 Final alpha occupancy:  21
 Final beta  occupancy:  20

 !RHF STATE 1.1 Energy               -267.375874738758
 Nuclear energy                       186.63113237
 One-electron energy                 -734.90030048
 Two-electron energy                  280.89329337
 Virial quotient                       -1.00116780
 !RHF STATE 1.1 Dipole moment          -0.89522605    -0.29715423    -0.29310742
 Dipole moment /Debye                  -2.27528862    -0.75524124    -0.74495596

 Orbital energies:

         1.1          2.1          3.1          4.1          5.1          6.1          7.1          8.1          9.1         10.1
    -20.648809   -20.640555   -11.297343   -11.229098   -11.225435    -1.523815    -1.171091    -1.034460    -0.952765    -0.819400

        11.1         12.1         13.1         14.1         15.1         16.1         17.1         18.1         19.1         20.1
     -0.695405    -0.668009    -0.652635    -0.596223    -0.562682    -0.557784    -0.543261    -0.501346    -0.489708    -0.465502

        21.1         22.1         23.1
     -0.563059     0.137595     0.174804


 **********************************************************************************************************************************
 DATASETS  * FILE   NREC   LENGTH (MB)   RECORD NAMES
              1      18        5.04       500      610      700      900      950      970     1000      129      960     1100   
                                          VAR    BASINP    GEOM    SYMINP    ZMAT    AOBASIS   BASIS     P2S    ABASIS      S 
                                         1400     1410     1200     1210     1080     1600     1650     1700   
                                           T        V       H0       H01     AOSYM     SMH    MOLCAS    OPER   

              2       3        2.21       700     1000     2100   
                                         GEOM     BASIS     RHF  

 PROGRAMS   *        TOTAL       RHF       INT
 CPU TIMES  *        85.07     49.43     35.57
 REAL TIME  *       107.37 SEC
 DISK USED  *         8.87 GB      
 SF USED    *         0.25 MB      
 GA USED    *         0.01 MB       (max)       0.00 MB       (current)
 **********************************************************************************************************************************


1PROGRAM * CCSD (Unrestricted open-shell coupled cluster)     Authors: C. Hampel, H.-J. Werner, 1991, M. Deegan, P.J. Knowles, 1992


 Convergence thresholds:  THRVAR = 1.00D-08  THRDEN = 1.00D-10

 CCSD(T)     terms to be evaluated (factor= 1.000)


 Number of core orbitals:           5 (   5 )
 Number of closed-shell orbitals:  15 (  15 )
 Number of active  orbitals:        1 (   1 )
 Number of external orbitals:     227 ( 227 )

 Memory could be reduced to 332.02 Mwords without degradation in triples

 Number of N-1 electron functions:              31
 Number of N-2 electron functions:             465
 Number of singly external CSFs:              7068
 Number of doubly external CSFs:          18353430
 Total number of CSFs:                    18360498

 Molecular orbitals read from record     2100.2  Type=RHF/CANONICAL (state 1.1)

 Integral transformation finished. Total CPU:  27.73 sec, npass=  1  Memory used: 145.25 MW

 Starting RMP2 calculation

 ITER.      SQ.NORM     CORR.ENERGY   TOTAL ENERGY   ENERGY CHANGE        DEN1      VAR(S)    VAR(P)  DIIS     TIME
   1      1.26536076    -0.96759572  -268.34347046    -0.96759572    -0.00323727  0.26D-04  0.11D-02  1  1    31.70
   2      1.26814638    -0.97108627  -268.34696101    -0.00349055    -0.00000667  0.10D-05  0.23D-05  2  2    34.86
   3      1.26822633    -0.97113919  -268.34701393    -0.00005292    -0.00000008  0.54D-07  0.11D-07  3  3    38.23
   4      1.26822803    -0.97113900  -268.34701374     0.00000019    -0.00000000  0.16D-08  0.12D-09  4  4    41.89
   5      1.26822829    -0.97113909  -268.34701383    -0.00000009    -0.00000000  0.19D-10  0.46D-11  5  5    45.72
   6      1.26822835    -0.97113912  -268.34701386    -0.00000003    -0.00000000  0.50D-13  0.56D-13  6  6    49.49
   7      1.26822835    -0.97113912  -268.34701386     0.00000000    -0.00000000  0.15D-14  0.86D-15  6  1    53.85
   8      1.26822835    -0.97113912  -268.34701386     0.00000000    -0.00000000  0.16D-16  0.79D-17  6  2    59.66
   9      1.26822835    -0.97113912  -268.34701386    -0.00000000    -0.00000000  0.32D-18  0.10D-18  6  3    64.70

 Norm of t1 vector:      0.04588010      S-energy:    -0.00446652      T1 diagnostic:  0.00074372
 Norm of t2 vector:      0.51587146      P-energy:    -0.96667260
                                         Alpha-Beta:  -0.73707586
                                         Alpha-Alpha: -0.11899287
                                         Beta-Beta:   -0.11060387

 Spin contamination <S**2-Sz**2-Sz>     0.00145307
  Reference energy                   -267.375874738760
  RHF-RMP2 correlation energy          -0.971139119367
 !RHF-RMP2 energy                    -268.347013858127

 Starting UCCSD calculation

 ITER.      SQ.NORM     CORR.ENERGY   TOTAL ENERGY   ENERGY CHANGE        DEN1      VAR(S)    VAR(P)  DIIS     TIME
   1      1.27983721    -0.97926678  -268.35514152    -0.97926678    -0.02932434  0.65D-02  0.54D-02  1  1   180.66
   2      1.30623544    -1.00588722  -268.38176196    -0.02662044    -0.00363301  0.62D-03  0.97D-03  2  2   299.70
   3      1.32287299    -1.01270835  -268.38858309    -0.00682113    -0.00091152  0.75D-03  0.76D-04  3  3   406.36
   4      1.33409885    -1.01536532  -268.39124006    -0.00265697    -0.00038502  0.31D-03  0.33D-04  4  4   488.21
   5      1.34915683    -1.01736100  -268.39323574    -0.00199568    -0.00011798  0.10D-03  0.90D-05  5  5   570.48
   6      1.36068033    -1.01838331  -268.39425805    -0.00102231    -0.00001816  0.93D-05  0.32D-05  6  6   653.00
   7      1.36437864    -1.01862452  -268.39449926    -0.00024121    -0.00000316  0.16D-05  0.61D-06  6  1   735.45
   8      1.36498355    -1.01866675  -268.39454148    -0.00004222    -0.00000067  0.27D-06  0.15D-06  6  2   817.44
   9      1.36530461    -1.01868524  -268.39455998    -0.00001849    -0.00000015  0.66D-07  0.32D-07  6  4   899.08
  10      1.36529090    -1.01868396  -268.39455870     0.00000128    -0.00000002  0.11D-07  0.43D-08  6  3   981.70
  11      1.36535337    -1.01868905  -268.39456379    -0.00000509    -0.00000000  0.25D-08  0.94D-09  6  5  1064.51
  12      1.36534587    -1.01868656  -268.39456130     0.00000249    -0.00000000  0.11D-08  0.22D-09  6  6  1147.19
  13      1.36534151    -1.01868541  -268.39456015     0.00000115    -0.00000000  0.68D-09  0.58D-10  6  1  1229.05
  14      1.36532867    -1.01868391  -268.39455865     0.00000150    -0.00000000  0.46D-09  0.24D-10  6  2  1310.82
  15      1.36532255    -1.01868318  -268.39455792     0.00000073    -0.00000000  0.37D-09  0.18D-10  6  3  1394.03
  16      1.36531947    -1.01868301  -268.39455775     0.00000017    -0.00000000  0.27D-09  0.15D-10  6  4  1475.74
  17      1.36531897    -1.01868303  -268.39455777    -0.00000002    -0.00000000  0.13D-09  0.15D-10  6  5  1559.02
  18      1.36532190    -1.01868322  -268.39455796    -0.00000019    -0.00000000  0.28D-10  0.57D-11  6  6  1641.20
  19      1.36532513    -1.01868355  -268.39455828    -0.00000033    -0.00000000  0.25D-11  0.17D-11  6  2  1723.35
  20      1.36532456    -1.01868341  -268.39455815     0.00000013    -0.00000000  0.58D-12  0.17D-12  6  1  1806.02
  21      1.36532486    -1.01868346  -268.39455819    -0.00000004    -0.00000000  0.20D-12  0.58D-13  6  4  1888.09
  22      1.36532478    -1.01868344  -268.39455818     0.00000001    -0.00000000  0.56D-13  0.13D-13  6  3  1970.75
  23      1.36532479    -1.01868345  -268.39455819    -0.00000000    -0.00000000  0.16D-13  0.54D-14  6  6  2053.21
  24      1.36532477    -1.01868345  -268.39455819     0.00000000    -0.00000000  0.16D-14  0.55D-15  6  1  2135.20
  25      1.36532478    -1.01868345  -268.39455818     0.00000000    -0.00000000  0.62D-15  0.16D-15  6  5  2217.45
  26      1.36532479    -1.01868345  -268.39455819    -0.00000000    -0.00000000  0.17D-15  0.67D-16  6  2  2299.54
  27      1.36532480    -1.01868345  -268.39455819    -0.00000000    -0.00000000  0.40D-16  0.90D-17  6  4  2381.58
  28      1.36532480    -1.01868345  -268.39455819    -0.00000000    -0.00000000  0.98D-17  0.36D-17  6  3  2463.76
  29      1.36532480    -1.01868345  -268.39455819    -0.00000000    -0.00000000  0.38D-17  0.65D-18  6  6  2546.63
  30      1.36532481    -1.01868345  -268.39455819     0.00000000    -0.00000000  0.25D-17  0.24D-18  6  1  2628.91

 Norm of t1 vector:      0.23112041      S-energy:    -0.00501366      T1 diagnostic:  0.02847971
                                                                       D1 diagnostic:  0.14596041
 Norm of t2 vector:      0.55848739      P-energy:    -1.01366979
                                         Alpha-Beta:  -0.80136904
                                         Alpha-Alpha: -0.10868769
                                         Beta-Beta:   -0.10361305

 Singles amplitudes (print threshold =  0.500E-01):

         I         SYM. A    A   T(IA) [Beta-Beta]

         8         1         1     -0.09513031
         9         1         1      0.10004968
        11         1         1     -0.05416444
        12         1         1     -0.07225420
        14         1         1     -0.11205499

 Spin contamination <S**2-Sz**2-Sz>     0.00175908

 Memory could be reduced to 360.52 Mwords without degradation in triples
 

 RESULTS
 =======

  Reference energy                   -267.375874738760
  UCCSD singles energy                 -0.005013657768
  UCCSD pair energy                    -1.013669790604
  UCCSD correlation energy             -1.018683448372
  Triples (T) contribution             -0.040833596078
  Total correlation energy             -1.059517044450
 
  RHF-UCCSD energy                   -268.394558187132
  RHF-UCCSD[T] energy                -268.438711030762
  RHF-UCCSD-T energy                 -268.434894182615
 !RHF-UCCSD(T) energy                -268.435391783210

 Program statistics:

 Available memory in ccsd:               999997692
 Min. memory needed in ccsd:              51505734
 Max. memory used in ccsd:                74803578
 Max. memory used in cckext:              59475747 (30 integral passes)
 Max. memory used in cckint:             145249478 ( 1 integral passes)



 **********************************************************************************************************************************
 DATASETS  * FILE   NREC   LENGTH (MB)   RECORD NAMES
              1      18        5.04       500      610      700      900      950      970     1000      129      960     1100   
                                          VAR    BASINP    GEOM    SYMINP    ZMAT    AOBASIS   BASIS     P2S    ABASIS      S 
                                         1400     1410     1200     1210     1080     1600     1650     1700   
                                           T        V       H0       H01     AOSYM     SMH    MOLCAS    OPER   

              2       3        2.21       700     1000     2100   
                                         GEOM     BASIS     RHF  

 PROGRAMS   *        TOTAL  UCCSD(T)       RHF       INT
 CPU TIMES  *      4300.67   4215.60     49.43     35.57
 REAL TIME  *      4433.96 SEC
 DISK USED  *        15.84 GB      
 SF USED    *         6.57 GB      
 GA USED    *         0.01 MB       (max)       0.00 MB       (current)
 **********************************************************************************************************************************

        UCCSD(T)        RHF-SCF 
   -268.43539178   -267.37587474
 **********************************************************************************************************************************
 Variable memory released
