
 Primary working directories    : /tmp/786251.10.gen4.q
 Secondary working directories  : /tmp/786251.10.gen4.q
 Wavefunction directory         : /home/vulcan/nlk36701/wfu/
 Main file repository           : /tmp/786251.10.gen4.q/

 ARCHNAME  : Linux/x86_64
 FC        : /opt/intel/compilers_and_libraries_2016.1.150/linux/bin/intel64/ifort
 FCVERSION : 16.0.1
 BLASLIB   : -mkl
 id        : ccgc

 Nodes     nprocs
 n054         1
 ga_uses_ma=false, calling ma_init with nominal heap.
 GA-space will be limited to   8.0 MW (determined by -G option)

 Using customized tuning parameters: mindgm=10; mindgv=16; mindgc=4; mindgr=1; noblas=0; mincuda=1000; minvec=7
 default implementation of scratch files=df  

 ***,Optimization of min3
 memory,1000,m
 gthresh,energy=1.0d-12,orbital=1.0d-10,oneint=1.0d-16,twoint=1.0d-16,optgrad=1.0d-6,compress=1.0d-13
 geomtyp=xyz
 
  bohr
  geometry = {
  3
  arbitrary comment
  H    0.0000000000   -1.4192896310    0.9988688684
  O    0.0000000000    0.0049809420   -0.1274732469
  H    0.0000000000    1.4143086889    0.9949479985
 }
 
 basis=cc-pvdz
 {rhf;maxit,200}
 scfDZ=energy
 {ccsd(t);maxit,200}
 mp2DZ = emp2
 ccsdDZ=energc
 ccsdt_DZ=energy
 
 show[1,f20.15],scfDZ
 show[1,f20.15],mp2DZ
 show[1,f20.15],ccsdDZ
 show[1,f20.15],ccsdt_DZ

 Variables initialized (661), CPU time= 0.00 sec
 Commands  initialized (458), CPU time= 0.01 sec, 486 directives.
 Default parameters read. Elapsed time= 0.04 sec

 Checking input...
 Passed
1


                                         ***  PROGRAM SYSTEM MOLPRO  ***
                         Copyright, University College Cardiff Consultants Limited, 2008

                                    Version 2010.1 linked May 16 2016 07:17:05


 **********************************************************************************************************************************
 LABEL *   Optimization of min3                                                          
 Linux-4.4.3/n054(x86_64) 64 bit mpp version                                             DATE: 03-Aug-22          TIME: 12:15:35  
 **********************************************************************************************************************************

 SHA1:             9e8077add272b0f3cad6f7df79ec5211205f459d
 **********************************************************************************************************************************

 THRESHOLDS:

 ZERO    =  1.00D-12  ONEINT  =  1.00D-16  TWOINT  =  1.00D-16  PREFAC  =  1.00D-14  LOCALI  =  1.00D-09  EORDER  =  1.00D-04
 ENERGY  =  1.00D-12  ETEST   =  0.00D+00  EDENS   =  0.00D+00  THRDEDEF=  1.00D-06  GRADIENT=  1.00D-02  STEP    =  1.00D-03
 ORBITAL =  1.00D-10  CIVEC   =  1.00D-05  COEFF   =  1.00D-04  PRINTCI =  5.00D-02  PUNCHCI =  9.90D+01  OPTGRAD =  1.00D-06
 OPTENERG=  1.00D-06  OPTSTEP =  3.00D-04  THRGRAD =  1.00D-10  COMPRESS=  1.00D-13  VARMIN  =  1.00D-07  VARMAX  =  1.00D-03
 THRDOUB =  0.00D+00  THRDIV  =  1.00D-05  THRRED  =  1.00D-07  THRPSP  =  1.00D+00  THRDC   =  1.00D-10  THRCS   =  1.00D-10
 THRNRM  =  1.00D-08  THREQ   =  0.00D+00  THRDE   =  1.00D+00  THRREF  =  1.00D-05  SPARFAC =  1.00D+00  THRDLP  =  1.00D-07
 THRDIA  =  1.00D-10  THRDLS  =  1.00D-07  THRGPS  =  0.00D+00  THRKEX  =  0.00D+00  THRDIS  =  2.00D-01  THRVAR  =  1.00D-10
 THRLOC  =  1.00D-06  THRGAP  =  1.00D-06  THRLOCT = -1.00D+00  THRGAPT = -1.00D+00  THRORB  =  1.00D-06  THRMLTP =  0.00D+00
 THRCPQCI=  1.00D-10  KEXTA   =  0.00D+00  THRCOARS=  0.00D+00  SYMTOL  =  1.00D-06  GRADTOL =  1.00D-06  THROVL  =  1.00D-08
 THRORTH =  1.00D-08  GRID    =  1.00D-06  GRIDMAX =  1.00D-03  DTMAX   =  0.00D+00

 SETTING GEOMTYP        =    XYZ
 ZUNIT=BOHR
 

 Variable memory set to 1000000000 words,  buffer space   230000 words

 SETTING BASIS          =    CC-PVDZ


 Recomputing integrals since basis changed


 Using spherical harmonics

 Library entry H      S cc-pVDZ              selected for orbital group  1
 Library entry H      P cc-pVDZ              selected for orbital group  1
 Library entry O      S cc-pVDZ              selected for orbital group  2
 Library entry O      P cc-pVDZ              selected for orbital group  2
 Library entry O      D cc-pVDZ              selected for orbital group  2

1PROGRAM * SEWARD (Integral evaluation for generally contracted gaussian basis sets)     Author: Roland Lindh, 1990

 Geometry written to block  1 of record 700


 Point group  Cs  



 ATOMIC COORDINATES

 NR  ATOM    CHARGE       X              Y              Z

   1  H       1.00    0.000000000   -1.419289631    0.998868868
   2  O       8.00    0.000000000    0.004980942   -0.127473247
   3  H       1.00    0.000000000    1.414308689    0.994947999

 Bond lengths in Bohr (Angstrom)

 1-2  1.815817509  2-3  1.801675373
     ( 0.960889241)     ( 0.953405546)

 Bond angles

  1-2-3  103.12770857

 NUCLEAR CHARGE:                   10
 NUMBER OF PRIMITIVE AOS:          41
 NUMBER OF SYMMETRY AOS:           40
 NUMBER OF CONTRACTIONS:           24   (  18A'  +   6A"  )
 NUMBER OF CORE ORBITALS:           1   (   1A'  +   0A"  )
 NUMBER OF VALENCE ORBITALS:        6   (   5A'  +   1A"  )


 NUCLEAR REPULSION ENERGY    9.19894848


 Eigenvalues of metric

         1 0.175E-01 0.446E-01 0.506E-01 0.983E-01 0.159E+00 0.170E+00 0.223E+00 0.514E+00
         2 0.183E+00 0.520E+00 0.619E+00 0.110E+01 0.133E+01 0.225E+01


 Contracted 2-electron integrals neglected if value below      1.0D-16
 AO integral compression algorithm  1   Integral accuracy      1.0D-16

     0.524 MB (compressed) written to integral file (100.0%)

     Node minimum: 0.524 MB, node maximum: 0.524 MB


 NUMBER OF SORTED TWO-ELECTRON INTEGRALS:      25710.     BUFFER LENGTH:  32768
 NUMBER OF SEGMENTS:   1  SEGMENT LENGTH:      25710      RECORD LENGTH: 524288

 Memory used in sort:       0.58 MW

 SORT1 READ       33005. AND WROTE       23239. INTEGRALS IN      1 RECORDS. CPU TIME:     0.01 SEC, REAL TIME:     0.00 SEC
 SORT2 READ       23239. AND WROTE       25710. INTEGRALS IN      2 RECORDS. CPU TIME:     0.00 SEC, REAL TIME:     0.00 SEC

 FILE SIZES:   FILE 1:     2.8 MBYTE,  FILE 4:     4.2 MBYTE,   TOTAL:      7.0 MBYTE

 OPERATOR DM      FOR CENTER  0  COORDINATES:    0.000000    0.000000    0.000000


 **********************************************************************************************************************************
 DATASETS  * FILE   NREC   LENGTH (MB)   RECORD NAMES
              1      19        2.79       500      610      700      900      950      970     1000      129      960     1100   
                                          VAR    BASINP    GEOM    SYMINP    ZMAT    AOBASIS   BASIS     P2S    ABASIS      S 
                                         1400     1410     1200     1210     1080     1600     1650     1300     1700   
                                           T        V       H0       H01     AOSYM     SMH    MOLCAS    ERIS     OPER   

 PROGRAMS   *        TOTAL       INT
 CPU TIMES  *         0.13      0.09
 REAL TIME  *         0.29 SEC
 DISK USED  *         8.05 MB      
 GA USED    *         0.00 MB       (max)       0.00 MB       (current)
 **********************************************************************************************************************************

1PROGRAM * RHF-SCF (CLOSED SHELL)       Authors: W. Meyer, H.-J. Werner


 NUMBER OF ELECTRONS:       5+    5-
 CONVERGENCE THRESHOLDS:    1.00E-10 (Density)    1.00E-13 (Energy)
 MAX. NUMBER OF ITERATIONS:      200
 INTERPOLATION TYPE:            DIIS
 INTERPOLATION STEPS:              2 (START)      1 (STEP)
 LEVEL SHIFTS:                  0.00 (CLOSED)  0.00 (OPEN) 



 Orbital guess generated from atomic densities. Full valence occupancy:    6   1

 Molecular orbital dump at record        2100.2

 Initial alpha occupancy:   4   1
 Initial beta  occupancy:   4   1
 Wave function symmetry:    1

 ITERATION    DDIFF          GRAD             ENERGY        2-EL.EN.            DIPOLE MOMENTS         DIIS
    1      0.000D+00      0.000D+00       -75.98834312     77.868517    0.00000   -0.01008    1.15586    0
    2      0.000D+00      0.310D-01       -76.01807615     74.623581    0.00000   -0.00372    0.75813    1
    3      0.578D-01      0.162D-01       -76.02650766     75.941062    0.00000   -0.00442    0.83363    2
    4      0.189D-01      0.183D-02       -76.02672307     75.844143    0.00000   -0.00378    0.82152    3
    5      0.352D-02      0.488D-03       -76.02674051     75.856197    0.00000   -0.00354    0.81794    4
    6      0.110D-02      0.768D-04       -76.02674107     75.856162    0.00000   -0.00347    0.81733    5
    7      0.173D-03      0.111D-04       -76.02674108     75.856100    0.00000   -0.00346    0.81722    6
    8      0.310D-04      0.910D-06       -76.02674108     75.856087    0.00000   -0.00346    0.81721    5
    9      0.201D-05      0.116D-06       -76.02674108     75.856093    0.00000   -0.00346    0.81721    5
   10      0.257D-06      0.377D-07       -76.02674108     75.856090    0.00000   -0.00346    0.81721    5
   11      0.609D-07      0.974D-08       -76.02674108     75.856091    0.00000   -0.00346    0.81721    5
   12      0.196D-07      0.215D-08       -76.02674108     75.856091    0.00000   -0.00346    0.81721    5
   13      0.481D-08      0.418D-09       -76.02674108     75.856091    0.00000   -0.00346    0.81721    6
   14      0.974D-09      0.678D-10       -76.02674108     75.856091    0.00000   -0.00346    0.81721    6
   15      0.161D-09      0.113D-10       -76.02674108     75.856091    0.00000   -0.00346    0.81721    6
   16      0.260D-10      0.247D-11       -76.02674108     75.856091    0.00000   -0.00346    0.81721    0

 Final occupancy:   4   1

 !RHF STATE 1.1 Energy                -76.026741084306
 Nuclear energy                         9.19894848
 One-electron energy                 -123.15373490
 Two-electron energy                   37.92804534
 Virial quotient                       -1.00046619
 !RHF STATE 1.1 Dipole moment           0.00000000    -0.00345631     0.81721344
 Dipole moment /Debye                   0.00000000    -0.00878448     2.07701334

 Orbital energies:

         1.1          2.1          3.1          4.1          5.1          6.1
    -20.551161    -1.337872    -0.696695    -0.569436     0.185284     0.256439

         1.2          2.2          3.2
     -0.493658     1.200011     1.480939


 **********************************************************************************************************************************
 DATASETS  * FILE   NREC   LENGTH (MB)   RECORD NAMES
              1      19        2.79       500      610      700      900      950      970     1000      129      960     1100   
                                          VAR    BASINP    GEOM    SYMINP    ZMAT    AOBASIS   BASIS     P2S    ABASIS      S 
                                         1400     1410     1200     1210     1080     1600     1650     1300     1700   
                                           T        V       H0       H01     AOSYM     SMH    MOLCAS    ERIS     OPER   

              2       3        0.30       700     1000     2100   
                                         GEOM     BASIS     RHF  

 PROGRAMS   *        TOTAL       RHF       INT
 CPU TIMES  *         0.14      0.01      0.09
 REAL TIME  *         0.32 SEC
 DISK USED  *         8.05 MB      
 GA USED    *         0.00 MB       (max)       0.00 MB       (current)
 **********************************************************************************************************************************
 SETTING SCFDZ          =       -76.02674108  AU                              


1PROGRAM * CCSD (Closed-shell coupled cluster)     Authors: C. Hampel, H.-J. Werner, 1991, M. Deegan, P.J. Knowles, 1992


 Convergence thresholds:  THRVAR = 1.00D-08  THRDEN = 1.00D-12

 CCSD(T)     terms to be evaluated (factor= 1.000)


 Number of core orbitals:           1 (   1   0 )
 Number of closed-shell orbitals:   4 (   3   1 )
 Number of external orbitals:      19 (  14   5 )

 Molecular orbitals read from record     2100.2  Type=RHF/CANONICAL (state 1.1)

 Number of N-1 electron functions:               4
 Number of N-2 electron functions:              10
 Number of singly external CSFs:                47
 Number of doubly external CSFs:              1563
 Total number of CSFs:                        1611

 Length of J-op  integral file:               0.00 MB
 Length of K-op  integral file:               0.06 MB
 Length of 3-ext integral record:             0.00 MB

 Memory could be reduced to 0.31 Mwords without degradation in triples

 Integral transformation finished. Total CPU:   0.00 sec, npass=  1  Memory used:   0.09 MW

 Reference energy:                    -76.02674108

 MP2 singlet pair energy:              -0.12563613
 MP2 triplet pair energy:              -0.07612470
 MP2 correlation energy:               -0.20176083
 MP2 total energy:                    -76.22850192

 SCS-MP2 correlation energy:           -0.19812984   (PS=  1.200000  PT=  0.333333)
 SCS-MP2 total energy:                -76.22487092

 ITER.      SQ.NORM     CORR.ENERGY   TOTAL ENERGY   ENERGY CHANGE        DEN1      VAR(S)    VAR(P)  DIIS     TIME
   1      1.05282450    -0.21031463   -76.23705571    -0.00855379    -0.00499071  0.27D-03  0.67D-03  1  1     0.00
   2      1.05595717    -0.21123702   -76.23797811    -0.00092240    -0.00386496  0.51D-05  0.56D-04  2  2     0.01
   3      1.05672549    -0.21131011   -76.23805120    -0.00007309    -0.00058497  0.19D-05  0.23D-05  3  3     0.01
   4      1.05689786    -0.21131272   -76.23805380    -0.00000260    -0.00009486  0.11D-06  0.13D-06  4  4     0.01
   5      1.05692952    -0.21131130   -76.23805238     0.00000142    -0.00001492  0.31D-07  0.70D-08  5  5     0.01
   6      1.05693376    -0.21131124   -76.23805233     0.00000006     0.00000039  0.39D-08  0.75D-09  6  6     0.01
   7      1.05693627    -0.21131119   -76.23805227     0.00000005    -0.00000025  0.15D-09  0.62D-10  6  1     0.01
   8      1.05693663    -0.21131114   -76.23805223     0.00000005     0.00000006  0.36D-11  0.43D-11  6  2     0.01
   9      1.05693673    -0.21131113   -76.23805222     0.00000001    -0.00000005  0.86D-13  0.26D-12  6  3     0.01
  10      1.05693675    -0.21131113   -76.23805221     0.00000000    -0.00000002  0.17D-14  0.73D-14  6  4     0.02
  11      1.05693676    -0.21131113   -76.23805221     0.00000000    -0.00000000  0.13D-15  0.35D-15  6  5     0.02
  12      1.05693676    -0.21131113   -76.23805221     0.00000000    -0.00000000  0.67D-17  0.22D-16  6  6     0.02
  13      1.05693676    -0.21131113   -76.23805221    -0.00000000    -0.00000000  0.21D-17  0.12D-17  6  1     0.02
  14      1.05693676    -0.21131113   -76.23805221     0.00000000    -0.00000000  0.50D-18  0.13D-18  6  2     0.02
  15      1.05693676    -0.21131113   -76.23805221     0.00000000    -0.00000000  0.88D-19  0.13D-19  6  3     0.02
  16      1.05693676    -0.21131113   -76.23805221     0.00000000    -0.00000000  0.51D-20  0.19D-20  6  4     0.02
  17      1.05693676    -0.21131113   -76.23805221     0.00000000     0.00000000  0.29D-21  0.18D-21  6  5     0.03

 Norm of t1 vector:      0.02359116      S-energy:    -0.00000000      T1 diagnostic:  0.00589779
                                                                       D1 diagnostic:  0.01108515

 Doubles amplitudes (print threshold =  0.500E-01):

         I         J         SYM. A    SYM. B    A         B      T(IJ, AB)

         4         4         2         2         1         1     -0.05139109


 Total CPU time for triples:      0.00 sec


 RESULTS
 =======

  Reference energy                    -76.026741084306
  CCSD singlet pair energy             -0.143311462653
  CCSD triplet pair energy             -0.067999667773
  CCSD correlation energy              -0.211311130426

  Triples (T) contribution             -0.003047619805
  Total correlation energy             -0.214358750232

  CCSD total energy                   -76.238052214733
  CCSD[T] energy                      -76.241185365204
  CCSD-T energy                       -76.241044792478
 !CCSD(T) total energy                -76.241099834538

 Timing summary (sec):

 STEP                 CPU(USER)    SYS     CPU(TOT)    WALL
 CCSD iterations         0.03      0.01      0.04      0.05

 Program statistics:

 Available memory in ccsd:               999999836
 Min. memory needed in ccsd:                 10413
 Max. memory used in ccsd:                   11148
 Max. memory used in cckext:                 44198 (17 integral passes)



 **********************************************************************************************************************************
 DATASETS  * FILE   NREC   LENGTH (MB)   RECORD NAMES
              1      20        2.90       500      610      700      900      950      970     1000      129      960     1100   
                                          VAR    BASINP    GEOM    SYMINP    ZMAT    AOBASIS   BASIS     P2S    ABASIS      S 
                                         1400     1410     1200     1210     1080     1600     1650     1300     1700     1380   
                                           T        V       H0       H01     AOSYM     SMH    MOLCAS    ERIS     OPER     JKOP   

              2       3        0.30       700     1000     2100   
                                         GEOM     BASIS     RHF  

 PROGRAMS   *        TOTAL   CCSD(T)       RHF       INT
 CPU TIMES  *         0.18      0.04      0.01      0.09
 REAL TIME  *         0.40 SEC
 DISK USED  *         8.05 MB      
 GA USED    *         0.00 MB       (max)       0.00 MB       (current)
 **********************************************************************************************************************************
 SETTING MP2DZ          =       -76.22850192  AU                              
 SETTING CCSDDZ         =       -76.23805221  AU                              
 SETTING CCSDT_DZ       =       -76.24109983  AU                              
 SCFDZ            =     -76.026741084306394 AU
 MP2DZ            =     -76.228501916633576 AU
 CCSDDZ           =     -76.238052214732832 AU
 CCSDT_DZ         =     -76.241099834538232 AU

        CCSD(T)         RHF-SCF 
    -76.24109983    -76.02674108
 **********************************************************************************************************************************
 Variable memory released
