
    -----------------------------------------------------------------------
          Psi4: An Open-Source Ab Initio Electronic Structure Package
                               Psi4 1.4a2.dev629 

                         Git: Rev {master} 2938fc2 dirty


    D. G. A. Smith, L. A. Burns, A. C. Simmonett, R. M. Parrish,
    M. C. Schieber, R. Galvelis, P. Kraus, H. Kruse, R. Di Remigio,
    A. Alenaizan, A. M. James, S. Lehtola, J. P. Misiewicz, M. Scheurer,
    R. A. Shaw, J. B. Schriber, Y. Xie, Z. L. Glick, D. A. Sirianni,
    J. S. O'Brien, J. M. Waldrop, A. Kumar, E. G. Hohenstein,
    B. P. Pritchard, B. R. Brooks, H. F. Schaefer III, A. Yu. Sokolov,
    K. Patkowski, A. E. DePrince III, U. Bozkaya, R. A. King,
    F. A. Evangelista, J. M. Turney, T. D. Crawford, C. D. Sherrill,
    J. Chem. Phys. 152(18) 184108 (2020). https://doi.org/10.1063/5.0006002

                            Additional Code Authors
    E. T. Seidl, C. L. Janssen, E. F. Valeev, M. L. Leininger,
    J. F. Gonthier, R. M. Richard, H. R. McAlexander, M. Saitow, X. Wang,
    P. Verma, and M. H. Lechner

             Previous Authors, Complete List of Code Contributors,
                       and Citations for Specific Modules
    https://github.com/psi4/psi4/blob/master/codemeta.json
    https://github.com/psi4/psi4/graphs/contributors
    http://psicode.org/psi4manual/master/introduction.html#citing-psifour

    -----------------------------------------------------------------------


    Psi4 started on: Saturday, 22 October 2022 01:51AM

    Process ID: 27321
    Host:       n082
    PSIDATADIR: /opt/psi/4/master/share/psi4
    Memory:     500.0 MiB
    Threads:    4
    
  ==> Input File <==

--------------------------------------------------------------------------
# o-Benzyne preliminary computations

memory 14 gb

molecule {
  0 1
  units bohr
 H   -0.0000000000   -1.4177461021    0.9995150687
 O    0.0000000000    0.0000000000   -0.1326865174
 H    0.0000000000    1.4177461021    0.9995150687
}

set {
  basis 6-31g*
  reference rhf
  e_convergence 10 
  d_convergence 10
  r_convergence 8
  maxiter 300
  freeze_core True
}

e, wfn = energy('b3lyp', return_wfn = True)
psi4.print_out('Giraffe The Energy is %.12f \n'%(e))
--------------------------------------------------------------------------

  Memory set to  13.039 GiB by Python driver.

Scratch directory: /tmp/794765.7.gen6.q/

*** tstart() called on n082
*** at Sat Oct 22 01:51:52 2022

   => Loading Basis Set <=

    Name: 6-31G*
    Role: ORBITAL
    Keyword: BASIS
    atoms 1, 3 entry H          line    44 file /opt/psi/4/master/share/psi4/basis/6-31gs.gbs 
    atoms 2    entry O          line   145 file /opt/psi/4/master/share/psi4/basis/6-31gs.gbs 


         ---------------------------------------------------------
                                   SCF
               by Justin Turney, Rob Parrish, Andy Simmonett
                          and Daniel G. A. Smith
                              RKS Reference
                        4 Threads,  13351 MiB Core
         ---------------------------------------------------------

  ==> Geometry <==

    Molecular point group: c2v
    Full point group: C2v

    Geometry (in Bohr), charge = 0, multiplicity = 1:

       Center              X                  Y                   Z               Mass       
    ------------   -----------------  -----------------  -----------------  -----------------
         H            0.000000000000    -1.417746102100     1.005491389055     1.007825032230
         O            0.000000000000     0.000000000000    -0.126710197045    15.994914619570
         H           -0.000000000000     1.417746102100     1.005491389055     1.007825032230

  Running in c2v symmetry.

  Rotational constants: A =     26.23475  B =     14.85875  C =      9.48606 [cm^-1]
  Rotational constants: A = 786498.10830  B = 445454.01035  C = 284385.02696 [MHz]
  Nuclear repulsion =    9.171232819072490

  Charge       = 0
  Multiplicity = 1
  Electrons    = 10
  Nalpha       = 5
  Nbeta        = 5

  ==> Algorithm <==

  SCF Algorithm Type is DF.
  DIIS enabled.
  MOM disabled.
  Fractional occupation disabled.
  Guess Type is SAD.
  Energy threshold   = 1.00e-10
  Density threshold  = 1.00e-10
  Integral threshold = 0.00e+00

  ==> Primary Basis <==

  Basis Set: 6-31G*
    Blend: 6-31G*
    Number of shells: 10
    Number of basis function: 19
    Number of Cartesian functions: 19
    Spherical Harmonics?: false
    Max angular momentum: 2

  ==> DFT Potential <==

   => Composite Functional: B3LYP <= 

    B3LYP Hyb-GGA Exchange-Correlation Functional

    P. J. Stephens, F. J. Devlin, C. F. Chabalowski, and M. J. Frisch, J. Phys. Chem. 98, 11623 (1994)

    Deriv               =              1
    GGA                 =           TRUE
    Meta                =          FALSE

    Exchange Hybrid     =           TRUE
    MP2 Hybrid          =          FALSE

   => Exchange Functionals <=

    0.0800   Slater exchange
    0.7200         Becke 88

   => Exact (HF) Exchange <=

    0.2000               HF 

   => Correlation Functionals <=

    0.1900   Vosko, Wilk & Nusair (VWN5_RPA)
    0.8100   Lee, Yang & Parr

   => Molecular Quadrature <=

    Radial Scheme          =       TREUTLER
    Pruning Scheme         =           NONE
    Nuclear Scheme         =       TREUTLER

    BS radius alpha        =              1
    Pruning alpha          =              1
    Radial Points          =             75
    Spherical Points       =            302
    Total Points           =          65914
    Total Blocks           =            550
    Max Points             =            254
    Max Functions          =             19
    Weights Tolerance      =       1.00E-15

   => Loading Basis Set <=

    Name: (6-31G* AUX)
    Role: JKFIT
    Keyword: DF_BASIS_SCF
    atoms 1, 3 entry H          line    51 file /opt/psi/4/master/share/psi4/basis/cc-pvdz-jkfit.gbs 
    atoms 2    entry O          line   221 file /opt/psi/4/master/share/psi4/basis/cc-pvdz-jkfit.gbs 

  ==> Integral Setup <==

  DFHelper Memory: AOs need 0.001 GiB; user supplied 9.743 GiB. Using in-core AOs.

  ==> MemDFJK: Density-Fitted J/K Matrices <==

    J tasked:                   Yes
    K tasked:                   Yes
    wK tasked:                   No
    OpenMP threads:               4
    Memory [MiB]:              9976
    Algorithm:                 Core
    Schwarz Cutoff:           1E-12
    Mask sparsity (%):       0.0000
    Fitting Condition:        1E-10

   => Auxiliary Basis Set <=

  Basis Set: (6-31G* AUX)
    Blend: CC-PVDZ-JKFIT
    Number of shells: 42
    Number of basis function: 131
    Number of Cartesian functions: 131
    Spherical Harmonics?: false
    Max angular momentum: 3

  Cached 100.0% of DFT collocation blocks in 0.036 [GiB].

  Minimum eigenvalue in the overlap matrix is 2.1588011263E-02.
  Reciprocal condition number of the overlap matrix is 5.0557129724E-03.
    Using symmetric orthogonalization.

  ==> Pre-Iterations <==

  SCF Guess: Superposition of Atomic Densities via on-the-fly atomic UHF (no occupation information).

   -------------------------
    Irrep   Nso     Nmo    
   -------------------------
     A1        10      10 
     A2         1       1 
     B1         3       3 
     B2         5       5 
   -------------------------
    Total      19      19
   -------------------------

  ==> Iterations <==

                           Total Energy        Delta E     RMS |[F,P]|

   @DF-RKS iter SAD:   -76.11456888051327   -7.61146e+01   0.00000e+00 
   @DF-RKS iter   1:   -76.26238113246367   -1.47812e-01   5.43722e-02 DIIS
   @DF-RKS iter   2:   -76.11141480373776    1.50966e-01   7.70583e-02 DIIS
   @DF-RKS iter   3:   -76.40873537467242   -2.97321e-01   8.26128e-04 DIIS
   @DF-RKS iter   4:   -76.40877923626768   -4.38616e-05   2.22428e-04 DIIS
   @DF-RKS iter   5:   -76.40878149009906   -2.25383e-06   4.15550e-05 DIIS
   @DF-RKS iter   6:   -76.40878157605582   -8.59568e-08   1.36694e-06 DIIS
   @DF-RKS iter   7:   -76.40878157616510   -1.09281e-10   6.28466e-08 DIIS
   @DF-RKS iter   8:   -76.40878157616547   -3.69482e-13   8.24785e-09 DIIS
   @DF-RKS iter   9:   -76.40878157616547    0.00000e+00   4.59942e-10 DIIS
   @DF-RKS iter  10:   -76.40878157616547    0.00000e+00   1.10924e-11 DIIS
  Energy and wave function converged.


  ==> Post-Iterations <==

    Orbital Energies [Eh]
    ---------------------

    Doubly Occupied:                                                      

       1A1   -19.137138     2A1    -1.002437     1B2    -0.518858  
       3A1    -0.374599     1B1    -0.292114  

    Virtual:                                                              

       4A1     0.064804     2B2     0.150995     3B2     0.772997  
       5A1     0.870814     2B1     0.890494     6A1     0.898006  
       4B2     1.067174     7A1     1.198021     8A1     1.724710  
       1A2     1.745291     3B1     1.777571     9A1     2.290964  
       5B2     2.590211    10A1     3.554677  

    Final Occupation by Irrep:
             A1    A2    B1    B2 
    DOCC [     3,    0,    1,    1 ]

  @DF-RKS Final Energy:   -76.40878157616547

   => Energetics <=

    Nuclear Repulsion Energy =              9.1712328190724897
    One-Electron Energy =                -123.0813130954868768
    Two-Electron Energy =                  45.0629315021896204
    DFT Exchange-Correlation Energy =      -7.5616328019406867
    Empirical Dispersion Energy =           0.0000000000000000
    VV10 Nonlocal Energy =                  0.0000000000000000
    Total Energy =                        -76.4087815761654525

Computation Completed


Properties will be evaluated at   0.000000,   0.000000,   0.000000 [a0]

Properties computed using the SCF density matrix

  Nuclear Dipole Moment: [e a0]
     X:     0.0000      Y:     0.0000      Z:     0.9973

  Electronic Dipole Moment: [e a0]
     X:     0.0000      Y:     0.0000      Z:    -0.1688

  Dipole Moment: [e a0]
     X:     0.0000      Y:     0.0000      Z:     0.8285     Total:     0.8285

  Dipole Moment: [D]
     X:     0.0000      Y:     0.0000      Z:     2.1059     Total:     2.1059


*** tstop() called on n082 at Sat Oct 22 01:51:53 2022
Module time:
	user time   =       2.96 seconds =       0.05 minutes
	system time =       0.04 seconds =       0.00 minutes
	total time  =          1 seconds =       0.02 minutes
Total time:
	user time   =       2.96 seconds =       0.05 minutes
	system time =       0.04 seconds =       0.00 minutes
	total time  =          1 seconds =       0.02 minutes
Giraffe The Energy is -76.408781576165 

    Psi4 stopped on: Saturday, 22 October 2022 01:51AM
    Psi4 wall time for execution: 0:00:00.85

*** Psi4 exiting successfully. Buy a developer a beer!
