
 Primary working directories    : /tmp/601556.4.gen4.q
 Secondary working directories  : /tmp/601556.4.gen4.q
 Wavefunction directory         : /home/vulcan/mel64643/wfu/
 Main file repository           : /tmp/601556.4.gen4.q/

 ARCHNAME  : Linux/x86_64
 FC        : /opt/intel/compilers_and_libraries_2016.1.150/linux/bin/intel64/ifort
 FCVERSION : 16.0.1
 BLASLIB   : -mkl
 id        : ccgc

 Nodes     nprocs
 n061         1
 ga_uses_ma=false, calling ma_init with nominal heap.
 GA-space will be limited to   8.0 MW (determined by -G option)

 Using customized tuning parameters: mindgm=10; mindgv=16; mindgc=4; mindgr=1; noblas=0; mincuda=1000; minvec=7
 default implementation of scratch files=df  

 ***,Optimization of min3
 memory,1000,m
 gthresh,energy=1.0d-12,orbital=1.0d-10,oneint=1.0d-16,twoint=1.0d-16,optgrad=1.0d-6,compress=1.0d-13
 geomtyp=xyz
 
  bohr
  geometry = {
  6
  arbitrary comment
  C   -1.3752330829   -0.0211311380    0.0000016102
  O    1.3110255440    0.1214790836    0.0000013462
  H   -2.0843716006    1.9103810582   -0.0000842513
  H   -2.1050200009   -0.9798137720    1.6815433354
  H   -2.1050168468   -0.9799387167   -1.6814698734
  H    1.9348918272   -1.5811086351   -0.0000005771
 }
 
 basis=cc-pvtz
 {rhf;maxit,200}
 {ccsd(t);maxit,200}

 Variables initialized (661), CPU time= 0.00 sec
 Commands  initialized (458), CPU time= 0.00 sec, 486 directives.
 Default parameters read. Elapsed time= 0.05 sec

 Checking input...
 Passed
1


                                         ***  PROGRAM SYSTEM MOLPRO  ***
                         Copyright, University College Cardiff Consultants Limited, 2008

                                    Version 2010.1 linked May 16 2016 07:17:05


 **********************************************************************************************************************************
 LABEL *   Optimization of min3                                                          
 Linux-4.4.3/n061(x86_64) 64 bit mpp version                                             DATE: 06-Nov-21          TIME: 15:41:16  
 **********************************************************************************************************************************

 SHA1:             9e8077add272b0f3cad6f7df79ec5211205f459d
 **********************************************************************************************************************************

 THRESHOLDS:

 ZERO    =  1.00D-12  ONEINT  =  1.00D-16  TWOINT  =  1.00D-16  PREFAC  =  1.00D-14  LOCALI  =  1.00D-09  EORDER  =  1.00D-04
 ENERGY  =  1.00D-12  ETEST   =  0.00D+00  EDENS   =  0.00D+00  THRDEDEF=  1.00D-06  GRADIENT=  1.00D-02  STEP    =  1.00D-03
 ORBITAL =  1.00D-10  CIVEC   =  1.00D-05  COEFF   =  1.00D-04  PRINTCI =  5.00D-02  PUNCHCI =  9.90D+01  OPTGRAD =  1.00D-06
 OPTENERG=  1.00D-06  OPTSTEP =  3.00D-04  THRGRAD =  1.00D-10  COMPRESS=  1.00D-13  VARMIN  =  1.00D-07  VARMAX  =  1.00D-03
 THRDOUB =  0.00D+00  THRDIV  =  1.00D-05  THRRED  =  1.00D-07  THRPSP  =  1.00D+00  THRDC   =  1.00D-10  THRCS   =  1.00D-10
 THRNRM  =  1.00D-08  THREQ   =  0.00D+00  THRDE   =  1.00D+00  THRREF  =  1.00D-05  SPARFAC =  1.00D+00  THRDLP  =  1.00D-07
 THRDIA  =  1.00D-10  THRDLS  =  1.00D-07  THRGPS  =  0.00D+00  THRKEX  =  0.00D+00  THRDIS  =  2.00D-01  THRVAR  =  1.00D-10
 THRLOC  =  1.00D-06  THRGAP  =  1.00D-06  THRLOCT = -1.00D+00  THRGAPT = -1.00D+00  THRORB  =  1.00D-06  THRMLTP =  0.00D+00
 THRCPQCI=  1.00D-10  KEXTA   =  0.00D+00  THRCOARS=  0.00D+00  SYMTOL  =  1.00D-06  GRADTOL =  1.00D-06  THROVL  =  1.00D-08
 THRORTH =  1.00D-08  GRID    =  1.00D-06  GRIDMAX =  1.00D-03  DTMAX   =  0.00D+00

 SETTING GEOMTYP        =    XYZ
 ZUNIT=BOHR
 

 Variable memory set to 1000000000 words,  buffer space   230000 words

 SETTING BASIS          =    CC-PVTZ


 Recomputing integrals since basis changed


 Using spherical harmonics

 Library entry C      S cc-pVTZ              selected for orbital group  1
 Library entry C      P cc-pVTZ              selected for orbital group  1
 Library entry C      D cc-pVTZ              selected for orbital group  1
 Library entry C      F cc-pVTZ              selected for orbital group  1
 Library entry O      S cc-pVTZ              selected for orbital group  2
 Library entry O      P cc-pVTZ              selected for orbital group  2
 Library entry O      D cc-pVTZ              selected for orbital group  2
 Library entry O      F cc-pVTZ              selected for orbital group  2
 Library entry H      S cc-pVTZ              selected for orbital group  3
 Library entry H      P cc-pVTZ              selected for orbital group  3
 Library entry H      D cc-pVTZ              selected for orbital group  3

1PROGRAM * SEWARD (Integral evaluation for generally contracted gaussian basis sets)     Author: Roland Lindh, 1990

 Geometry written to block  1 of record 700


 Point group  C1  



 ATOMIC COORDINATES

 NR  ATOM    CHARGE       X              Y              Z

   1  C       6.00   -1.375233083   -0.021131138    0.000001610
   2  O       8.00    1.311025544    0.121479084    0.000001346
   3  H       1.00   -2.084371601    1.910381058   -0.000084251
   4  H       1.00   -2.105020001   -0.979813772    1.681543335
   5  H       1.00   -2.105016847   -0.979938717   -1.681469873
   6  H       1.00    1.934891827   -1.581108635   -0.000000577

 Bond lengths in Bohr (Angstrom)

 1-2  2.690041465  1-3  2.057575469  1-4  2.068633344  1-5  2.068633043  2-6  1.813288195
     ( 1.423508635)     ( 1.088822044)     ( 1.094673619)     ( 1.094673460)     ( 0.959550786)

 Bond angles

  1-2-6  107.08505497   2-1-3  107.12137674   2-1-4  112.13930092   2-1-5  112.13939833

  3-1-4  108.26971424   3-1-5  108.26907647   4-1-5  108.75237499

 NUCLEAR CHARGE:                   18
 NUMBER OF PRIMITIVE AOS:         162
 NUMBER OF SYMMETRY AOS:          148
 NUMBER OF CONTRACTIONS:          116   ( 116A   )
 NUMBER OF CORE ORBITALS:           2   (   2A   )
 NUMBER OF VALENCE ORBITALS:       12   (  12A   )


 NUCLEAR REPULSION ENERGY   40.26948697


 Eigenvalues of metric

         1 0.133E-02 0.180E-02 0.191E-02 0.236E-02 0.330E-02 0.462E-02 0.740E-02 0.101E-01


 Contracted 2-electron integrals neglected if value below      1.0D-16
 AO integral compression algorithm  1   Integral accuracy      1.0D-16

     196.346 MB (compressed) written to integral file ( 92.2%)

     Node minimum: 196.346 MB, node maximum: 196.346 MB


 NUMBER OF SORTED TWO-ELECTRON INTEGRALS:   23028291.     BUFFER LENGTH:  32768
 NUMBER OF SEGMENTS:   2  SEGMENT LENGTH:   15997996      RECORD LENGTH: 524288

 Memory used in sort:      16.56 MW

 SORT1 READ    26631627. AND WROTE    22813253. INTEGRALS IN     67 RECORDS. CPU TIME:     0.26 SEC, REAL TIME:     0.39 SEC
 SORT2 READ    22813253. AND WROTE    23028291. INTEGRALS IN    749 RECORDS. CPU TIME:     0.22 SEC, REAL TIME:     0.32 SEC

 FILE SIZES:   FILE 1:   175.9 MBYTE,  FILE 4:   281.1 MBYTE,   TOTAL:    457.0 MBYTE

 OPERATOR DM      FOR CENTER  0  COORDINATES:    0.000000    0.000000    0.000000


 **********************************************************************************************************************************
 DATASETS  * FILE   NREC   LENGTH (MB)   RECORD NAMES
              1      19      176.10       500      610      700      900      950      970     1000      129      960     1100   
                                          VAR    BASINP    GEOM    SYMINP    ZMAT    AOBASIS   BASIS     P2S    ABASIS      S 
                                         1400     1410     1200     1210     1080     1600     1650     1300     1700   
                                           T        V       H0       H01     AOSYM     SMH    MOLCAS    ERIS     OPER   

 PROGRAMS   *        TOTAL       INT
 CPU TIMES  *         1.61      1.57
 REAL TIME  *         2.13 SEC
 DISK USED  *       653.98 MB      
 GA USED    *         0.00 MB       (max)       0.00 MB       (current)
 **********************************************************************************************************************************

1PROGRAM * RHF-SCF (CLOSED SHELL)       Authors: W. Meyer, H.-J. Werner


 NUMBER OF ELECTRONS:       9+    9-    SPACE SYMMETRY=1    SPIN SYMMETRY: Singlet 
 CONVERGENCE THRESHOLDS:    1.00E-10 (Density)    1.00E-13 (Energy)
 MAX. NUMBER OF ITERATIONS:      200
 INTERPOLATION TYPE:            DIIS
 INTERPOLATION STEPS:              2 (START)      1 (STEP)
 LEVEL SHIFTS:                  0.00 (CLOSED)  0.00 (OPEN) 



 Orbital guess generated from atomic densities. Full valence occupancy:   14

 Molecular orbital dump at record        2100.2

 ITERATION    DDIFF          GRAD             ENERGY        2-EL.EN.            DIPOLE MOMENTS         DIIS
    1      0.000D+00      0.000D+00      -115.05301515    164.361187   -0.49646   -0.90609   -0.00000    0
    2      0.000D+00      0.475D-02      -115.08134893    161.917222   -0.30505   -0.50164   -0.00000    1
    3      0.785D-02      0.255D-02      -115.08846989    163.086013   -0.39765   -0.59950   -0.00000    2
    4      0.258D-02      0.498D-03      -115.08897740    162.930996   -0.39055   -0.59350   -0.00000    3
    5      0.686D-03      0.982D-04      -115.08900847    162.938120   -0.39415   -0.58874   -0.00000    4
    6      0.186D-03      0.186D-04      -115.08900984    162.936662   -0.39454   -0.58873   -0.00000    5
    7      0.480D-04      0.394D-05      -115.08900990    162.935760   -0.39473   -0.58852   -0.00000    6
    8      0.911D-05      0.119D-05      -115.08900990    162.936222   -0.39476   -0.58850   -0.00000    7
    9      0.231D-05      0.323D-06      -115.08900990    162.936116   -0.39477   -0.58849   -0.00000    6
   10      0.765D-06      0.595D-07      -115.08900990    162.936127   -0.39477   -0.58849   -0.00000    6
   11      0.158D-06      0.148D-07      -115.08900990    162.936130   -0.39477   -0.58849   -0.00000    6
   12      0.297D-07      0.625D-08      -115.08900990    162.936129   -0.39477   -0.58849   -0.00000    7
   13      0.110D-07      0.170D-08      -115.08900990    162.936129   -0.39477   -0.58849   -0.00000    7
   14      0.346D-08      0.355D-09      -115.08900990    162.936129   -0.39477   -0.58849   -0.00000    7
   15      0.857D-09      0.910D-10      -115.08900990    162.936129   -0.39477   -0.58849   -0.00000    7
   16      0.187D-09      0.227D-10      -115.08900990    162.936129   -0.39477   -0.58849   -0.00000    7
   17      0.528D-10      0.972D-11      -115.08900990    162.936129   -0.39477   -0.58849   -0.00000    0

 Final occupancy:   9

 !RHF STATE 1.1 Energy               -115.089009900962
 Nuclear energy                        40.26948697
 One-electron energy                 -236.82656133
 Two-electron energy                   81.46806446
 Virial quotient                       -1.00132737
 !RHF STATE 1.1 Dipole moment          -0.39477401    -0.58848594    -0.00000310
 Dipole moment /Debye                  -1.00334973    -1.49568410    -0.00000789

 Orbital energies:

         1.1          2.1          3.1          4.1          5.1          6.1          7.1          8.1          9.1         10.1
    -20.552685   -11.270038    -1.353324    -0.923056    -0.687198    -0.617356    -0.589614    -0.502627    -0.449320     0.138300

        11.1
      0.178635


 **********************************************************************************************************************************
 DATASETS  * FILE   NREC   LENGTH (MB)   RECORD NAMES
              1      19      176.10       500      610      700      900      950      970     1000      129      960     1100   
                                          VAR    BASINP    GEOM    SYMINP    ZMAT    AOBASIS   BASIS     P2S    ABASIS      S 
                                         1400     1410     1200     1210     1080     1600     1650     1300     1700   
                                           T        V       H0       H01     AOSYM     SMH    MOLCAS    ERIS     OPER   

              2       3        0.63       700     1000     2100   
                                         GEOM     BASIS     RHF  

 PROGRAMS   *        TOTAL       RHF       INT
 CPU TIMES  *         4.49      2.88      1.57
 REAL TIME  *         5.41 SEC
 DISK USED  *       653.98 MB      
 GA USED    *         0.00 MB       (max)       0.00 MB       (current)
 **********************************************************************************************************************************


1PROGRAM * CCSD (Closed-shell coupled cluster)     Authors: C. Hampel, H.-J. Werner, 1991, M. Deegan, P.J. Knowles, 1992


 Convergence thresholds:  THRVAR = 1.00D-08  THRDEN = 1.00D-12

 CCSD(T)     terms to be evaluated (factor= 1.000)


 Number of core orbitals:           2 (   2 )
 Number of closed-shell orbitals:   7 (   7 )
 Number of external orbitals:     107 ( 107 )

 Molecular orbitals read from record     2100.2  Type=RHF/CANONICAL (state 1.1)

 Number of N-1 electron functions:               7
 Number of N-2 electron functions:              28
 Number of singly external CSFs:               749
 Number of doubly external CSFs:            280875
 Total number of CSFs:                      281625

 Length of J-op  integral file:               0.00 MB
 Length of K-op  integral file:               0.96 MB
 Length of 3-ext integral record:             0.00 MB

 Memory could be reduced to 12.77 Mwords without degradation in triples

 Integral transformation finished. Total CPU:   0.60 sec, npass=  1  Memory used:   7.23 MW

 Reference energy:                   -115.08900990

 MP2 singlet pair energy:              -0.28110236
 MP2 triplet pair energy:              -0.14731847
 MP2 correlation energy:               -0.42842082
 MP2 total energy:                   -115.51743072

 SCS-MP2 correlation energy:           -0.42898765   (PS=  1.200000  PT=  0.333333)
 SCS-MP2 total energy:               -115.51799755

 ITER.      SQ.NORM     CORR.ENERGY   TOTAL ENERGY   ENERGY CHANGE        DEN1      VAR(S)    VAR(P)  DIIS     TIME
   1      1.11812233    -0.44569782  -115.53470772    -0.01727700    -0.00690859  0.12D-02  0.18D-02  1  1     1.24
   2      1.12601690    -0.44688247  -115.53589237    -0.00118465    -0.00946096  0.16D-04  0.22D-03  2  2     1.93
   3      1.12861672    -0.44695948  -115.53596938    -0.00007701    -0.00178815  0.76D-05  0.10D-04  3  3     2.62
   4      1.12925951    -0.44696091  -115.53597081    -0.00000142    -0.00033414  0.35D-06  0.84D-06  4  4     3.32
   5      1.12936559    -0.44696276  -115.53597266    -0.00000185    -0.00004014  0.11D-06  0.66D-07  5  5     4.02
   6      1.12939077    -0.44696057  -115.53597048     0.00000218    -0.00000751  0.18D-07  0.51D-08  6  6     4.72
   7      1.12939439    -0.44696048  -115.53597038     0.00000009    -0.00000027  0.26D-08  0.91D-09  6  2     5.41
   8      1.12939574    -0.44696043  -115.53597033     0.00000005     0.00000002  0.43D-09  0.11D-09  6  1     6.10
   9      1.12939649    -0.44696038  -115.53597028     0.00000005    -0.00000003  0.28D-10  0.17D-10  6  3     6.79
  10      1.12939656    -0.44696039  -115.53597029    -0.00000002     0.00000007  0.25D-11  0.19D-11  6  4     7.47
  11      1.12939643    -0.44696040  -115.53597030    -0.00000001     0.00000011  0.23D-12  0.12D-12  6  6     8.16
  12      1.12939641    -0.44696040  -115.53597031    -0.00000000     0.00000001  0.27D-13  0.11D-13  6  5     8.87
  13      1.12939641    -0.44696040  -115.53597031    -0.00000000    -0.00000000  0.56D-14  0.17D-14  6  2     9.56
  14      1.12939641    -0.44696040  -115.53597031     0.00000000    -0.00000000  0.43D-15  0.14D-15  6  1    10.25
  15      1.12939641    -0.44696040  -115.53597031    -0.00000000    -0.00000000  0.63D-16  0.28D-16  6  3    10.95
  16      1.12939641    -0.44696040  -115.53597031     0.00000000     0.00000000  0.18D-16  0.34D-17  6  4    11.65
  17      1.12939641    -0.44696040  -115.53597031    -0.00000000     0.00000000  0.12D-17  0.73D-18  6  5    12.34
  18      1.12939641    -0.44696040  -115.53597031    -0.00000000     0.00000000  0.94D-19  0.46D-19  6  6    13.03
  19      1.12939641    -0.44696040  -115.53597031     0.00000000    -0.00000000  0.19D-19  0.10D-19  6  2    13.73
  20      1.12939641    -0.44696040  -115.53597031     0.00000000    -0.00000000  0.13D-20  0.75D-21  6  1    14.42

 Norm of t1 vector:      0.04475739      S-energy:    -0.00000000      T1 diagnostic:  0.00845835
                                                                       D1 diagnostic:  0.01731625


 Total CPU time for triples:      7.27 sec


 RESULTS
 =======

  Reference energy                   -115.089009900962
  CCSD singlet pair energy             -0.313227726836
  CCSD triplet pair energy             -0.133732677603
  CCSD correlation energy              -0.446960404442

  Triples (T) contribution             -0.014807693546
  Total correlation energy             -0.461768097988

  CCSD total energy                  -115.535970305403
  CCSD[T] energy                     -115.551245663824
  CCSD-T energy                      -115.550511379925
 !CCSD(T) total energy               -115.550777998949

 Timing summary (sec):

 STEP                 CPU(USER)    SYS     CPU(TOT)    WALL
 Transformation          0.61      0.07      0.68      0.68
 CCSD iterations        13.81      0.74     14.55     14.60
 Triples                 7.27      0.13      7.40      7.42

 Program statistics:

 Available memory in ccsd:               999999704
 Min. memory needed in ccsd:                915605
 Max. memory used in ccsd:                 1141922
 Max. memory used in cckext:                874802 (20 integral passes)



 **********************************************************************************************************************************
 DATASETS  * FILE   NREC   LENGTH (MB)   RECORD NAMES
              1      20      215.51       500      610      700      900      950      970     1000      129      960     1100   
                                          VAR    BASINP    GEOM    SYMINP    ZMAT    AOBASIS   BASIS     P2S    ABASIS      S 
                                         1400     1410     1200     1210     1080     1600     1650     1300     1700     1380   
                                           T        V       H0       H01     AOSYM     SMH    MOLCAS    ERIS     OPER     JKOP   

              2       3        0.63       700     1000     2100   
                                         GEOM     BASIS     RHF  

 PROGRAMS   *        TOTAL   CCSD(T)       RHF       INT
 CPU TIMES  *        26.19     21.70      2.88      1.57
 REAL TIME  *        28.16 SEC
 DISK USED  *       653.98 MB      
 GA USED    *         0.00 MB       (max)       0.00 MB       (current)
 **********************************************************************************************************************************

        CCSD(T)         RHF-SCF 
   -115.55077800   -115.08900990
 **********************************************************************************************************************************
 Variable memory released
