
 Primary working directories    : /tmp/795519.34.gen4.q
 Secondary working directories  : /tmp/795519.34.gen4.q
 Wavefunction directory         : /home/vulcan/mel64643/wfu/
 Main file repository           : /tmp/795519.34.gen4.q/

 ARCHNAME  : Linux/x86_64
 FC        : /opt/intel/compilers_and_libraries_2016.1.150/linux/bin/intel64/ifort
 FCVERSION : 16.0.1
 BLASLIB   : -mkl
 id        : ccgc

 Nodes     nprocs
 n049         1
 ga_uses_ma=false, calling ma_init with nominal heap.
 GA-space will be limited to   8.0 MW (determined by -G option)

 Using customized tuning parameters: mindgm=10; mindgv=16; mindgc=4; mindgr=1; noblas=0; mincuda=1000; minvec=7
 default implementation of scratch files=df  

 ***,Optimization of min3
 memory,1000,m
 gthresh,energy=1.0d-12,orbital=1.0d-10,oneint=1.0d-16,twoint=1.0d-16,optgrad=1.0d-6,compress=1.0d-13
 geomtyp=xyz
 
  bohr
  geometry = {
  6
  arbitrary comment
  C   -1.3783143483   -0.0250096981   -0.0000063957
  O    1.3128880253    0.1231560215    0.0000025507
  H   -2.0775327626    1.9091642473   -0.0000776358
  H   -2.1099608028   -0.9797639419    1.6807169082
  H   -2.1099542793   -0.9798968115   -1.6806420196
  H    1.9391500077   -1.5777819373   -0.0000018179
 }
 
 basis=cc-pvdz
 {rhf;maxit,200}
 {ccsd(t);maxit,200}

 Variables initialized (661), CPU time= 0.00 sec
 Commands  initialized (458), CPU time= 0.01 sec, 486 directives.
 Default parameters read. Elapsed time= 0.05 sec

 Checking input...
 Passed
1


                                         ***  PROGRAM SYSTEM MOLPRO  ***
                         Copyright, University College Cardiff Consultants Limited, 2008

                                    Version 2010.1 linked May 16 2016 07:17:05


 **********************************************************************************************************************************
 LABEL *   Optimization of min3                                                          
 Linux-4.4.3/n049(x86_64) 64 bit mpp version                                             DATE: 24-Oct-22          TIME: 15:41:21  
 **********************************************************************************************************************************

 SHA1:             9e8077add272b0f3cad6f7df79ec5211205f459d
 **********************************************************************************************************************************

 THRESHOLDS:

 ZERO    =  1.00D-12  ONEINT  =  1.00D-16  TWOINT  =  1.00D-16  PREFAC  =  1.00D-14  LOCALI  =  1.00D-09  EORDER  =  1.00D-04
 ENERGY  =  1.00D-12  ETEST   =  0.00D+00  EDENS   =  0.00D+00  THRDEDEF=  1.00D-06  GRADIENT=  1.00D-02  STEP    =  1.00D-03
 ORBITAL =  1.00D-10  CIVEC   =  1.00D-05  COEFF   =  1.00D-04  PRINTCI =  5.00D-02  PUNCHCI =  9.90D+01  OPTGRAD =  1.00D-06
 OPTENERG=  1.00D-06  OPTSTEP =  3.00D-04  THRGRAD =  1.00D-10  COMPRESS=  1.00D-13  VARMIN  =  1.00D-07  VARMAX  =  1.00D-03
 THRDOUB =  0.00D+00  THRDIV  =  1.00D-05  THRRED  =  1.00D-07  THRPSP  =  1.00D+00  THRDC   =  1.00D-10  THRCS   =  1.00D-10
 THRNRM  =  1.00D-08  THREQ   =  0.00D+00  THRDE   =  1.00D+00  THRREF  =  1.00D-05  SPARFAC =  1.00D+00  THRDLP  =  1.00D-07
 THRDIA  =  1.00D-10  THRDLS  =  1.00D-07  THRGPS  =  0.00D+00  THRKEX  =  0.00D+00  THRDIS  =  2.00D-01  THRVAR  =  1.00D-10
 THRLOC  =  1.00D-06  THRGAP  =  1.00D-06  THRLOCT = -1.00D+00  THRGAPT = -1.00D+00  THRORB  =  1.00D-06  THRMLTP =  0.00D+00
 THRCPQCI=  1.00D-10  KEXTA   =  0.00D+00  THRCOARS=  0.00D+00  SYMTOL  =  1.00D-06  GRADTOL =  1.00D-06  THROVL  =  1.00D-08
 THRORTH =  1.00D-08  GRID    =  1.00D-06  GRIDMAX =  1.00D-03  DTMAX   =  0.00D+00

 SETTING GEOMTYP        =    XYZ
 ZUNIT=BOHR
 

 Variable memory set to 1000000000 words,  buffer space   230000 words

 SETTING BASIS          =    CC-PVDZ


 Recomputing integrals since basis changed


 Using spherical harmonics

 Library entry C      S cc-pVDZ              selected for orbital group  1
 Library entry C      P cc-pVDZ              selected for orbital group  1
 Library entry C      D cc-pVDZ              selected for orbital group  1
 Library entry O      S cc-pVDZ              selected for orbital group  2
 Library entry O      P cc-pVDZ              selected for orbital group  2
 Library entry O      D cc-pVDZ              selected for orbital group  2
 Library entry H      S cc-pVDZ              selected for orbital group  3
 Library entry H      P cc-pVDZ              selected for orbital group  3

1PROGRAM * SEWARD (Integral evaluation for generally contracted gaussian basis sets)     Author: Roland Lindh, 1990

 Geometry written to block  1 of record 700


 Point group  C1  



 ATOMIC COORDINATES

 NR  ATOM    CHARGE       X              Y              Z

   1  C       6.00   -1.378314348   -0.025009698   -0.000006396
   2  O       8.00    1.312888025    0.123156022    0.000002551
   3  H       1.00   -2.077532763    1.909164247   -0.000077636
   4  H       1.00   -2.109960803   -0.979763942    1.680716908
   5  H       1.00   -2.109954279   -0.979896811   -1.680642020
   6  H       1.00    1.939150008   -1.577781937   -0.000001818

 Bond lengths in Bohr (Angstrom)

 1-2  2.695277963  1-3  2.056680638  1-4  2.066807447  1-5  2.066795222  2-6  1.812565588
     ( 1.426279670)     ( 1.088348520)     ( 1.093707397)     ( 1.093700927)     ( 0.959168399)

 Bond angles

  1-2-6  107.06174232   2-1-3  106.72403274   2-1-4  112.26275489   2-1-5  112.26325153

  3-1-4  108.30699034   3-1-5  108.30741611   4-1-5  108.81540504

 NUCLEAR CHARGE:                   18
 NUMBER OF PRIMITIVE AOS:          82
 NUMBER OF SYMMETRY AOS:           80
 NUMBER OF CONTRACTIONS:           48   (  48A   )
 NUMBER OF CORE ORBITALS:           2   (   2A   )
 NUMBER OF VALENCE ORBITALS:       12   (  12A   )


 NUCLEAR REPULSION ENERGY   40.23823757


 Eigenvalues of metric

         1 0.967E-02 0.177E-01 0.368E-01 0.373E-01 0.382E-01 0.474E-01 0.476E-01 0.517E-01


 Contracted 2-electron integrals neglected if value below      1.0D-16
 AO integral compression algorithm  1   Integral accuracy      1.0D-16

     6.554 MB (compressed) written to integral file ( 95.5%)

     Node minimum: 6.554 MB, node maximum: 6.554 MB


 NUMBER OF SORTED TWO-ELECTRON INTEGRALS:     692076.     BUFFER LENGTH:  32768
 NUMBER OF SEGMENTS:   1  SEGMENT LENGTH:     692076      RECORD LENGTH: 524288

 Memory used in sort:       1.25 MW

 SORT1 READ      832256. AND WROTE      682150. INTEGRALS IN      2 RECORDS. CPU TIME:     0.01 SEC, REAL TIME:     0.01 SEC
 SORT2 READ      682150. AND WROTE      692076. INTEGRALS IN     25 RECORDS. CPU TIME:     0.02 SEC, REAL TIME:     0.03 SEC

 FILE SIZES:   FILE 1:     8.0 MBYTE,  FILE 4:     8.4 MBYTE,   TOTAL:     16.4 MBYTE

 OPERATOR DM      FOR CENTER  0  COORDINATES:    0.000000    0.000000    0.000000


 **********************************************************************************************************************************
 DATASETS  * FILE   NREC   LENGTH (MB)   RECORD NAMES
              1      19        8.05       500      610      700      900      950      970     1000      129      960     1100   
                                          VAR    BASINP    GEOM    SYMINP    ZMAT    AOBASIS   BASIS     P2S    ABASIS      S 
                                         1400     1410     1200     1210     1080     1600     1650     1300     1700   
                                           T        V       H0       H01     AOSYM     SMH    MOLCAS    ERIS     OPER   

 PROGRAMS   *        TOTAL       INT
 CPU TIMES  *         0.23      0.19
 REAL TIME  *         0.40 SEC
 DISK USED  *        23.62 MB      
 GA USED    *         0.00 MB       (max)       0.00 MB       (current)
 **********************************************************************************************************************************

1PROGRAM * RHF-SCF (CLOSED SHELL)       Authors: W. Meyer, H.-J. Werner


 NUMBER OF ELECTRONS:       9+    9-    SPACE SYMMETRY=1    SPIN SYMMETRY: Singlet 
 CONVERGENCE THRESHOLDS:    1.00E-10 (Density)    1.00E-13 (Energy)
 MAX. NUMBER OF ITERATIONS:      200
 INTERPOLATION TYPE:            DIIS
 INTERPOLATION STEPS:              2 (START)      1 (STEP)
 LEVEL SHIFTS:                  0.00 (CLOSED)  0.00 (OPEN) 



 Orbital guess generated from atomic densities. Full valence occupancy:   14

 Molecular orbital dump at record        2100.2

 ITERATION    DDIFF          GRAD             ENERGY        2-EL.EN.            DIPOLE MOMENTS         DIIS
    1      0.000D+00      0.000D+00      -115.01397946    164.251248   -0.50904   -0.90271   -0.00001    0
    2      0.000D+00      0.110D-01      -115.04234690    162.040875   -0.32622   -0.53641   -0.00001    1
    3      0.205D-01      0.532D-02      -115.04843177    163.063432   -0.41105   -0.61216   -0.00001    2
    4      0.641D-02      0.112D-02      -115.04889625    162.908212   -0.40058   -0.60111   -0.00001    3
    5      0.204D-02      0.203D-03      -115.04891741    162.914510   -0.40337   -0.59684   -0.00001    4
    6      0.434D-03      0.355D-04      -115.04891821    162.914655   -0.40367   -0.59665   -0.00001    5
    7      0.933D-04      0.739D-05      -115.04891824    162.913459   -0.40380   -0.59648   -0.00001    6
    8      0.150D-04      0.238D-05      -115.04891824    162.913841   -0.40383   -0.59646   -0.00001    7
    9      0.503D-05      0.488D-06      -115.04891824    162.913800   -0.40385   -0.59646   -0.00001    6
   10      0.140D-05      0.856D-07      -115.04891824    162.913799   -0.40385   -0.59646   -0.00001    6
   11      0.231D-06      0.319D-07      -115.04891824    162.913804   -0.40385   -0.59646   -0.00001    6
   12      0.572D-07      0.132D-07      -115.04891824    162.913802   -0.40385   -0.59646   -0.00001    7
   13      0.245D-07      0.294D-08      -115.04891824    162.913803   -0.40385   -0.59646   -0.00001    7
   14      0.736D-08      0.648D-09      -115.04891824    162.913803   -0.40385   -0.59646   -0.00001    7
   15      0.167D-08      0.148D-09      -115.04891824    162.913803   -0.40385   -0.59646   -0.00001    7
   16      0.330D-09      0.445D-10      -115.04891824    162.913803   -0.40385   -0.59646   -0.00001    7
   17      0.875D-10      0.145D-10      -115.04891824    162.913803   -0.40385   -0.59646   -0.00001    0

 Final occupancy:   9

 !RHF STATE 1.1 Energy               -115.048918243155
 Nuclear energy                        40.23823757
 One-electron energy                 -236.74405712
 Two-electron energy                   81.45690131
 Virial quotient                       -1.00097593
 !RHF STATE 1.1 Dipole moment          -0.40385056    -0.59645795    -0.00000756
 Dipole moment /Debye                  -1.02641850    -1.51594559    -0.00001921

 Orbital energies:

         1.1          2.1          3.1          4.1          5.1          6.1          7.1          8.1          9.1         10.1
    -20.550011   -11.274900    -1.348210    -0.921692    -0.681833    -0.613224    -0.583360    -0.498144    -0.443752     0.184550

        11.1
      0.224523


 **********************************************************************************************************************************
 DATASETS  * FILE   NREC   LENGTH (MB)   RECORD NAMES
              1      19        8.05       500      610      700      900      950      970     1000      129      960     1100   
                                          VAR    BASINP    GEOM    SYMINP    ZMAT    AOBASIS   BASIS     P2S    ABASIS      S 
                                         1400     1410     1200     1210     1080     1600     1650     1300     1700   
                                           T        V       H0       H01     AOSYM     SMH    MOLCAS    ERIS     OPER   

              2       3        0.39       700     1000     2100   
                                         GEOM     BASIS     RHF  

 PROGRAMS   *        TOTAL       RHF       INT
 CPU TIMES  *         0.31      0.08      0.19
 REAL TIME  *         0.52 SEC
 DISK USED  *        23.62 MB      
 GA USED    *         0.00 MB       (max)       0.00 MB       (current)
 **********************************************************************************************************************************


1PROGRAM * CCSD (Closed-shell coupled cluster)     Authors: C. Hampel, H.-J. Werner, 1991, M. Deegan, P.J. Knowles, 1992


 Convergence thresholds:  THRVAR = 1.00D-08  THRDEN = 1.00D-12

 CCSD(T)     terms to be evaluated (factor= 1.000)


 Number of core orbitals:           2 (   2 )
 Number of closed-shell orbitals:   7 (   7 )
 Number of external orbitals:      39 (  39 )

 Molecular orbitals read from record     2100.2  Type=RHF/CANONICAL (state 1.1)

 Number of N-1 electron functions:               7
 Number of N-2 electron functions:              28
 Number of singly external CSFs:               273
 Number of doubly external CSFs:             37401
 Total number of CSFs:                       37675

 Length of J-op  integral file:               0.00 MB
 Length of K-op  integral file:               0.19 MB
 Length of 3-ext integral record:             0.00 MB

 Memory could be reduced to 0.96 Mwords without degradation in triples

 Integral transformation finished. Total CPU:   0.02 sec, npass=  1  Memory used:   0.66 MW

 Reference energy:                   -115.04891824

 MP2 singlet pair energy:              -0.21875839
 MP2 triplet pair energy:              -0.11986514
 MP2 correlation energy:               -0.33862352
 MP2 total energy:                   -115.38754177

 SCS-MP2 correlation energy:           -0.33709282   (PS=  1.200000  PT=  0.333333)
 SCS-MP2 total energy:               -115.38601106

 ITER.      SQ.NORM     CORR.ENERGY   TOTAL ENERGY   ENERGY CHANGE        DEN1      VAR(S)    VAR(P)  DIIS     TIME
   1      1.10745608    -0.36140835  -115.41032660    -0.02278483    -0.01408125  0.92D-03  0.17D-02  1  1     0.06
   2      1.11600447    -0.36335603  -115.41227428    -0.00194768    -0.00926640  0.20D-04  0.16D-03  2  2     0.09
   3      1.11790134    -0.36348439  -115.41240264    -0.00012836    -0.00121258  0.96D-05  0.87D-05  3  3     0.13
   4      1.11842163    -0.36348293  -115.41240118     0.00000146    -0.00025691  0.34D-06  0.68D-06  4  4     0.17
   5      1.11852117    -0.36348333  -115.41240157    -0.00000039    -0.00003652  0.10D-06  0.50D-07  5  5     0.21
   6      1.11854053    -0.36348194  -115.41240018     0.00000139    -0.00000440  0.16D-07  0.42D-08  6  6     0.25
   7      1.11854537    -0.36348151  -115.41239976     0.00000043    -0.00000035  0.20D-08  0.73D-09  6  1     0.29
   8      1.11854666    -0.36348162  -115.41239986    -0.00000010     0.00000076  0.26D-09  0.74D-10  6  3     0.33
   9      1.11854774    -0.36348149  -115.41239974     0.00000013    -0.00000039  0.13D-10  0.11D-10  6  2     0.37
  10      1.11854766    -0.36348149  -115.41239974    -0.00000000     0.00000007  0.11D-11  0.89D-12  6  5     0.41
  11      1.11854769    -0.36348149  -115.41239974     0.00000000    -0.00000000  0.19D-12  0.51D-13  6  4     0.45
  12      1.11854768    -0.36348149  -115.41239974    -0.00000000     0.00000001  0.19D-13  0.10D-13  6  1     0.48
  13      1.11854768    -0.36348149  -115.41239974    -0.00000000    -0.00000000  0.24D-14  0.95D-15  6  6     0.52
  14      1.11854768    -0.36348149  -115.41239974     0.00000000    -0.00000000  0.22D-15  0.12D-15  6  3     0.56
  15      1.11854768    -0.36348149  -115.41239974    -0.00000000    -0.00000000  0.25D-16  0.17D-16  6  2     0.59
  16      1.11854768    -0.36348149  -115.41239974    -0.00000000    -0.00000000  0.56D-17  0.16D-17  6  5     0.63
  17      1.11854768    -0.36348149  -115.41239974    -0.00000000    -0.00000000  0.53D-18  0.25D-18  6  4     0.67
  18      1.11854768    -0.36348149  -115.41239974     0.00000000    -0.00000000  0.83D-19  0.43D-19  6  1     0.71
  19      1.11854768    -0.36348149  -115.41239974    -0.00000000    -0.00000000  0.94D-20  0.43D-20  6  6     0.75
  20      1.11854768    -0.36348149  -115.41239974     0.00000000     0.00000000  0.13D-20  0.56D-21  6  3     0.79

 Norm of t1 vector:      0.04186047      S-energy:    -0.00000000      T1 diagnostic:  0.00791088
                                                                       D1 diagnostic:  0.01777739


 Total CPU time for triples:      0.21 sec


 RESULTS
 =======

  Reference energy                   -115.048918243155
  CCSD singlet pair energy             -0.254743166132
  CCSD triplet pair energy             -0.108738328040
  CCSD correlation energy              -0.363481494173

  Triples (T) contribution             -0.007759819139
  Total correlation energy             -0.371241313312

  CCSD total energy                  -115.412399737329
  CCSD[T] energy                     -115.420451841677
  CCSD-T energy                      -115.420008420854
 !CCSD(T) total energy               -115.420159556467

 Timing summary (sec):

 STEP                 CPU(USER)    SYS     CPU(TOT)    WALL
 Transformation          0.02      0.00      0.02      0.02
 CCSD iterations         0.77      0.05      0.82      0.85
 Triples                 0.21      0.00      0.21      0.21

 Program statistics:

 Available memory in ccsd:               999999704
 Min. memory needed in ccsd:                136801
 Max. memory used in ccsd:                  163198
 Max. memory used in cckext:                182024 (20 integral passes)



 **********************************************************************************************************************************
 DATASETS  * FILE   NREC   LENGTH (MB)   RECORD NAMES
              1      20       10.59       500      610      700      900      950      970     1000      129      960     1100   
                                          VAR    BASINP    GEOM    SYMINP    ZMAT    AOBASIS   BASIS     P2S    ABASIS      S 
                                         1400     1410     1200     1210     1080     1600     1650     1300     1700     1380   
                                           T        V       H0       H01     AOSYM     SMH    MOLCAS    ERIS     OPER     JKOP   

              2       3        0.39       700     1000     2100   
                                         GEOM     BASIS     RHF  

 PROGRAMS   *        TOTAL   CCSD(T)       RHF       INT
 CPU TIMES  *         1.32      1.01      0.08      0.19
 REAL TIME  *         1.62 SEC
 DISK USED  *        25.05 MB      
 GA USED    *         0.00 MB       (max)       0.00 MB       (current)
 **********************************************************************************************************************************

        CCSD(T)         RHF-SCF 
   -115.42015956   -115.04891824
 **********************************************************************************************************************************
 Variable memory released
