
 Primary working directories    : /tmp/333988.27.gen4.q
 Secondary working directories  : /tmp/333988.27.gen4.q
 Wavefunction directory         : /home/vulcan/mel64643/wfu/
 Main file repository           : /tmp/333988.27.gen4.q/

 ARCHNAME  : Linux/x86_64
 FC        : /opt/intel/compilers_and_libraries_2016.1.150/linux/bin/intel64/ifort
 FCVERSION : 16.0.1
 BLASLIB   : -mkl
 id        : ccgc

 Nodes     nprocs
 n039         3
 Number of processes for MPI-2 version of Molpro:   nprocs(total)=    4   nprocs(compute)=    3   nprocs(helper)=    1
 ga_uses_ma=false, calling ma_init with nominal heap.
 GA-space will be limited to   8.0 MW (determined by -G option)

 Using customized tuning parameters: mindgm=10; mindgv=16; mindgc=4; mindgr=1; noblas=0; mincuda=1000; minvec=7
 default implementation of scratch files=sf  

 ***,Optimization of min3
 memory,1000,m
 gthresh,energy=1.0d-10,orbital=1.0d-10,oneint=1.0d-16,twoint=1.0d-16,optgrad=1.0d-6,compress=1.0d-13
 geomtyp=xyz
 
  bohr
  geometry = {
  12
  arbitrary comment
  C         -3.1057375731          1.5860278040          0.0198397180
  C         -0.8577171042         -0.0735416701         -0.6500611090
  C         -1.1216737425         -2.7782725193          0.2415092332
  O          1.3158926807          1.1017551583          0.5839749961
  O          3.4438347167          0.1225595861         -0.2495866921
  H         -4.8164081501          0.8568382673         -0.8707323962
  H         -2.8033094093          3.5233786466         -0.6144019467
  H         -3.3918467038          1.6020709130          2.0636208217
  H         -0.4336651314         -0.0093879004         -2.6669575732
  H         -2.6975324321         -3.7085356719         -0.7096857648
  H         -1.4613967059         -2.8078702898          2.2773613942
  H          0.6115836167         -3.8157557753         -0.1578605161
 }
 
 basis=cc-pvtz
 {rhf;maxit,200}
 {uccsd(t);maxit,200}

 Variables initialized (661), CPU time= 0.00 sec
 Commands  initialized (458), CPU time= 0.01 sec, 486 directives.
 Default parameters read. Elapsed time= 0.07 sec

 Checking input...
 Passed
1


                                         ***  PROGRAM SYSTEM MOLPRO  ***
                         Copyright, University College Cardiff Consultants Limited, 2008

                                    Version 2010.1 linked May 16 2016 07:17:05


 **********************************************************************************************************************************
 LABEL *   Optimization of min3                                                          
 Linux-4.4.3/n039(x86_64) 64 bit mpp version                                             DATE: 15-Jul-20          TIME: 10:38:53  
 **********************************************************************************************************************************

 SHA1:             9e8077add272b0f3cad6f7df79ec5211205f459d
 **********************************************************************************************************************************

 THRESHOLDS:

 ZERO    =  1.00D-12  ONEINT  =  1.00D-16  TWOINT  =  1.00D-16  PREFAC  =  1.00D-14  LOCALI  =  1.00D-09  EORDER  =  1.00D-04
 ENERGY  =  1.00D-10  ETEST   =  0.00D+00  EDENS   =  0.00D+00  THRDEDEF=  1.00D-06  GRADIENT=  1.00D-02  STEP    =  1.00D-03
 ORBITAL =  1.00D-10  CIVEC   =  1.00D-05  COEFF   =  1.00D-04  PRINTCI =  5.00D-02  PUNCHCI =  9.90D+01  OPTGRAD =  1.00D-06
 OPTENERG=  1.00D-06  OPTSTEP =  3.00D-04  THRGRAD =  1.00D-10  COMPRESS=  1.00D-13  VARMIN  =  1.00D-07  VARMAX  =  1.00D-03
 THRDOUB =  0.00D+00  THRDIV  =  1.00D-05  THRRED  =  1.00D-07  THRPSP  =  1.00D+00  THRDC   =  1.00D-10  THRCS   =  1.00D-10
 THRNRM  =  1.00D-08  THREQ   =  0.00D+00  THRDE   =  1.00D+00  THRREF  =  1.00D-05  SPARFAC =  1.00D+00  THRDLP  =  1.00D-07
 THRDIA  =  1.00D-10  THRDLS  =  1.00D-07  THRGPS  =  0.00D+00  THRKEX  =  0.00D+00  THRDIS  =  2.00D-01  THRVAR  =  1.00D-10
 THRLOC  =  1.00D-06  THRGAP  =  1.00D-06  THRLOCT = -1.00D+00  THRGAPT = -1.00D+00  THRORB  =  1.00D-06  THRMLTP =  0.00D+00
 THRCPQCI=  1.00D-10  KEXTA   =  0.00D+00  THRCOARS=  0.00D+00  SYMTOL  =  1.00D-06  GRADTOL =  1.00D-06  THROVL  =  1.00D-08
 THRORTH =  1.00D-08  GRID    =  1.00D-06  GRIDMAX =  1.00D-03  DTMAX   =  0.00D+00

 SETTING GEOMTYP        =    XYZ
 ZUNIT=BOHR
 

 Variable memory set to 1000000000 words,  buffer space   230000 words

 SETTING BASIS          =    CC-PVTZ


 Recomputing integrals since basis changed


 Using spherical harmonics

 Library entry C      S cc-pVTZ              selected for orbital group  1
 Library entry C      P cc-pVTZ              selected for orbital group  1
 Library entry C      D cc-pVTZ              selected for orbital group  1
 Library entry C      F cc-pVTZ              selected for orbital group  1
 Library entry O      S cc-pVTZ              selected for orbital group  2
 Library entry O      P cc-pVTZ              selected for orbital group  2
 Library entry O      D cc-pVTZ              selected for orbital group  2
 Library entry O      F cc-pVTZ              selected for orbital group  2
 Library entry H      S cc-pVTZ              selected for orbital group  3
 Library entry H      P cc-pVTZ              selected for orbital group  3
 Library entry H      D cc-pVTZ              selected for orbital group  3

1PROGRAM * SEWARD (Integral evaluation for generally contracted gaussian basis sets)     Author: Roland Lindh, 1990

 Geometry written to block  1 of record 700


 Point group  C1  



 ATOMIC COORDINATES

 NR  ATOM    CHARGE       X              Y              Z

   1  C       6.00   -3.105737573    1.586027804    0.019839718
   2  C       6.00   -0.857717104   -0.073541670   -0.650061109
   3  C       6.00   -1.121673743   -2.778272519    0.241509233
   4  O       8.00    1.315892681    1.101755158    0.583974996
   5  O       8.00    3.443834717    0.122559586   -0.249586692
   6  H       1.00   -4.816408150    0.856838267   -0.870732396
   7  H       1.00   -2.803309409    3.523378647   -0.614401947
   8  H       1.00   -3.391846704    1.602070913    2.063620822
   9  H       1.00   -0.433665131   -0.009387900   -2.666957573
  10  H       1.00   -2.697532432   -3.708535672   -0.709685765
  11  H       1.00   -1.461396706   -2.807870290    2.277361394
  12  H       1.00    0.611583617   -3.815755775   -0.157860516

 Bond lengths in Bohr (Angstrom)

 1-2  2.873418519  1-6  2.061851084  1-7  2.060838075  1-8  2.063772520  2-3  2.860094360
     ( 1.520547592)     ( 1.091084602)     ( 1.090548541)     ( 1.092101382)     ( 1.513496751)

  2- 4  2.762018689   2- 9  2.061991059   3-10  2.062399590   3-11  2.064214558   3-12  2.059137872
       ( 1.461597341)       ( 1.091158674)       ( 1.091374859)       ( 1.092335299)       ( 1.089648832)

 4-5  2.486319844
     ( 1.315703796)

 Bond angles

  1-2-3  113.65994604   1-2-4  105.41184443   1-2-9  111.77489869   2-1-6  110.12939279

  2- 1- 7  110.87873760   2- 1- 8  110.11033266   2- 3-10  110.68946657   2- 3-11  109.64509002

  2- 3-12  109.77521718   2- 4- 5  110.86438496   3- 2- 4  109.61867654   3- 2- 9  110.69004124

  4-2-9  105.18503906   6-1-7  108.74104773   6-1-8  108.38931952   7-1-8  108.53081066

 10- 3-11  108.82335170  10- 3-12  109.05346382  11- 3-12  108.81974843

 NUCLEAR CHARGE:                   41
 NUMBER OF PRIMITIVE AOS:         354
 NUMBER OF SYMMETRY AOS:          322
 NUMBER OF CONTRACTIONS:          248   ( 248A   )
 NUMBER OF CORE ORBITALS:           5   (   5A   )
 NUMBER OF VALENCE ORBITALS:       27   (  27A   )


 NUCLEAR REPULSION ENERGY  186.84486093


 Eigenvalues of metric

         1 0.809E-03 0.956E-03 0.110E-02 0.124E-02 0.136E-02 0.150E-02 0.160E-02 0.164E-02


 Contracted 2-electron integrals neglected if value below      1.0D-16
 AO integral compression algorithm  1   Integral accuracy      1.0D-16

     3373.007 MB (compressed) written to integral file ( 82.1%)

     Node minimum: 1099.170 MB, node maximum: 1163.133 MB


 NUMBER OF SORTED TWO-ELECTRON INTEGRALS:  158903334.     BUFFER LENGTH:  32768
 NUMBER OF SEGMENTS:  10  SEGMENT LENGTH:   15997437      RECORD LENGTH: 524288

 Memory used in sort:      16.55 MW

 SORT1 READ   513522052. AND WROTE   152635865. INTEGRALS IN    442 RECORDS. CPU TIME:    19.91 SEC, REAL TIME:    25.07 SEC
 SORT2 READ   459399472. AND WROTE   476679126. INTEGRALS IN  12711 RECORDS. CPU TIME:     1.72 SEC, REAL TIME:    15.85 SEC

 Node minimum:   158882750.  Node maximum:   158903334. integrals

 OPERATOR DM      FOR CENTER  0  COORDINATES:    0.000000    0.000000    0.000000


 **********************************************************************************************************************************
 DATASETS  * FILE   NREC   LENGTH (MB)   RECORD NAMES
              1      18        5.04       500      610      700      900      950      970     1000      129      960     1100   
                                          VAR    BASINP    GEOM    SYMINP    ZMAT    AOBASIS   BASIS     P2S    ABASIS      S 
                                         1400     1410     1200     1210     1080     1600     1650     1700   
                                           T        V       H0       H01     AOSYM     SMH    MOLCAS    OPER   

 PROGRAMS   *        TOTAL       INT
 CPU TIMES  *        30.69     30.60
 REAL TIME  *        51.59 SEC
 DISK USED  *         8.83 GB      
 GA USED    *         0.01 MB       (max)       0.00 MB       (current)
 **********************************************************************************************************************************

1PROGRAM * RHF-SCF (OPEN SHELL)       Authors: W. Meyer, H.-J. Werner


 NUMBER OF ELECTRONS:      21+   20-    SPACE SYMMETRY=1    SPIN SYMMETRY: Doublet 
 CONVERGENCE THRESHOLDS:    1.00E-10 (Density)    1.00E-11 (Energy)
 MAX. NUMBER OF ITERATIONS:      200
 INTERPOLATION TYPE:            DIIS
 INTERPOLATION STEPS:              2 (START)      1 (STEP)
 LEVEL SHIFTS:                 -0.30 (CLOSED)  0.00 (OPEN) 



 Orbital guess generated from atomic densities. Full valence occupancy:   32

 Molecular orbital dump at record        2100.2

 ITERATION    DDIFF          GRAD             ENERGY        2-EL.EN.            DIPOLE MOMENTS         DIIS
    1      0.000D+00      0.000D+00      -267.26205311    560.191142   -1.75417   -0.06831   -0.08595    0
    2      0.000D+00      0.327D-02      -267.33580122    563.038798   -1.01469   -0.42676   -0.34806    1
    3      0.470D-02      0.228D-02      -267.36186935    561.998251   -1.18435   -0.24079   -0.20939    2
    4      0.210D-02      0.545D-03      -267.36990723    562.181285   -0.97784   -0.31221   -0.28911    3
    5      0.917D-03      0.476D-03      -267.37397827    562.223995   -0.92397   -0.31441   -0.29379    4
    6      0.575D-03      0.265D-03      -267.37582845    562.192673   -0.88206   -0.30869   -0.29244    5
    7      0.475D-03      0.132D-03      -267.37616681    562.180129   -0.88921   -0.29804   -0.28517    6
    8      0.259D-03      0.338D-04      -267.37618682    562.176608   -0.88956   -0.29446   -0.28334    7
    9      0.800D-04      0.177D-04      -267.37619629    562.176965   -0.89176   -0.29503   -0.28347    8
   10      0.424D-04      0.773D-05      -267.37619795    562.176995   -0.89261   -0.29449   -0.28325    9
   11      0.190D-04      0.312D-05      -267.37619818    562.176881   -0.89329   -0.29430   -0.28307    9
   12      0.753D-05      0.139D-05      -267.37619823    562.177067   -0.89343   -0.29439   -0.28310    9
   13      0.348D-05      0.518D-06      -267.37619824    562.177139   -0.89342   -0.29445   -0.28314    9
   14      0.153D-05      0.305D-06      -267.37619824    562.177123   -0.89341   -0.29446   -0.28314    9
   15      0.949D-06      0.160D-06      -267.37619825    562.177121   -0.89341   -0.29446   -0.28314    9
   16      0.640D-06      0.115D-06      -267.37619825    562.177124   -0.89341   -0.29447   -0.28314    9
   17      0.367D-06      0.807D-07      -267.37619825    562.177115   -0.89340   -0.29447   -0.28315    9
   18      0.516D-06      0.656D-07      -267.37619825    562.177110   -0.89341   -0.29447   -0.28314    9
   19      0.466D-06      0.537D-07      -267.37619825    562.177109   -0.89341   -0.29446   -0.28315    9
   20      0.104D-05      0.310D-07      -267.37619825    562.177100   -0.89341   -0.29446   -0.28315    9
   21      0.716D-06      0.159D-07      -267.37619825    562.177099   -0.89341   -0.29446   -0.28315    9
   22      0.262D-06      0.749D-08      -267.37619825    562.177100   -0.89341   -0.29446   -0.28315    9
   23      0.836D-07      0.334D-08      -267.37619825    562.177100   -0.89341   -0.29446   -0.28315    9
   24      0.201D-07      0.208D-08      -267.37619825    562.177099   -0.89341   -0.29446   -0.28315    9
   25      0.896D-08      0.759D-09      -267.37619825    562.177100   -0.89341   -0.29446   -0.28315    9
   26      0.222D-08      0.376D-09      -267.37619825    562.177100   -0.89341   -0.29446   -0.28315    9
   27      0.193D-08      0.163D-09      -267.37619825    562.177100   -0.89341   -0.29446   -0.28315    9
   28      0.368D-09      0.639D-10      -267.37619825    562.177100   -0.89341   -0.29446   -0.28315    9
   29      0.161D-09      0.340D-10      -267.37619825    562.177100   -0.89341   -0.29446   -0.28315    9
   30      0.758D-10      0.270D-10      -267.37619825    562.177100   -0.89341   -0.29446   -0.28315    0

 Final alpha occupancy:  21
 Final beta  occupancy:  20

 !RHF STATE 1.1 Energy               -267.376198250859
 Nuclear energy                       186.84486093
 One-electron energy                 -735.30960901
 Two-electron energy                  281.08854983
 Virial quotient                       -1.00110327
 !RHF STATE 1.1 Dipole moment          -0.89341171    -0.29446415    -0.28314770
 Dipole moment /Debye                  -2.27067732    -0.74840420    -0.71964254

 Orbital energies:

         1.1          2.1          3.1          4.1          5.1          6.1          7.1          8.1          9.1         10.1
    -20.648156   -20.641152   -11.297095   -11.229402   -11.225124    -1.529063    -1.171062    -1.034015    -0.952776    -0.820457

        11.1         12.1         13.1         14.1         15.1         16.1         17.1         18.1         19.1         20.1
     -0.696346    -0.669980    -0.654080    -0.596274    -0.563530    -0.557424    -0.545785    -0.500258    -0.489568    -0.464684

        21.1         22.1         23.1
     -0.560049     0.137834     0.175152


 **********************************************************************************************************************************
 DATASETS  * FILE   NREC   LENGTH (MB)   RECORD NAMES
              1      18        5.04       500      610      700      900      950      970     1000      129      960     1100   
                                          VAR    BASINP    GEOM    SYMINP    ZMAT    AOBASIS   BASIS     P2S    ABASIS      S 
                                         1400     1410     1200     1210     1080     1600     1650     1700   
                                           T        V       H0       H01     AOSYM     SMH    MOLCAS    OPER   

              2       3        2.21       700     1000     2100   
                                         GEOM     BASIS     RHF  

 PROGRAMS   *        TOTAL       RHF       INT
 CPU TIMES  *        97.16     66.47     30.60
 REAL TIME  *       121.54 SEC
 DISK USED  *         8.87 GB      
 SF USED    *         0.25 MB      
 GA USED    *         0.01 MB       (max)       0.00 MB       (current)
 **********************************************************************************************************************************


1PROGRAM * CCSD (Unrestricted open-shell coupled cluster)     Authors: C. Hampel, H.-J. Werner, 1991, M. Deegan, P.J. Knowles, 1992


 Convergence thresholds:  THRVAR = 1.00D-08  THRDEN = 1.00D-10

 CCSD(T)     terms to be evaluated (factor= 1.000)


 Number of core orbitals:           5 (   5 )
 Number of closed-shell orbitals:  15 (  15 )
 Number of active  orbitals:        1 (   1 )
 Number of external orbitals:     227 ( 227 )

 Memory could be reduced to 332.02 Mwords without degradation in triples

 Number of N-1 electron functions:              31
 Number of N-2 electron functions:             465
 Number of singly external CSFs:              7068
 Number of doubly external CSFs:          18353430
 Total number of CSFs:                    18360498

 Molecular orbitals read from record     2100.2  Type=RHF/CANONICAL (state 1.1)

 Integral transformation finished. Total CPU:  47.69 sec, npass=  1  Memory used: 145.25 MW

 Starting RMP2 calculation

 ITER.      SQ.NORM     CORR.ENERGY   TOTAL ENERGY   ENERGY CHANGE        DEN1      VAR(S)    VAR(P)  DIIS     TIME
   1      1.26496472    -0.96753368  -268.34373193    -0.96753368    -0.00322746  0.27D-04  0.11D-02  1  1    54.07
   2      1.26773787    -0.97101338  -268.34721163    -0.00347970    -0.00000663  0.10D-05  0.23D-05  2  2    58.05
   3      1.26781742    -0.97106609  -268.34726434    -0.00005271    -0.00000008  0.54D-07  0.11D-07  3  3    62.01
   4      1.26781916    -0.97106592  -268.34726417     0.00000017    -0.00000000  0.16D-08  0.12D-09  4  4    66.20
   5      1.26781942    -0.97106601  -268.34726426    -0.00000009    -0.00000000  0.18D-10  0.45D-11  5  5    70.75
   6      1.26781947    -0.97106604  -268.34726429    -0.00000003    -0.00000000  0.50D-13  0.55D-13  6  6    76.64
   7      1.26781947    -0.97106604  -268.34726429     0.00000000    -0.00000000  0.15D-14  0.85D-15  6  1    81.26
   8      1.26781947    -0.97106604  -268.34726429     0.00000000    -0.00000000  0.15D-16  0.78D-17  6  2    86.16
   9      1.26781947    -0.97106604  -268.34726429    -0.00000000    -0.00000000  0.30D-18  0.10D-18  6  3    91.59

 Norm of t1 vector:      0.04612622      S-energy:    -0.00449858      T1 diagnostic:  0.00074841
 Norm of t2 vector:      0.51545305      P-energy:    -0.96656746
                                         Alpha-Beta:  -0.73687401
                                         Alpha-Alpha: -0.11896253
                                         Beta-Beta:   -0.11073092

 Spin contamination <S**2-Sz**2-Sz>     0.00146328
  Reference energy                   -267.376198250862
  RHF-RMP2 correlation energy          -0.971066040504
 !RHF-RMP2 energy                    -268.347264291365

 Starting UCCSD calculation

 ITER.      SQ.NORM     CORR.ENERGY   TOTAL ENERGY   ENERGY CHANGE        DEN1      VAR(S)    VAR(P)  DIIS     TIME
   1      1.27941589    -0.97921432  -268.35541257    -0.97921432    -0.02922400  0.64D-02  0.54D-02  1  1   202.10
   2      1.30570034    -1.00577783  -268.38197608    -0.02656351    -0.00359646  0.61D-03  0.95D-03  2  2   310.67
   3      1.32216803    -1.01256201  -268.38876026    -0.00678418    -0.00089292  0.73D-03  0.74D-04  3  3   420.96
   4      1.33324878    -1.01519894  -268.39139719    -0.00263694    -0.00037251  0.30D-03  0.31D-04  4  4   530.25
   5      1.34784330    -1.01714453  -268.39334278    -0.00194559    -0.00011224  0.96D-04  0.86D-05  5  5   639.85
   6      1.35878970    -1.01812397  -268.39432222    -0.00097944    -0.00001704  0.86D-05  0.30D-05  6  6   749.92
   7      1.36224755    -1.01835175  -268.39455000    -0.00022778    -0.00000295  0.15D-05  0.57D-06  6  1   859.68
   8      1.36280248    -1.01839066  -268.39458891    -0.00003891    -0.00000062  0.25D-06  0.14D-06  6  2   970.36
   9      1.36309713    -1.01840770  -268.39460595    -0.00001704    -0.00000013  0.61D-07  0.29D-07  6  4  1080.41
  10      1.36308597    -1.01840658  -268.39460483     0.00000112    -0.00000002  0.94D-08  0.38D-08  6  3  1190.60
  11      1.36314245    -1.01841120  -268.39460945    -0.00000462    -0.00000000  0.17D-08  0.84D-09  6  5  1301.30
  12      1.36313569    -1.01840887  -268.39460712     0.00000234    -0.00000000  0.49D-09  0.17D-09  6  6  1410.73
  13      1.36313180    -1.01840781  -268.39460606     0.00000106    -0.00000000  0.15D-09  0.35D-10  6  1  1520.65
  14      1.36312101    -1.01840652  -268.39460477     0.00000129    -0.00000000  0.27D-10  0.49D-11  6  3  1630.26
  15      1.36311717    -1.01840606  -268.39460431     0.00000046    -0.00000000  0.62D-11  0.19D-11  6  2  1739.81
  16      1.36311544    -1.01840594  -268.39460419     0.00000012    -0.00000000  0.31D-11  0.36D-12  6  4  1849.32
  17      1.36311485    -1.01840590  -268.39460415     0.00000004    -0.00000000  0.21D-11  0.14D-12  6  6  1958.86
  18      1.36311462    -1.01840589  -268.39460414     0.00000002    -0.00000000  0.17D-11  0.79D-13  6  5  2068.43
  19      1.36311472    -1.01840591  -268.39460416    -0.00000002    -0.00000000  0.12D-11  0.71D-13  6  3  2177.86
  20      1.36311462    -1.01840589  -268.39460414     0.00000002    -0.00000000  0.65D-12  0.53D-13  6  1  2287.23
  21      1.36311478    -1.01840590  -268.39460415    -0.00000001    -0.00000000  0.26D-12  0.34D-13  6  2  2396.72
  22      1.36311477    -1.01840590  -268.39460415     0.00000000    -0.00000000  0.91D-13  0.16D-13  6  4  2506.39
  23      1.36311482    -1.01840591  -268.39460416    -0.00000001    -0.00000000  0.25D-13  0.57D-14  6  5  2616.19
  24      1.36311481    -1.01840591  -268.39460416    -0.00000000    -0.00000000  0.49D-14  0.22D-14  6  6  2725.72
  25      1.36311479    -1.01840590  -268.39460415     0.00000000    -0.00000000  0.16D-14  0.49D-15  6  5  2835.29
  26      1.36311478    -1.01840590  -268.39460415     0.00000000    -0.00000000  0.10D-15  0.57D-16  6  2  2945.36
  27      1.36311478    -1.01840590  -268.39460415    -0.00000000    -0.00000000  0.49D-16  0.18D-16  6  3  3056.42
  28      1.36311479    -1.01840590  -268.39460415    -0.00000000    -0.00000000  0.16D-16  0.37D-17  6  1  3166.09
  29      1.36311479    -1.01840590  -268.39460415    -0.00000000    -0.00000000  0.38D-17  0.12D-17  6  4  3275.82
  30      1.36311479    -1.01840590  -268.39460416    -0.00000000    -0.00000000  0.83D-18  0.30D-18  6  6  3385.34
  31      1.36311479    -1.01840590  -268.39460416    -0.00000000    -0.00000000  0.34D-18  0.37D-19  6  5  3495.04

 Norm of t1 vector:      0.22816532      S-energy:    -0.00502884      T1 diagnostic:  0.02809701
                                                                       D1 diagnostic:  0.14372460
 Norm of t2 vector:      0.55772339      P-energy:    -1.01337706
                                         Alpha-Beta:  -0.80099684
                                         Alpha-Alpha: -0.10869769
                                         Beta-Beta:   -0.10368253

 Singles amplitudes (print threshold =  0.500E-01):

         I         SYM. A    A   T(IA) [Beta-Beta]

         8         1         1     -0.09594947
         9         1         1      0.09644970
        11         1         1     -0.05519623
        12         1         1     -0.07338951
        14         1         1     -0.10843031

 Spin contamination <S**2-Sz**2-Sz>     0.00173573

 Memory could be reduced to 360.52 Mwords without degradation in triples
 

 RESULTS
 =======

  Reference energy                   -267.376198250862
  UCCSD singles energy                 -0.005028842855
  UCCSD pair energy                    -1.013377061326
  UCCSD correlation energy             -1.018405904180
  Triples (T) contribution             -0.040718742864
  Total correlation energy             -1.059124647044
 
  RHF-UCCSD energy                   -268.394604155042
  RHF-UCCSD[T] energy                -268.438544461697
  RHF-UCCSD-T energy                 -268.434830566025
 !RHF-UCCSD(T) energy                -268.435322897906

 Program statistics:

 Available memory in ccsd:               999997692
 Min. memory needed in ccsd:              51505734
 Max. memory used in ccsd:                74803578
 Max. memory used in cckext:              59475747 (31 integral passes)
 Max. memory used in cckint:             145249478 ( 1 integral passes)



 **********************************************************************************************************************************
 DATASETS  * FILE   NREC   LENGTH (MB)   RECORD NAMES
              1      18        5.04       500      610      700      900      950      970     1000      129      960     1100   
                                          VAR    BASINP    GEOM    SYMINP    ZMAT    AOBASIS   BASIS     P2S    ABASIS      S 
                                         1400     1410     1200     1210     1080     1600     1650     1700   
                                           T        V       H0       H01     AOSYM     SMH    MOLCAS    OPER   

              2       3        2.21       700     1000     2100   
                                         GEOM     BASIS     RHF  

 PROGRAMS   *        TOTAL  UCCSD(T)       RHF       INT
 CPU TIMES  *      5726.91   5629.75     66.47     30.60
 REAL TIME  *      5869.48 SEC
 DISK USED  *        15.85 GB      
 SF USED    *         6.57 GB      
 GA USED    *         0.01 MB       (max)       0.00 MB       (current)
 **********************************************************************************************************************************

        UCCSD(T)        RHF-SCF 
   -268.43532290   -267.37619825
 **********************************************************************************************************************************
 Variable memory released
