
 Working directory              : /scratch/mel64643/tmp/40073468/
 Global scratch directory       : /scratch/mel64643/tmp/40073468/
 Wavefunction directory         : /home/mel64643/wfu/
 Main file repository           : /scratch/mel64643/tmp/40073468/

 id        : ccgc

 Nodes     nprocs
 a1-8         3
 Distribution of processes:   nprocs(total)=    4   nprocs(compute)=    3   nprocs(helper)=    1
 GA implementation: MPI file
 GA implementation (serial work in mppx): MPI file

 Using customized tuning parameters: mindgm=1; mindgv=20; mindgc=4; mindgr=1; noblas=0; minvec=7
 default implementation of scratch files=sf  


 Variables initialized (1015), CPU time= 0.00 sec
 ***,Optimization of min3
 memory,1000,m
 gthresh,energy=1.0d-12,orbital=1.0d-10,oneint=1.0d-16,twoint=1.0d-16,optgrad=1.0d-6,compress=1.0d-13
 geomtyp=xyz
 
  bohr
  geometry = {
  6
  arbitrary comment
  C   -1.3745190859   -0.0221799427    0.0000002964
  O    1.3132434325    0.1196336650    0.0000005196
  H   -2.0953039095    1.9216712423   -0.0000803463
  H   -2.1051668516   -0.9807120726    1.6942760940
  H   -2.1051596608   -0.9808441935   -1.6942038581
  H    1.9431819152   -1.5877008185   -0.0000011156
 }
 
 basis=cc-pvdz
 {rhf;maxit,200}
 {ccsd(t);maxit,200}
 Commands initialized (818), CPU time= 0.01 sec, 672 directives.
 Default parameters read. Elapsed time= 0.11 sec

 Checking input...
 Passed
1


                                         ***  PROGRAM SYSTEM MOLPRO  ***
                                       Copyright, TTI GmbH Stuttgart, 2015
                                    Version 2022.1 linked Mar  4 2022 00:40:14


 **********************************************************************************************************************************
 LABEL *   Optimization of min3                                                          
  64 bit mpp version                                                                     DATE: 07-Aug-25          TIME: 21:27:36  
 **********************************************************************************************************************************

 SHA1:             31073afc4d8441e10870424e0d77336a33bc4286
 **********************************************************************************************************************************

 Memory per process:      1000 MW
 Total memory per node:   3000 MW

 GA preallocation disabled
 GA check disabled

 Variable memory set to 1000.0 MW


 THRESHOLDS:

 ZERO    =  1.00D-12  ONEINT  =  1.00D-16  TWOINT  =  1.00D-16  PREFAC  =  1.00D-14  XXXXXX  =  1.00D-09  EORDER  =  1.00D-04
 ENERGY  =  1.00D-12  ETEST   =  0.00D+00  EDENS   =  0.00D+00  THRDEDEF=  1.00D-06  GRADIENT=  1.00D-05  STEP    =  1.00D-03
 ORBITAL =  1.00D-10  CIVEC   =  1.00D-05  COEFF   =  1.00D-04  PRINTCI =  5.00D-02  PUNCHCI =  9.90D+01  OPTGRAD =  1.00D-06
 OPTENERG=  1.00D-06  OPTSTEP =  3.00D-04  THRGRAD =  1.00D-10  COMPRESS=  1.00D-13  VARMIN  =  1.00D-07  VARMAX  =  1.00D-03
 THRDOUB =  0.00D+00  THRDIV  =  1.00D-05  THRRED  =  1.00D-07  THRPSP  =  1.00D+00  THRDC   =  1.00D-10  THRCS   =  1.00D-10
 THRNRM  =  1.00D-08  THREQ   =  0.00D+00  THRDE   =  1.00D+00  THRREF  =  1.00D-05  SPARFAC =  1.00D+00  THRDLP  =  1.00D-07
 THRDIA  =  1.00D-10  THRDLS  =  1.00D-07  THRGPS  =  0.00D+00  THRKEX  =  0.00D+00  THRDIS  =  2.00D-01  THRVAR  =  1.00D-10
 THRLOC  =  1.00D-06  THRGAP  =  1.00D-06  THRLOCT = -1.00D+00  THRGAPT = -1.00D+00  THRORB  =  1.00D-06  THRMLTP =  0.00D+00
 THRCPQCI=  1.00D-10  KEXTA   =  0.00D+00  THRCOARS=  0.00D+00  SYMTOL  =  1.00D-06  GRADTOL =  1.00D-06  THROVL  =  1.00D-08
 THRORTH =  1.00D-08  THRDLOVL= -1.00D+00  GRID    =  1.00D-06  GRIDMAX =  1.00D-03  DTMAX   =  0.00D+00  THROCCDE=  1.00D-01
 THROCCDE=  1.00D-01  THRPRINT=  2.50D-01

 SETTING GEOMTYP        =    XYZ
 ZUNIT=BOHR

 SETTING BASIS          =    CC-PVDZ


 Recomputing integrals since basis changed


 Using spherical harmonics

 Library entry C      S cc-pVDZ              selected for orbital group  1
 Library entry C      P cc-pVDZ              selected for orbital group  1
 Library entry C      D cc-pVDZ              selected for orbital group  1
 Library entry O      S cc-pVDZ              selected for orbital group  2
 Library entry O      P cc-pVDZ              selected for orbital group  2
 Library entry O      D cc-pVDZ              selected for orbital group  2
 Library entry H      S cc-pVDZ              selected for orbital group  3
 Library entry H      P cc-pVDZ              selected for orbital group  3


 PROGRAM * SEWARD (Integral evaluation for generally contracted gaussian basis sets)     Author: Roland Lindh, 1990

 Geometry written to block  1 of record 700


 Point group  C1  



 ATOMIC COORDINATES

 NR  ATOM    CHARGE       X              Y              Z

   1  C       6.00   -1.374519086   -0.022179943    0.000000296
   2  O       8.00    1.313243432    0.119633665    0.000000520
   3  H       1.00   -2.095303910    1.921671242   -0.000080346
   4  H       1.00   -2.105166852   -0.980712073    1.694276094
   5  H       1.00   -2.105159661   -0.980844193   -1.694203858
   6  H       1.00    1.943181915   -1.587700819   -0.000001116

 Bond lengths in Bohr (Angstrom)

 1-2  2.691501153  1-3  2.073183108  1-4  2.079230742  1-5  2.079230750  2-6  1.819838875
     ( 1.424281073)     ( 1.097081255)     ( 1.100281525)     ( 1.100281529)     ( 0.963017260)

 Bond angles

  1-2-6  107.23177462   2-1-3  107.32462550   2-1-4  112.03696699   2-1-5  112.03696873

  3-1-4  108.06547359   3-1-5  108.06531624   4-1-5  109.14305064

 NUCLEAR CHARGE:                   18
 NUMBER OF PRIMITIVE AOS:          82
 NUMBER OF SYMMETRY AOS:           80
 NUMBER OF CONTRACTIONS:           48   (   48A   )
 NUMBER OF INNER CORE ORBITALS:     0   (    0A   )
 NUMBER OF OUTER CORE ORBITALS:     2   (    2A   )
 NUMBER OF VALENCE ORBITALS:       12   (   12A   )


 NUCLEAR REPULSION ENERGY   40.16384986

 Eigenvalues of metric

         1 0.973E-02 0.178E-01 0.376E-01 0.381E-01 0.388E-01 0.478E-01 0.489E-01 0.525E-01


 Contracted 2-electron integrals neglected if value below      1.0D-16
 AO integral compression algorithm  1   Integral accuracy      1.0D-16

     6.816 MB (compressed) written to integral file ( 98.5%)

     Node minimum: 2.097 MB, node maximum: 2.359 MB


 NUMBER OF SORTED TWO-ELECTRON INTEGRALS:     231084.     BUFFER LENGTH:  32768
 NUMBER OF SEGMENTS:   1  SEGMENT LENGTH:     231084      RECORD LENGTH: 524288

 Memory used in sort:       0.79 MW

 SORT1 READ      832256. AND WROTE      227683. INTEGRALS IN      1 RECORDS. CPU TIME:     0.01 SEC, REAL TIME:     0.02 SEC
 SORT2 READ      682150. AND WROTE      692076. INTEGRALS IN     27 RECORDS. CPU TIME:     0.01 SEC, REAL TIME:     0.02 SEC

 Node minimum:      230300.  Node maximum:      231084. integrals

 OPERATOR DM      FOR CENTER  0  COORDINATES:    0.000000    0.000000    0.000000


 **********************************************************************************************************************************
 DATASETS  * FILE   NREC   LENGTH (MB)   RECORD NAMES
              1      18       28.73       500      610      700      900      950      970     1000      129      960     1100   
                                          VAR    BASINP    GEOM    SYMINP    ZMAT    AOBASIS   BASIS     P2S    ABASIS      S 
                                         1400     1410     1200     1210     1080     1600     1650     1700   
                                           T        V       H0       H01     AOSYM     SMH    MOLCAS    OPER   

 PROGRAMS   *        TOTAL       INT
 CPU TIMES  *         0.47      0.31
 REAL TIME  *         1.59 SEC
 DISK USED  *        29.07 MB (local),      104.32 MB (total)
 GA USED    *         0.00 MB       (max)       0.00 MB       (current)
 **********************************************************************************************************************************


 Program * Restricted Hartree-Fock

 Orbital guess generated from atomic densities. Full valence occupancy:   14

 Initial occupancy:   9

 NELEC=   18   SYM=1   MS2= 0   THRE=1.0D-12   THRD=1.0D-10   THRG=1.0D-10  HFMA2=F  DIIS_START=2   DIIS_MAX=10   DIIS_INCORE=F

 Level shifts:    0.00 (CLOSED)    0.00 (OPEN)    0.30 (GAP_MIN)

 ITER           ETOT              DE          GRAD        DDIFF     DIIS  NEXP   TIME(IT)  TIME(TOT)  DIAG
   1     -115.01374334    -115.01374334     0.00D+00     0.16D+00     0     0       0.00      0.00    start
   2     -115.04214996      -0.02840662     0.10D-01     0.21D-01     1     0       0.00      0.00    diag
   3     -115.04829566      -0.00614570     0.49D-02     0.64D-02     2     0       0.01      0.01    diag
   4     -115.04876185      -0.00046619     0.10D-02     0.20D-02     3     0       0.00      0.01    diag
   5     -115.04878321      -0.00002135     0.19D-03     0.44D-03     4     0       0.00      0.01    diag
   6     -115.04878402      -0.00000081     0.33D-04     0.93D-04     5     0       0.01      0.02    diag
   7     -115.04878405      -0.00000003     0.66D-05     0.15D-04     6     0       0.01      0.03    diag
   8     -115.04878405      -0.00000000     0.21D-05     0.48D-05     7     0       0.00      0.03    fixocc
   9     -115.04878405      -0.00000000     0.45D-06     0.14D-05     8     0       0.00      0.03    diag
  10     -115.04878405      -0.00000000     0.72D-07     0.23D-06     9     0       0.00      0.03    diag/orth
  11     -115.04878405      -0.00000000     0.17D-07     0.47D-07     9     0       0.01      0.04    diag
  12     -115.04878405       0.00000000     0.44D-08     0.14D-07     9     0       0.00      0.04    diag
  13     -115.04878405       0.00000000     0.69D-09     0.19D-08     9     0       0.00      0.04    diag
  14     -115.04878405      -0.00000000     0.15D-09     0.40D-09     9     0       0.00      0.04    diag
  15     -115.04878405       0.00000000     0.61D-10     0.11D-09     9     0       0.00      0.04    diag
  16     -115.04878405      -0.00000000     0.14D-10     0.32D-10     9     0       0.01      0.05    diag
  17     -115.04878405      -0.00000000     0.23D-11     0.46D-11     0     0       0.00      0.05    diag

 Final occupancy:   9

 !RHF STATE 1.1 Energy               -115.048784051041
  RHF One-electron energy            -236.603125533755
  RHF Two-electron energy              81.390491624716
  RHF Kinetic energy                  114.901228823819
  RHF Nuclear energy                   40.163849857998
  RHF Virial quotient                  -1.001284191899

 !RHF STATE 1.1 Dipole moment          -0.39694202    -0.59586374    -0.00000284
 Dipole moment /Debye                  -1.00892598    -1.51453455    -0.00000722

 Orbital energies:

           1.1          2.1          3.1          4.1          5.1          6.1          7.1          8.1          9.1         10.1
    -20.550656   -11.277282    -1.348206    -0.918952    -0.680517    -0.612734    -0.583709    -0.495873    -0.443142     0.183914

          11.1
      0.223366


 HOMO      9.1    -0.443142 =     -12.0585eV
 LUMO     10.1     0.183914 =       5.0045eV
 LUMO-HOMO         0.627056 =      17.0631eV

 Orbitals saved in record  2100.2


 **********************************************************************************************************************************
 DATASETS  * FILE   NREC   LENGTH (MB)   RECORD NAMES
              1      18       28.73       500      610      700      900      950      970     1000      129      960     1100   
                                          VAR    BASINP    GEOM    SYMINP    ZMAT    AOBASIS   BASIS     P2S    ABASIS      S 
                                         1400     1410     1200     1210     1080     1600     1650     1700   
                                           T        V       H0       H01     AOSYM     SMH    MOLCAS    OPER   

              2       4        0.47       700     1000      520     2100   
                                         GEOM     BASIS   MCVARS     RHF  

 PROGRAMS   *        TOTAL   RHF-SCF       INT
 CPU TIMES  *         0.52      0.05      0.31
 REAL TIME  *         2.28 SEC
 DISK USED  *        29.40 MB (local),      105.31 MB (total)
 GA USED    *         0.00 MB       (max)       0.00 MB       (current)
 **********************************************************************************************************************************


 PROGRAM * CCSD (Closed-shell coupled cluster)     Authors: C. Hampel, H.-J. Werner, 1991, M. Deegan, P.J. Knowles, 1992


 Convergence thresholds:  THRVAR = 1.00D-08  THRDEN = 1.00D-12

 CCSD(T)     terms to be evaluated (factor= 1.000)


 Number of core orbitals:           2 (   2 )
 Number of closed-shell orbitals:   7 (   7 )
 Number of external orbitals:      39 (  39 )

 Molecular orbitals read from record     2100.2  Type=RHF/CANONICAL  

 Number of N-1 electron functions:               7
 Number of N-2 electron functions:              28
 Number of singly external CSFs:               273
 Number of doubly external CSFs:             37401
 Total number of CSFs:                       37675

 Length of J-op  integral file:               0.00 MB
 Length of K-op  integral file:               0.16 MB
 Length of 3-ext integral record:             0.00 MB

 Memory could be reduced to 0.73 Mwords without degradation in triples

 Integral transformation finished. Total CPU:   0.03 sec, npass=  1  Memory used:   0.66 MW

 Reference energy:                   -115.04878405

 MP2 singlet pair energy:              -0.21908691
 MP2 triplet pair energy:              -0.11991731
 MP2 correlation energy:               -0.33900422
 MP2 total energy:                   -115.38778827

 SCS-MP2 correlation energy:           -0.33751951   (PS=  1.200000  PT=  0.333333)
 SCS-MP2 total energy:               -115.38630356

 ITER.      SQ.NORM     CORR.ENERGY   TOTAL ENERGY   ENERGY CHANGE        DEN1      VAR(S)    VAR(P)  DIIS     TIME  TIME/IT
   1      1.10792430    -0.36183691  -115.41062096    -0.02283269    -0.01407825  0.93D-03  0.18D-02  1  1     0.05     0.04
   2      1.11656946    -0.36380678  -115.41259083    -0.00196987    -0.00932090  0.20D-04  0.17D-03  2  2     0.07     0.03
   3      1.11850227    -0.36393822  -115.41272227    -0.00013144    -0.00123005  0.97D-05  0.89D-05  3  3     0.09     0.04
   4      1.11903249    -0.36393718  -115.41272124     0.00000104    -0.00026088  0.35D-06  0.70D-06  4  4     0.11     0.04
   5      1.11913404    -0.36393767  -115.41272172    -0.00000049    -0.00003710  0.10D-06  0.52D-07  5  5     0.13     0.04
   6      1.11915391    -0.36393629  -115.41272034     0.00000138    -0.00000454  0.17D-07  0.43D-08  6  6     0.15     0.04
   7      1.11915881    -0.36393586  -115.41271991     0.00000043    -0.00000036  0.21D-08  0.76D-09  6  1     0.17     0.04
   8      1.11916011    -0.36393597  -115.41272002    -0.00000011     0.00000077  0.27D-09  0.76D-10  6  3     0.19     0.04
   9      1.11916121    -0.36393584  -115.41271989     0.00000013    -0.00000039  0.13D-10  0.11D-10  6  2     0.21     0.04
  10      1.11916114    -0.36393584  -115.41271989    -0.00000000     0.00000008  0.11D-11  0.94D-12  6  5     0.23     0.04
  11      1.11916117    -0.36393584  -115.41271989     0.00000000    -0.00000000  0.20D-12  0.53D-13  6  4     0.25     0.04
  12      1.11916116    -0.36393584  -115.41271989    -0.00000000     0.00000001  0.20D-13  0.11D-13  6  1     0.27     0.04
  13      1.11916116    -0.36393584  -115.41271989    -0.00000000    -0.00000000  0.25D-14  0.99D-15  6  6     0.29     0.04
  14      1.11916116    -0.36393584  -115.41271989     0.00000000    -0.00000000  0.24D-15  0.13D-15  6  3     0.31     0.04
  15      1.11916116    -0.36393584  -115.41271989    -0.00000000    -0.00000000  0.27D-16  0.18D-16  6  2     0.33     0.04
  16      1.11916116    -0.36393584  -115.41271989    -0.00000000    -0.00000000  0.60D-17  0.18D-17  6  5     0.35     0.04
  17      1.11916116    -0.36393584  -115.41271989    -0.00000000    -0.00000000  0.58D-18  0.27D-18  6  4     0.37     0.04
  18      1.11916116    -0.36393584  -115.41271989     0.00000000    -0.00000000  0.91D-19  0.47D-19  6  1     0.39     0.04
  19      1.11916116    -0.36393584  -115.41271989    -0.00000000    -0.00000000  0.10D-19  0.47D-20  6  6     0.41     0.04
  20      1.11916116    -0.36393584  -115.41271989     0.00000000     0.00000000  0.14D-20  0.61D-21  6  3     0.43     0.04

 Norm of t1 vector:      0.04195291      S-energy:    -0.00000000      T1 diagnostic:  0.00792836
                                                                       D1 diagnostic:  0.01765979
                                                                       D2 diagnostic:  0.13491975 (internal)


 Total CPU time for triples:      0.08 sec


 RESULTS
 =======

  Reference energy                   -115.048784051041
  CCSD singlet pair energy             -0.255226791984
  CCSD triplet pair energy             -0.108709049549
  CCSD correlation energy              -0.363935841533

  Triples (T) contribution             -0.007797920945
  Total correlation energy             -0.371733762479

  CCSD total energy                  -115.412719892574
  CCSD[T] energy                     -115.420812770356
  CCSD-T energy                      -115.420365082645
 !CCSD(T) total energy               -115.420517813519

 Timing summary (sec):

 STEP                 CPU(USER)    SYS     CPU(TOT)    WALL
 Transformation          0.03      0.01      0.04      0.04
 CCSD iterations         0.40      0.06      0.46      0.78
 Triples                 0.08      0.00      0.08      0.09

 Program statistics:

 Available memory in ccsd:               999999795
 Min. memory needed in ccsd:                136177
 Max. memory used in ccsd:                  162910
 Max. memory used in cckext:                178997 (20 integral passes)



 **********************************************************************************************************************************
 DATASETS  * FILE   NREC   LENGTH (MB)   RECORD NAMES
              1      19       31.13       500      610      700      900      950      970     1000      129      960     1100   
                                          VAR    BASINP    GEOM    SYMINP    ZMAT    AOBASIS   BASIS     P2S    ABASIS      S 
                                         1400     1410     1200     1210     1080     1600     1650     1700     1380   
                                           T        V       H0       H01     AOSYM     SMH    MOLCAS    OPER     JKOP   

              2       4        0.47       700     1000      520     2100   
                                         GEOM     BASIS   MCVARS     RHF  

 PROGRAMS   *        TOTAL   CCSD(T)   RHF-SCF       INT
 CPU TIMES  *         1.07      0.55      0.05      0.31
 REAL TIME  *         3.25 SEC
 DISK USED  *        35.56 MB (local),      115.96 MB (total)
 SF USED    *         5.97 MB
 GA USED    *         0.00 MB       (max)       0.00 MB       (current)
 **********************************************************************************************************************************

 CCSD(T)/cc-pVDZ energy=   -115.420517813519

         CCSD(T)         RHF-SCF
   -115.42051781   -115.04878405
 **********************************************************************************************************************************
 Molpro calculation terminated
