[Molden Format]
[ATOMS] AU
H        1    1       -0.0000000000       -1.4246254000        0.9959240800
O        2    8        0.0000000000        0.0000000000       -0.1255045400
H        3    1       -0.0000000000        1.4246254000        0.9959240800
[Molden Format]
 [FREQ]
     1668.9144991051
     3841.0031516992
     3945.6440213392
 [FR-COORD]
H           -0.0000000000       -1.4246254000        0.9959240800
O            0.0000000000        0.0000000000       -0.1255045400
H           -0.0000000000        1.4246254000        0.9959240800
 [FR-NORM-COORD]
  vibration                      1
        0.0000000000        0.1543580108        0.0748284233
        0.0000000000        0.0000050032       -0.1496529083
        0.0000000000       -0.1543630139        0.0748244850
  vibration                      2
        0.0000000000        0.1686912432       -0.0433722407
        0.0000000000       -0.0002388492        0.0865564654
        0.0000000000       -0.1684523940       -0.0431842247
  vibration                      3
       -0.0000000000        0.0741639628       -0.0587549420
        0.0000000000       -0.1491695799        0.0000874120
        0.0000000000        0.0750056171        0.0586675300
