
 Working directory              : /scratch/mel64643/tmp/40073202/
 Global scratch directory       : /scratch/mel64643/tmp/40073202/
 Wavefunction directory         : /home/mel64643/wfu/
 Main file repository           : /scratch/mel64643/tmp/40073202/

 id        : ccgc

 Nodes     nprocs
 a1-8         3
 Distribution of processes:   nprocs(total)=    4   nprocs(compute)=    3   nprocs(helper)=    1
 GA implementation: MPI file
 GA implementation (serial work in mppx): MPI file

 Using customized tuning parameters: mindgm=1; mindgv=20; mindgc=4; mindgr=1; noblas=0; minvec=7
 default implementation of scratch files=sf  


 Variables initialized (1015), CPU time= 0.01 sec
 ***,Optimization of min3
 memory,1000,m
 gthresh,energy=1.0d-12,orbital=1.0d-10,oneint=1.0d-16,twoint=1.0d-16,optgrad=1.0d-6,compress=1.0d-13
 geomtyp=xyz
 
  bohr
  geometry = {
  6
  arbitrary comment
  C   -1.3792995856   -0.0301076733    0.0000006440
  O    1.3102309898    0.1126204788    0.0000002658
  H   -2.0788979214    1.9112934864   -0.0000799990
  H   -2.1073682747   -0.9769572675    1.6824971504
  H   -2.1073613675   -0.9770885014   -1.6824252391
  H    1.9389719993   -1.5698926430   -0.0000012321
 }
 
 basis=cc-pvdz
 {rhf;maxit,200}
 {ccsd(t);maxit,200}
 Commands initialized (818), CPU time= 0.01 sec, 672 directives.
 Default parameters read. Elapsed time= 0.10 sec

 Checking input...
 Passed
1


                                         ***  PROGRAM SYSTEM MOLPRO  ***
                                       Copyright, TTI GmbH Stuttgart, 2015
                                    Version 2022.1 linked Mar  4 2022 00:40:14


 **********************************************************************************************************************************
 LABEL *   Optimization of min3                                                          
  64 bit mpp version                                                                     DATE: 07-Aug-25          TIME: 21:24:34  
 **********************************************************************************************************************************

 SHA1:             31073afc4d8441e10870424e0d77336a33bc4286
 **********************************************************************************************************************************

 Memory per process:      1000 MW
 Total memory per node:   3000 MW

 GA preallocation disabled
 GA check disabled

 Variable memory set to 1000.0 MW


 THRESHOLDS:

 ZERO    =  1.00D-12  ONEINT  =  1.00D-16  TWOINT  =  1.00D-16  PREFAC  =  1.00D-14  XXXXXX  =  1.00D-09  EORDER  =  1.00D-04
 ENERGY  =  1.00D-12  ETEST   =  0.00D+00  EDENS   =  0.00D+00  THRDEDEF=  1.00D-06  GRADIENT=  1.00D-05  STEP    =  1.00D-03
 ORBITAL =  1.00D-10  CIVEC   =  1.00D-05  COEFF   =  1.00D-04  PRINTCI =  5.00D-02  PUNCHCI =  9.90D+01  OPTGRAD =  1.00D-06
 OPTENERG=  1.00D-06  OPTSTEP =  3.00D-04  THRGRAD =  1.00D-10  COMPRESS=  1.00D-13  VARMIN  =  1.00D-07  VARMAX  =  1.00D-03
 THRDOUB =  0.00D+00  THRDIV  =  1.00D-05  THRRED  =  1.00D-07  THRPSP  =  1.00D+00  THRDC   =  1.00D-10  THRCS   =  1.00D-10
 THRNRM  =  1.00D-08  THREQ   =  0.00D+00  THRDE   =  1.00D+00  THRREF  =  1.00D-05  SPARFAC =  1.00D+00  THRDLP  =  1.00D-07
 THRDIA  =  1.00D-10  THRDLS  =  1.00D-07  THRGPS  =  0.00D+00  THRKEX  =  0.00D+00  THRDIS  =  2.00D-01  THRVAR  =  1.00D-10
 THRLOC  =  1.00D-06  THRGAP  =  1.00D-06  THRLOCT = -1.00D+00  THRGAPT = -1.00D+00  THRORB  =  1.00D-06  THRMLTP =  0.00D+00
 THRCPQCI=  1.00D-10  KEXTA   =  0.00D+00  THRCOARS=  0.00D+00  SYMTOL  =  1.00D-06  GRADTOL =  1.00D-06  THROVL  =  1.00D-08
 THRORTH =  1.00D-08  THRDLOVL= -1.00D+00  GRID    =  1.00D-06  GRIDMAX =  1.00D-03  DTMAX   =  0.00D+00  THROCCDE=  1.00D-01
 THROCCDE=  1.00D-01  THRPRINT=  2.50D-01

 SETTING GEOMTYP        =    XYZ
 ZUNIT=BOHR

 SETTING BASIS          =    CC-PVDZ


 Recomputing integrals since basis changed


 Using spherical harmonics

 Library entry C      S cc-pVDZ              selected for orbital group  1
 Library entry C      P cc-pVDZ              selected for orbital group  1
 Library entry C      D cc-pVDZ              selected for orbital group  1
 Library entry O      S cc-pVDZ              selected for orbital group  2
 Library entry O      P cc-pVDZ              selected for orbital group  2
 Library entry O      D cc-pVDZ              selected for orbital group  2
 Library entry H      S cc-pVDZ              selected for orbital group  3
 Library entry H      P cc-pVDZ              selected for orbital group  3


 PROGRAM * SEWARD (Integral evaluation for generally contracted gaussian basis sets)     Author: Roland Lindh, 1990

 Geometry written to block  1 of record 700


 Point group  C1  



 ATOMIC COORDINATES

 NR  ATOM    CHARGE       X              Y              Z

   1  C       6.00   -1.379299586   -0.030107673    0.000000644
   2  O       8.00    1.310230990    0.112620479    0.000000266
   3  H       1.00   -2.078897921    1.911293486   -0.000079999
   4  H       1.00   -2.107368275   -0.976957268    1.682497150
   5  H       1.00   -2.107361367   -0.977088501   -1.682425239
   6  H       1.00    1.938971999   -1.569892643   -0.000001232

 Bond lengths in Bohr (Angstrom)

 1-2  2.693315065  1-3  2.063607594  1-4  2.063347441  1-5  2.063347644  2-6  1.796153017
     ( 1.425240954)     ( 1.092014111)     ( 1.091876444)     ( 1.091876551)     ( 0.950483244)

 Bond angles

  1-2-6  107.45256721   2-1-3  106.77927800   2-1-4  112.12821613   2-1-5  112.12820139

  3-1-4  108.18713549   3-1-5  108.18696726   4-1-5  109.25459445

 NUCLEAR CHARGE:                   18
 NUMBER OF PRIMITIVE AOS:          82
 NUMBER OF SYMMETRY AOS:           80
 NUMBER OF CONTRACTIONS:           48   (   48A   )
 NUMBER OF INNER CORE ORBITALS:     0   (    0A   )
 NUMBER OF OUTER CORE ORBITALS:     2   (    2A   )
 NUMBER OF VALENCE ORBITALS:       12   (   12A   )


 NUCLEAR REPULSION ENERGY   40.29858962

 Eigenvalues of metric

         1 0.966E-02 0.177E-01 0.367E-01 0.372E-01 0.378E-01 0.470E-01 0.476E-01 0.516E-01


 Contracted 2-electron integrals neglected if value below      1.0D-16
 AO integral compression algorithm  1   Integral accuracy      1.0D-16

     6.816 MB (compressed) written to integral file ( 98.6%)

     Node minimum: 2.097 MB, node maximum: 2.359 MB


 NUMBER OF SORTED TWO-ELECTRON INTEGRALS:     231084.     BUFFER LENGTH:  32768
 NUMBER OF SEGMENTS:   1  SEGMENT LENGTH:     231084      RECORD LENGTH: 524288

 Memory used in sort:       0.79 MW

 SORT1 READ      832256. AND WROTE      227683. INTEGRALS IN      1 RECORDS. CPU TIME:     0.01 SEC, REAL TIME:     0.04 SEC
 SORT2 READ      682150. AND WROTE      692076. INTEGRALS IN     24 RECORDS. CPU TIME:     0.01 SEC, REAL TIME:     0.02 SEC

 Node minimum:      230300.  Node maximum:      231084. integrals

 OPERATOR DM      FOR CENTER  0  COORDINATES:    0.000000    0.000000    0.000000


 **********************************************************************************************************************************
 DATASETS  * FILE   NREC   LENGTH (MB)   RECORD NAMES
              1      18       28.73       500      610      700      900      950      970     1000      129      960     1100   
                                          VAR    BASINP    GEOM    SYMINP    ZMAT    AOBASIS   BASIS     P2S    ABASIS      S 
                                         1400     1410     1200     1210     1080     1600     1650     1700   
                                           T        V       H0       H01     AOSYM     SMH    MOLCAS    OPER   

 PROGRAMS   *        TOTAL       INT
 CPU TIMES  *         0.49      0.35
 REAL TIME  *         1.78 SEC
 DISK USED  *        29.07 MB (local),      104.32 MB (total)
 GA USED    *         0.00 MB       (max)       0.00 MB       (current)
 **********************************************************************************************************************************


 Program * Restricted Hartree-Fock

 Orbital guess generated from atomic densities. Full valence occupancy:   14

 Initial occupancy:   9

 NELEC=   18   SYM=1   MS2= 0   THRE=1.0D-12   THRD=1.0D-10   THRG=1.0D-10  HFMA2=F  DIIS_START=2   DIIS_MAX=10   DIIS_INCORE=F

 Level shifts:    0.00 (CLOSED)    0.00 (OPEN)    0.30 (GAP_MIN)

 ITER           ETOT              DE          GRAD        DDIFF     DIIS  NEXP   TIME(IT)  TIME(TOT)  DIAG
   1     -115.01438491    -115.01438491     0.00D+00     0.16D+00     0     0       0.01      0.01    start
   2     -115.04264822      -0.02826331     0.10D-01     0.21D-01     1     0       0.00      0.01    diag
   3     -115.04866910      -0.00602089     0.48D-02     0.64D-02     2     0       0.00      0.01    diag
   4     -115.04912626      -0.00045716     0.10D-02     0.20D-02     3     0       0.00      0.01    diag
   5     -115.04914650      -0.00002023     0.18D-03     0.43D-03     4     0       0.01      0.02    diag
   6     -115.04914724      -0.00000075     0.32D-04     0.91D-04     5     0       0.01      0.03    diag
   7     -115.04914727      -0.00000003     0.65D-05     0.14D-04     6     0       0.00      0.03    diag
   8     -115.04914727      -0.00000000     0.21D-05     0.48D-05     7     0       0.00      0.03    fixocc
   9     -115.04914727      -0.00000000     0.43D-06     0.13D-05     8     0       0.01      0.04    diag
  10     -115.04914727      -0.00000000     0.64D-07     0.22D-06     9     0       0.00      0.04    diag/orth
  11     -115.04914727      -0.00000000     0.14D-07     0.39D-07     9     0       0.00      0.04    diag
  12     -115.04914727      -0.00000000     0.37D-08     0.11D-07     9     0       0.00      0.04    diag
  13     -115.04914727       0.00000000     0.62D-09     0.18D-08     9     0       0.01      0.05    diag
  14     -115.04914727      -0.00000000     0.14D-09     0.37D-09     9     0       0.00      0.05    diag
  15     -115.04914727      -0.00000000     0.56D-10     0.10D-09     9     0       0.00      0.05    diag
  16     -115.04914727      -0.00000000     0.13D-10     0.30D-10     9     0       0.00      0.05    diag
  17     -115.04914727       0.00000000     0.22D-11     0.43D-11     0     0       0.00      0.05    diag

 Final occupancy:   9

 !RHF STATE 1.1 Energy               -115.049147272930
  RHF One-electron energy            -236.856982291714
  RHF Two-electron energy              81.509245399891
  RHF Kinetic energy                  114.955220200000
  RHF Nuclear energy                   40.298589618892
  RHF Virial quotient                  -1.000817075317

 !RHF STATE 1.1 Dipole moment          -0.40250038    -0.59319564    -0.00000254
 Dipole moment /Debye                  -1.02305393    -1.50775292    -0.00000645

 Orbital energies:

           1.1          2.1          3.1          4.1          5.1          6.1          7.1          8.1          9.1         10.1
    -20.548773   -11.274868    -1.350168    -0.922486    -0.683369    -0.614442    -0.583592    -0.497445    -0.444105     0.185249

          11.1
      0.225249


 HOMO      9.1    -0.444105 =     -12.0847eV
 LUMO     10.1     0.185249 =       5.0409eV
 LUMO-HOMO         0.629354 =      17.1256eV

 Orbitals saved in record  2100.2


 **********************************************************************************************************************************
 DATASETS  * FILE   NREC   LENGTH (MB)   RECORD NAMES
              1      18       28.73       500      610      700      900      950      970     1000      129      960     1100   
                                          VAR    BASINP    GEOM    SYMINP    ZMAT    AOBASIS   BASIS     P2S    ABASIS      S 
                                         1400     1410     1200     1210     1080     1600     1650     1700   
                                           T        V       H0       H01     AOSYM     SMH    MOLCAS    OPER   

              2       4        0.47       700     1000      520     2100   
                                         GEOM     BASIS   MCVARS     RHF  

 PROGRAMS   *        TOTAL   RHF-SCF       INT
 CPU TIMES  *         0.55      0.05      0.35
 REAL TIME  *         2.13 SEC
 DISK USED  *        29.40 MB (local),      105.31 MB (total)
 GA USED    *         0.00 MB       (max)       0.00 MB       (current)
 **********************************************************************************************************************************


 PROGRAM * CCSD (Closed-shell coupled cluster)     Authors: C. Hampel, H.-J. Werner, 1991, M. Deegan, P.J. Knowles, 1992


 Convergence thresholds:  THRVAR = 1.00D-08  THRDEN = 1.00D-12

 CCSD(T)     terms to be evaluated (factor= 1.000)


 Number of core orbitals:           2 (   2 )
 Number of closed-shell orbitals:   7 (   7 )
 Number of external orbitals:      39 (  39 )

 Molecular orbitals read from record     2100.2  Type=RHF/CANONICAL  

 Number of N-1 electron functions:               7
 Number of N-2 electron functions:              28
 Number of singly external CSFs:               273
 Number of doubly external CSFs:             37401
 Total number of CSFs:                       37675

 Length of J-op  integral file:               0.00 MB
 Length of K-op  integral file:               0.16 MB
 Length of 3-ext integral record:             0.00 MB

 Memory could be reduced to 0.73 Mwords without degradation in triples

 Integral transformation finished. Total CPU:   0.02 sec, npass=  1  Memory used:   0.66 MW

 Reference energy:                   -115.04914727

 MP2 singlet pair energy:              -0.21844736
 MP2 triplet pair energy:              -0.11971914
 MP2 correlation energy:               -0.33816650
 MP2 total energy:                   -115.38731378

 SCS-MP2 correlation energy:           -0.33662875   (PS=  1.200000  PT=  0.333333)
 SCS-MP2 total energy:               -115.38577602

 ITER.      SQ.NORM     CORR.ENERGY   TOTAL ENERGY   ENERGY CHANGE        DEN1      VAR(S)    VAR(P)  DIIS     TIME  TIME/IT
   1      1.10713736    -0.36098997  -115.41013725    -0.02282347    -0.01416758  0.91D-03  0.17D-02  1  1     0.05     0.04
   2      1.11562949    -0.36292608  -115.41207335    -0.00193611    -0.00922677  0.20D-04  0.16D-03  2  2     0.07     0.03
   3      1.11749576    -0.36305292  -115.41220019    -0.00012684    -0.00119587  0.94D-05  0.85D-05  3  3     0.09     0.03
   4      1.11800667    -0.36305132  -115.41219860     0.00000159    -0.00025313  0.32D-06  0.67D-06  4  4     0.11     0.03
   5      1.11810393    -0.36305169  -115.41219896    -0.00000037    -0.00003586  0.96D-07  0.48D-07  5  5     0.13     0.03
   6      1.11812262    -0.36305035  -115.41219762     0.00000134    -0.00000429  0.15D-07  0.40D-08  6  6     0.15     0.04
   7      1.11812724    -0.36304993  -115.41219721     0.00000042    -0.00000034  0.19D-08  0.70D-09  6  1     0.16     0.04
   8      1.11812847    -0.36305004  -115.41219731    -0.00000010     0.00000073  0.25D-09  0.70D-10  6  3     0.18     0.04
   9      1.11812952    -0.36304991  -115.41219719     0.00000012    -0.00000038  0.12D-10  0.10D-10  6  2     0.20     0.04
  10      1.11812945    -0.36304991  -115.41219719    -0.00000000     0.00000007  0.11D-11  0.85D-12  6  5     0.22     0.04
  11      1.11812948    -0.36304991  -115.41219719     0.00000000    -0.00000000  0.18D-12  0.49D-13  6  4     0.24     0.04
  12      1.11812946    -0.36304991  -115.41219719    -0.00000000     0.00000001  0.18D-13  0.96D-14  6  1     0.26     0.04
  13      1.11812947    -0.36304991  -115.41219719    -0.00000000    -0.00000000  0.23D-14  0.90D-15  6  6     0.28     0.03
  14      1.11812947    -0.36304991  -115.41219719     0.00000000    -0.00000000  0.22D-15  0.12D-15  6  3     0.31     0.03
  15      1.11812947    -0.36304991  -115.41219719    -0.00000000    -0.00000000  0.24D-16  0.16D-16  6  2     0.33     0.03
  16      1.11812947    -0.36304991  -115.41219719    -0.00000000    -0.00000000  0.53D-17  0.15D-17  6  5     0.35     0.03
  17      1.11812947    -0.36304991  -115.41219719    -0.00000000    -0.00000000  0.51D-18  0.24D-18  6  4     0.37     0.03
  18      1.11812947    -0.36304991  -115.41219719     0.00000000    -0.00000000  0.79D-19  0.40D-19  6  1     0.39     0.03
  19      1.11812947    -0.36304991  -115.41219719    -0.00000000    -0.00000000  0.87D-20  0.41D-20  6  6     0.41     0.03
  20      1.11812947    -0.36304991  -115.41219719     0.00000000     0.00000000  0.12D-20  0.52D-21  6  3     0.43     0.03

 Norm of t1 vector:      0.04153060      S-energy:    -0.00000000      T1 diagnostic:  0.00784855
                                                                       D1 diagnostic:  0.01767565
                                                                       D2 diagnostic:  0.13450491 (internal)


 Total CPU time for triples:      0.09 sec


 RESULTS
 =======

  Reference energy                   -115.049147272930
  CCSD singlet pair energy             -0.254354608866
  CCSD triplet pair energy             -0.108695305802
  CCSD correlation energy              -0.363049914668

  Triples (T) contribution             -0.007719045557
  Total correlation energy             -0.370768960224

  CCSD total energy                  -115.412197187598
  CCSD[T] energy                     -115.420205388760
  CCSD-T energy                      -115.419766546009
 !CCSD(T) total energy               -115.419916233155

 Timing summary (sec):

 STEP                 CPU(USER)    SYS     CPU(TOT)    WALL
 Transformation          0.02      0.01      0.03      0.04
 CCSD iterations         0.41      0.07      0.48      0.73
 Triples                 0.09      0.00      0.09      0.09

 Program statistics:

 Available memory in ccsd:               999999795
 Min. memory needed in ccsd:                136177
 Max. memory used in ccsd:                  162910
 Max. memory used in cckext:                178997 (20 integral passes)



 **********************************************************************************************************************************
 DATASETS  * FILE   NREC   LENGTH (MB)   RECORD NAMES
              1      19       31.13       500      610      700      900      950      970     1000      129      960     1100   
                                          VAR    BASINP    GEOM    SYMINP    ZMAT    AOBASIS   BASIS     P2S    ABASIS      S 
                                         1400     1410     1200     1210     1080     1600     1650     1700     1380   
                                           T        V       H0       H01     AOSYM     SMH    MOLCAS    OPER     JKOP   

              2       4        0.47       700     1000      520     2100   
                                         GEOM     BASIS   MCVARS     RHF  

 PROGRAMS   *        TOTAL   CCSD(T)   RHF-SCF       INT
 CPU TIMES  *         1.11      0.56      0.05      0.35
 REAL TIME  *         3.07 SEC
 DISK USED  *        35.56 MB (local),      115.96 MB (total)
 SF USED    *         5.97 MB
 GA USED    *         0.00 MB       (max)       0.00 MB       (current)
 **********************************************************************************************************************************

 CCSD(T)/cc-pVDZ energy=   -115.419916233155

         CCSD(T)         RHF-SCF
   -115.41991623   -115.04914727
 **********************************************************************************************************************************
 Molpro calculation terminated
