
 Primary working directories    : /tmp/795519.22.gen6.q
 Secondary working directories  : /tmp/795519.22.gen6.q
 Wavefunction directory         : /home/vulcan/mel64643/wfu/
 Main file repository           : /tmp/795519.22.gen6.q/

 ARCHNAME  : Linux/x86_64
 FC        : /opt/intel/compilers_and_libraries_2016.1.150/linux/bin/intel64/ifort
 FCVERSION : 16.0.1
 BLASLIB   : -mkl
 id        : ccgc

 Nodes     nprocs
 n082         1
 ga_uses_ma=false, calling ma_init with nominal heap.
 GA-space will be limited to   8.0 MW (determined by -G option)

 Using customized tuning parameters: mindgm=10; mindgv=16; mindgc=4; mindgr=1; noblas=0; mincuda=1000; minvec=7
 default implementation of scratch files=df  

 ***,Optimization of min3
 memory,1000,m
 gthresh,energy=1.0d-12,orbital=1.0d-10,oneint=1.0d-16,twoint=1.0d-16,optgrad=1.0d-6,compress=1.0d-13
 geomtyp=xyz
 
  bohr
  geometry = {
  6
  arbitrary comment
  C   -1.3748334449   -0.0259150068    0.0000004260
  O    1.3080319082    0.1209284348    0.0000003602
  H   -2.0862089384    1.9116170765   -0.0000799362
  H   -2.1066892091   -0.9768340125    1.6831446488
  H   -2.1066819682   -0.9769653484   -1.6830726539
  H    1.9426574924   -1.5829632635   -0.0000012548
 }
 
 basis=cc-pvdz
 {rhf;maxit,200}
 {ccsd(t);maxit,200}

 Variables initialized (661), CPU time= 0.00 sec
 Commands  initialized (458), CPU time= 0.01 sec, 486 directives.
 Default parameters read. Elapsed time= 0.05 sec

 Checking input...
 Passed
1


                                         ***  PROGRAM SYSTEM MOLPRO  ***
                         Copyright, University College Cardiff Consultants Limited, 2008

                                    Version 2010.1 linked May 16 2016 07:17:05


 **********************************************************************************************************************************
 LABEL *   Optimization of min3                                                          
 Linux-4.4.3/n082(x86_64) 64 bit mpp version                                             DATE: 24-Oct-22          TIME: 15:41:06  
 **********************************************************************************************************************************

 SHA1:             9e8077add272b0f3cad6f7df79ec5211205f459d
 **********************************************************************************************************************************

 THRESHOLDS:

 ZERO    =  1.00D-12  ONEINT  =  1.00D-16  TWOINT  =  1.00D-16  PREFAC  =  1.00D-14  LOCALI  =  1.00D-09  EORDER  =  1.00D-04
 ENERGY  =  1.00D-12  ETEST   =  0.00D+00  EDENS   =  0.00D+00  THRDEDEF=  1.00D-06  GRADIENT=  1.00D-02  STEP    =  1.00D-03
 ORBITAL =  1.00D-10  CIVEC   =  1.00D-05  COEFF   =  1.00D-04  PRINTCI =  5.00D-02  PUNCHCI =  9.90D+01  OPTGRAD =  1.00D-06
 OPTENERG=  1.00D-06  OPTSTEP =  3.00D-04  THRGRAD =  1.00D-10  COMPRESS=  1.00D-13  VARMIN  =  1.00D-07  VARMAX  =  1.00D-03
 THRDOUB =  0.00D+00  THRDIV  =  1.00D-05  THRRED  =  1.00D-07  THRPSP  =  1.00D+00  THRDC   =  1.00D-10  THRCS   =  1.00D-10
 THRNRM  =  1.00D-08  THREQ   =  0.00D+00  THRDE   =  1.00D+00  THRREF  =  1.00D-05  SPARFAC =  1.00D+00  THRDLP  =  1.00D-07
 THRDIA  =  1.00D-10  THRDLS  =  1.00D-07  THRGPS  =  0.00D+00  THRKEX  =  0.00D+00  THRDIS  =  2.00D-01  THRVAR  =  1.00D-10
 THRLOC  =  1.00D-06  THRGAP  =  1.00D-06  THRLOCT = -1.00D+00  THRGAPT = -1.00D+00  THRORB  =  1.00D-06  THRMLTP =  0.00D+00
 THRCPQCI=  1.00D-10  KEXTA   =  0.00D+00  THRCOARS=  0.00D+00  SYMTOL  =  1.00D-06  GRADTOL =  1.00D-06  THROVL  =  1.00D-08
 THRORTH =  1.00D-08  GRID    =  1.00D-06  GRIDMAX =  1.00D-03  DTMAX   =  0.00D+00

 SETTING GEOMTYP        =    XYZ
 ZUNIT=BOHR
 

 Variable memory set to 1000000000 words,  buffer space   230000 words

 SETTING BASIS          =    CC-PVDZ


 Recomputing integrals since basis changed


 Using spherical harmonics

 Library entry C      S cc-pVDZ              selected for orbital group  1
 Library entry C      P cc-pVDZ              selected for orbital group  1
 Library entry C      D cc-pVDZ              selected for orbital group  1
 Library entry O      S cc-pVDZ              selected for orbital group  2
 Library entry O      P cc-pVDZ              selected for orbital group  2
 Library entry O      D cc-pVDZ              selected for orbital group  2
 Library entry H      S cc-pVDZ              selected for orbital group  3
 Library entry H      P cc-pVDZ              selected for orbital group  3

1PROGRAM * SEWARD (Integral evaluation for generally contracted gaussian basis sets)     Author: Roland Lindh, 1990

 Geometry written to block  1 of record 700


 Point group  C1  



 ATOMIC COORDINATES

 NR  ATOM    CHARGE       X              Y              Z

   1  C       6.00   -1.374833445   -0.025915007    0.000000426
   2  O       8.00    1.308031908    0.120928435    0.000000360
   3  H       1.00   -2.086208938    1.911617077   -0.000079936
   4  H       1.00   -2.106689209   -0.976834013    1.683144649
   5  H       1.00   -2.106681968   -0.976965348   -1.683072654
   6  H       1.00    1.942657492   -1.582963263   -0.000001255

 Bond lengths in Bohr (Angstrom)

 1-2  2.686880998  1-3  2.063997498  1-4  2.067083523  1-5  2.067083454  2-6  1.818239960
     ( 1.421836188)     ( 1.092220436)     ( 1.093853489)     ( 1.093853453)     ( 0.962171147)

 Bond angles

  1-2-6  107.29528469   2-1-3  107.02809628   2-1-4  112.25099831   2-1-5  112.25099505

  3-1-4  108.04999241   3-1-5  108.04983910   4-1-5  109.02519756

 NUCLEAR CHARGE:                   18
 NUMBER OF PRIMITIVE AOS:          82
 NUMBER OF SYMMETRY AOS:           80
 NUMBER OF CONTRACTIONS:           48   (  48A   )
 NUMBER OF CORE ORBITALS:           2   (   2A   )
 NUMBER OF VALENCE ORBITALS:       12   (  12A   )


 NUCLEAR REPULSION ENERGY   40.27138669


 Eigenvalues of metric

         1 0.968E-02 0.177E-01 0.370E-01 0.374E-01 0.385E-01 0.472E-01 0.479E-01 0.521E-01


 Contracted 2-electron integrals neglected if value below      1.0D-16
 AO integral compression algorithm  1   Integral accuracy      1.0D-16

     6.291 MB (compressed) written to integral file ( 98.3%)

     Node minimum: 6.291 MB, node maximum: 6.291 MB


 NUMBER OF SORTED TWO-ELECTRON INTEGRALS:     692076.     BUFFER LENGTH:  32768
 NUMBER OF SEGMENTS:   1  SEGMENT LENGTH:     692076      RECORD LENGTH: 524288

 Memory used in sort:       1.25 MW

 SORT1 READ      832256. AND WROTE      682148. INTEGRALS IN      2 RECORDS. CPU TIME:     0.00 SEC, REAL TIME:     0.01 SEC
 SORT2 READ      682148. AND WROTE      692076. INTEGRALS IN     24 RECORDS. CPU TIME:     0.02 SEC, REAL TIME:     0.02 SEC

 FILE SIZES:   FILE 1:     8.0 MBYTE,  FILE 4:     8.4 MBYTE,   TOTAL:     16.4 MBYTE

 OPERATOR DM      FOR CENTER  0  COORDINATES:    0.000000    0.000000    0.000000


 **********************************************************************************************************************************
 DATASETS  * FILE   NREC   LENGTH (MB)   RECORD NAMES
              1      19        8.03       500      610      700      900      950      970     1000      129      960     1100   
                                          VAR    BASINP    GEOM    SYMINP    ZMAT    AOBASIS   BASIS     P2S    ABASIS      S 
                                         1400     1410     1200     1210     1080     1600     1650     1300     1700   
                                           T        V       H0       H01     AOSYM     SMH    MOLCAS    ERIS     OPER   

 PROGRAMS   *        TOTAL       INT
 CPU TIMES  *         0.18      0.14
 REAL TIME  *         0.37 SEC
 DISK USED  *        23.34 MB      
 GA USED    *         0.00 MB       (max)       0.00 MB       (current)
 **********************************************************************************************************************************

1PROGRAM * RHF-SCF (CLOSED SHELL)       Authors: W. Meyer, H.-J. Werner


 NUMBER OF ELECTRONS:       9+    9-    SPACE SYMMETRY=1    SPIN SYMMETRY: Singlet 
 CONVERGENCE THRESHOLDS:    1.00E-10 (Density)    1.00E-13 (Energy)
 MAX. NUMBER OF ITERATIONS:      200
 INTERPOLATION TYPE:            DIIS
 INTERPOLATION STEPS:              2 (START)      1 (STEP)
 LEVEL SHIFTS:                  0.00 (CLOSED)  0.00 (OPEN) 



 Orbital guess generated from atomic densities. Full valence occupancy:   14

 Molecular orbital dump at record        2100.2

 ITERATION    DDIFF          GRAD             ENERGY        2-EL.EN.            DIPOLE MOMENTS         DIIS
    1      0.000D+00      0.000D+00      -115.01405588    164.324448   -0.49611   -0.90249   -0.00000    0
    2      0.000D+00      0.110D-01      -115.04243001    162.104643   -0.31759   -0.53712   -0.00000    1
    3      0.205D-01      0.531D-02      -115.04848870    163.130586   -0.40156   -0.61295   -0.00000    2
    4      0.640D-02      0.112D-02      -115.04895445    162.974196   -0.39153   -0.60189   -0.00000    3
    5      0.204D-02      0.203D-03      -115.04897573    162.980653   -0.39442   -0.59764   -0.00000    4
    6      0.435D-03      0.357D-04      -115.04897655    162.980777   -0.39475   -0.59745   -0.00000    5
    7      0.936D-04      0.744D-05      -115.04897658    162.979592   -0.39489   -0.59728   -0.00000    6
    8      0.153D-04      0.240D-05      -115.04897658    162.979980   -0.39493   -0.59726   -0.00000    7
    9      0.510D-05      0.498D-06      -115.04897658    162.979938   -0.39494   -0.59726   -0.00000    6
   10      0.143D-05      0.898D-07      -115.04897658    162.979937   -0.39495   -0.59725   -0.00000    6
   11      0.240D-06      0.336D-07      -115.04897658    162.979943   -0.39495   -0.59726   -0.00000    6
   12      0.609D-07      0.141D-07      -115.04897658    162.979941   -0.39495   -0.59726   -0.00000    7
   13      0.264D-07      0.312D-08      -115.04897658    162.979941   -0.39495   -0.59726   -0.00000    7
   14      0.779D-08      0.661D-09      -115.04897658    162.979941   -0.39495   -0.59726   -0.00000    7
   15      0.169D-08      0.154D-09      -115.04897658    162.979941   -0.39495   -0.59726   -0.00000    7
   16      0.343D-09      0.462D-10      -115.04897658    162.979941   -0.39495   -0.59726   -0.00000    7
   17      0.894D-10      0.167D-10      -115.04897658    162.979941   -0.39495   -0.59726   -0.00000    7
   18      0.427D-10      0.302D-11      -115.04897658    162.979941   -0.39495   -0.59726   -0.00000    7
   19      0.708D-11      0.676D-12      -115.04897658    162.979941   -0.39495   -0.59726   -0.00000    7
   20      0.171D-11      0.269D-12      -115.04897658    162.979941   -0.39495   -0.59726   -0.00000    0

 Final occupancy:   9

 !RHF STATE 1.1 Energy               -115.048976580334
 Nuclear energy                        40.27138669
 One-electron energy                 -236.81033367
 Two-electron energy                   81.48997040
 Virial quotient                       -1.00100808
 !RHF STATE 1.1 Dipole moment          -0.39494640    -0.59725548    -0.00000275
 Dipole moment /Debye                  -1.00378788    -1.51797258    -0.00000699

 Orbital energies:

         1.1          2.1          3.1          4.1          5.1          6.1          7.1          8.1          9.1         10.1
    -20.550286   -11.274940    -1.349011    -0.920870    -0.681844    -0.614089    -0.584255    -0.496483    -0.443419     0.184397

        11.1
      0.223962


 **********************************************************************************************************************************
 DATASETS  * FILE   NREC   LENGTH (MB)   RECORD NAMES
              1      19        8.03       500      610      700      900      950      970     1000      129      960     1100   
                                          VAR    BASINP    GEOM    SYMINP    ZMAT    AOBASIS   BASIS     P2S    ABASIS      S 
                                         1400     1410     1200     1210     1080     1600     1650     1300     1700   
                                           T        V       H0       H01     AOSYM     SMH    MOLCAS    ERIS     OPER   

              2       3        0.39       700     1000     2100   
                                         GEOM     BASIS     RHF  

 PROGRAMS   *        TOTAL       RHF       INT
 CPU TIMES  *         0.26      0.08      0.14
 REAL TIME  *         0.49 SEC
 DISK USED  *        23.34 MB      
 GA USED    *         0.00 MB       (max)       0.00 MB       (current)
 **********************************************************************************************************************************


1PROGRAM * CCSD (Closed-shell coupled cluster)     Authors: C. Hampel, H.-J. Werner, 1991, M. Deegan, P.J. Knowles, 1992


 Convergence thresholds:  THRVAR = 1.00D-08  THRDEN = 1.00D-12

 CCSD(T)     terms to be evaluated (factor= 1.000)


 Number of core orbitals:           2 (   2 )
 Number of closed-shell orbitals:   7 (   7 )
 Number of external orbitals:      39 (  39 )

 Molecular orbitals read from record     2100.2  Type=RHF/CANONICAL (state 1.1)

 Number of N-1 electron functions:               7
 Number of N-2 electron functions:              28
 Number of singly external CSFs:               273
 Number of doubly external CSFs:             37401
 Total number of CSFs:                       37675

 Length of J-op  integral file:               0.00 MB
 Length of K-op  integral file:               0.19 MB
 Length of 3-ext integral record:             0.00 MB

 Memory could be reduced to 0.96 Mwords without degradation in triples

 Integral transformation finished. Total CPU:   0.01 sec, npass=  1  Memory used:   0.66 MW

 Reference energy:                   -115.04897658

 MP2 singlet pair energy:              -0.21877514
 MP2 triplet pair energy:              -0.11988001
 MP2 correlation energy:               -0.33865515
 MP2 total energy:                   -115.38763173

 SCS-MP2 correlation energy:           -0.33712218   (PS=  1.200000  PT=  0.333333)
 SCS-MP2 total energy:               -115.38609876

 ITER.      SQ.NORM     CORR.ENERGY   TOTAL ENERGY   ENERGY CHANGE        DEN1      VAR(S)    VAR(P)  DIIS     TIME
   1      1.10748148    -0.36144958  -115.41042616    -0.02279443    -0.01409390  0.92D-03  0.17D-02  1  1     0.04
   2      1.11603551    -0.36340103  -115.41237761    -0.00195145    -0.00926880  0.20D-04  0.16D-03  2  2     0.08
   3      1.11793087    -0.36352928  -115.41250586    -0.00012825    -0.00121175  0.95D-05  0.87D-05  3  3     0.11
   4      1.11845000    -0.36352807  -115.41250465     0.00000121    -0.00025645  0.34D-06  0.68D-06  4  4     0.14
   5      1.11854904    -0.36352851  -115.41250509    -0.00000043    -0.00003634  0.10D-06  0.50D-07  5  5     0.17
   6      1.11856832    -0.36352714  -115.41250372     0.00000137    -0.00000440  0.16D-07  0.42D-08  6  6     0.21
   7      1.11857314    -0.36352672  -115.41250330     0.00000042    -0.00000036  0.21D-08  0.73D-09  6  1     0.24
   8      1.11857443    -0.36352682  -115.41250340    -0.00000010     0.00000076  0.26D-09  0.74D-10  6  3     0.27
   9      1.11857550    -0.36352670  -115.41250328     0.00000013    -0.00000039  0.13D-10  0.11D-10  6  2     0.30
  10      1.11857543    -0.36352670  -115.41250328    -0.00000000     0.00000007  0.11D-11  0.90D-12  6  5     0.34
  11      1.11857546    -0.36352670  -115.41250328     0.00000000    -0.00000000  0.20D-12  0.52D-13  6  4     0.37
  12      1.11857545    -0.36352670  -115.41250328    -0.00000000     0.00000001  0.19D-13  0.10D-13  6  1     0.40
  13      1.11857545    -0.36352670  -115.41250328    -0.00000000    -0.00000000  0.24D-14  0.96D-15  6  6     0.43
  14      1.11857545    -0.36352670  -115.41250328     0.00000000    -0.00000000  0.22D-15  0.13D-15  6  3     0.47
  15      1.11857545    -0.36352670  -115.41250328    -0.00000000    -0.00000000  0.25D-16  0.17D-16  6  2     0.50
  16      1.11857545    -0.36352670  -115.41250328    -0.00000000    -0.00000000  0.57D-17  0.17D-17  6  5     0.53
  17      1.11857545    -0.36352670  -115.41250328    -0.00000000    -0.00000000  0.55D-18  0.26D-18  6  4     0.56
  18      1.11857545    -0.36352670  -115.41250328     0.00000000    -0.00000000  0.85D-19  0.44D-19  6  1     0.59
  19      1.11857545    -0.36352670  -115.41250328    -0.00000000    -0.00000000  0.97D-20  0.44D-20  6  6     0.63
  20      1.11857545    -0.36352670  -115.41250328     0.00000000     0.00000000  0.14D-20  0.57D-21  6  3     0.66

 Norm of t1 vector:      0.04175239      S-energy:    -0.00000000      T1 diagnostic:  0.00789046
                                                                       D1 diagnostic:  0.01758292


 Total CPU time for triples:      0.17 sec


 RESULTS
 =======

  Reference energy                   -115.048976580334
  CCSD singlet pair energy             -0.254772731248
  CCSD triplet pair energy             -0.108753969740
  CCSD correlation energy              -0.363526700988

  Triples (T) contribution             -0.007754450912
  Total correlation energy             -0.371281151900

  CCSD total energy                  -115.412503281323
  CCSD[T] energy                     -115.420548787869
  CCSD-T energy                      -115.420107162816
 !CCSD(T) total energy               -115.420257732235

 Timing summary (sec):

 STEP                 CPU(USER)    SYS     CPU(TOT)    WALL
 Transformation          0.01      0.00      0.01      0.02
 CCSD iterations         0.65      0.04      0.69      0.72
 Triples                 0.17      0.00      0.17      0.17

 Program statistics:

 Available memory in ccsd:               999999704
 Min. memory needed in ccsd:                136801
 Max. memory used in ccsd:                  163198
 Max. memory used in cckext:                182024 (20 integral passes)



 **********************************************************************************************************************************
 DATASETS  * FILE   NREC   LENGTH (MB)   RECORD NAMES
              1      20       10.56       500      610      700      900      950      970     1000      129      960     1100   
                                          VAR    BASINP    GEOM    SYMINP    ZMAT    AOBASIS   BASIS     P2S    ABASIS      S 
                                         1400     1410     1200     1210     1080     1600     1650     1300     1700     1380   
                                           T        V       H0       H01     AOSYM     SMH    MOLCAS    ERIS     OPER     JKOP   

              2       3        0.39       700     1000     2100   
                                         GEOM     BASIS     RHF  

 PROGRAMS   *        TOTAL   CCSD(T)       RHF       INT
 CPU TIMES  *         1.11      0.84      0.08      0.14
 REAL TIME  *         1.42 SEC
 DISK USED  *        24.77 MB      
 GA USED    *         0.00 MB       (max)       0.00 MB       (current)
 **********************************************************************************************************************************

        CCSD(T)         RHF-SCF 
   -115.42025773   -115.04897658
 **********************************************************************************************************************************
 Variable memory released
