
    -----------------------------------------------------------------------
          Psi4: An Open-Source Ab Initio Electronic Structure Package
                               Psi4 1.4a2.dev629 

                         Git: Rev {master} 2938fc2 dirty


    D. G. A. Smith, L. A. Burns, A. C. Simmonett, R. M. Parrish,
    M. C. Schieber, R. Galvelis, P. Kraus, H. Kruse, R. Di Remigio,
    A. Alenaizan, A. M. James, S. Lehtola, J. P. Misiewicz, M. Scheurer,
    R. A. Shaw, J. B. Schriber, Y. Xie, Z. L. Glick, D. A. Sirianni,
    J. S. O'Brien, J. M. Waldrop, A. Kumar, E. G. Hohenstein,
    B. P. Pritchard, B. R. Brooks, H. F. Schaefer III, A. Yu. Sokolov,
    K. Patkowski, A. E. DePrince III, U. Bozkaya, R. A. King,
    F. A. Evangelista, J. M. Turney, T. D. Crawford, C. D. Sherrill,
    J. Chem. Phys. 152(18) 184108 (2020). https://doi.org/10.1063/5.0006002

                            Additional Code Authors
    E. T. Seidl, C. L. Janssen, E. F. Valeev, M. L. Leininger,
    J. F. Gonthier, R. M. Richard, H. R. McAlexander, M. Saitow, X. Wang,
    P. Verma, and M. H. Lechner

             Previous Authors, Complete List of Code Contributors,
                       and Citations for Specific Modules
    https://github.com/psi4/psi4/blob/master/codemeta.json
    https://github.com/psi4/psi4/graphs/contributors
    http://psicode.org/psi4manual/master/introduction.html#citing-psifour

    -----------------------------------------------------------------------


    Psi4 started on: Friday, 18 September 2020 06:14PM

    Process ID: 22372
    Host:       n016
    PSIDATADIR: /opt/psi/4/master/share/psi4
    Memory:     500.0 MiB
    Threads:    1
    
  ==> Input File <==

--------------------------------------------------------------------------
# o-Benzyne preliminary computations

memory 14 gb

molecule {
  0 1
  H    0.0000000000   -1.4262273014    0.9914008786
  O    0.0000000000    0.0000000000   -0.1225992872
  H    0.0000000000    1.4262273014    0.9914008786
  units bohr
}

set {
  basis=cc-pVTZ
  reference rhf
  e_convergence 10 
  d_convergence 10
  r_convergence 8
  maxiter 300
}

energy('ccsd(t)')
--------------------------------------------------------------------------

  Memory set to  13.039 GiB by Python driver.

Scratch directory: /tmp/

*** tstart() called on n016
*** at Fri Sep 18 18:14:30 2020

   => Loading Basis Set <=

    Name: CC-PVTZ
    Role: ORBITAL
    Keyword: BASIS
    atoms 1, 3 entry H          line    23 file /opt/psi/4/master/share/psi4/basis/cc-pvtz.gbs 
    atoms 2    entry O          line   262 file /opt/psi/4/master/share/psi4/basis/cc-pvtz.gbs 


         ---------------------------------------------------------
                                   SCF
               by Justin Turney, Rob Parrish, Andy Simmonett
                          and Daniel G. A. Smith
                              RHF Reference
                        1 Threads,  13351 MiB Core
         ---------------------------------------------------------

  ==> Geometry <==

    Molecular point group: c2v
    Full point group: C2v

    Geometry (in Bohr), charge = 0, multiplicity = 1:

       Center              X                  Y                   Z               Mass       
    ------------   -----------------  -----------------  -----------------  -----------------
         H            0.000000000000    -1.426227301400     0.989326978402     1.007825032230
         O            0.000000000000     0.000000000000    -0.124673187398    15.994914619570
         H           -0.000000000000     1.426227301400     0.989326978402     1.007825032230

  Running in c2v symmetry.

  Rotational constants: A =     27.09905  B =     14.68255  C =      9.52293 [cm^-1]
  Rotational constants: A = 812408.93153  B = 440171.89135  C = 285490.22100 [MHz]
  Nuclear repulsion =    9.191675782008975

  Charge       = 0
  Multiplicity = 1
  Electrons    = 10
  Nalpha       = 5
  Nbeta        = 5

  ==> Algorithm <==

  SCF Algorithm Type is PK.
  DIIS enabled.
  MOM disabled.
  Fractional occupation disabled.
  Guess Type is SAD.
  Energy threshold   = 1.00e-10
  Density threshold  = 1.00e-10
  Integral threshold = 0.00e+00

  ==> Primary Basis <==

  Basis Set: CC-PVTZ
    Blend: CC-PVTZ
    Number of shells: 22
    Number of basis function: 58
    Number of Cartesian functions: 65
    Spherical Harmonics?: true
    Max angular momentum: 3

  ==> Integral Setup <==

  Using in-core PK algorithm.
   Calculation information:
      Number of atoms:                   3
      Number of AO shells:              22
      Number of primitives:             42
      Number of atomic orbitals:        65
      Number of basis functions:        58

      Integral cutoff                 1.00e-12
      Number of threads:                 1

  Performing in-core PK
  Using 2929232 doubles for integral storage.
  We computed 32131 shell quartets total.
  Whereas there are 32131 unique shell quartets.

  ==> DiskJK: Disk-Based J/K Matrices <==

    J tasked:                  Yes
    K tasked:                  Yes
    wK tasked:                  No
    Memory [MiB]:            10013
    Schwarz Cutoff:          1E-12

    OpenMP threads:              1

  Minimum eigenvalue in the overlap matrix is 2.2344799148E-03.
  Reciprocal condition number of the overlap matrix is 5.1237908692E-04.
    Using symmetric orthogonalization.

  ==> Pre-Iterations <==

  SCF Guess: Superposition of Atomic Densities via on-the-fly atomic UHF (no occupation information).

   -------------------------
    Irrep   Nso     Nmo    
   -------------------------
     A1        23      23 
     A2         7       7 
     B1        11      11 
     B2        17      17 
   -------------------------
    Total      58      58
   -------------------------

  ==> Iterations <==

                        Total Energy        Delta E     RMS |[F,P]|

   @RHF iter SAD:   -75.50150683611596   -7.55015e+01   0.00000e+00 
   @RHF iter   1:   -75.97868461732241   -4.77178e-01   1.43685e-02 DIIS
   @RHF iter   2:   -76.03126792863641   -5.25833e-02   9.26981e-03 DIIS
   @RHF iter   3:   -76.05669321284692   -2.54253e-02   6.91913e-04 DIIS
   @RHF iter   4:   -76.05708079726293   -3.87584e-04   1.68744e-04 DIIS
   @RHF iter   5:   -76.05710517062445   -2.43734e-05   3.49418e-05 DIIS
   @RHF iter   6:   -76.05710670990779   -1.53928e-06   6.77108e-06 DIIS
   @RHF iter   7:   -76.05710676903934   -5.91316e-08   1.08407e-06 DIIS
   @RHF iter   8:   -76.05710677028384   -1.24450e-09   1.66166e-07 DIIS
   @RHF iter   9:   -76.05710677031377   -2.99281e-11   4.63456e-08 DIIS
   @RHF iter  10:   -76.05710677031617   -2.40163e-12   5.97430e-09 DIIS
   @RHF iter  11:   -76.05710677031620   -2.84217e-14   8.37419e-10 DIIS
   @RHF iter  12:   -76.05710677031618    1.42109e-14   1.34986e-10 DIIS
   @RHF iter  13:   -76.05710677031622   -4.26326e-14   1.64174e-11 DIIS
  Energy and wave function converged.


  ==> Post-Iterations <==

    Orbital Energies [Eh]
    ---------------------

    Doubly Occupied:                                                      

       1A1   -20.555059     2A1    -1.345819     1B2    -0.708595  
       3A1    -0.578628     1B1    -0.504606  

    Virtual:                                                              

       4A1     0.142129     2B2     0.204116     3B2     0.543198  
       5A1     0.603842     6A1     0.667947     2B1     0.787299  
       7A1     0.798219     4B2     0.805526     1A2     0.862092  
       3B1     0.953111     8A1     1.132638     5B2     1.198316  
       6B2     1.525391     9A1     1.566769     4B1     2.039059  
       7B2     2.052655     2A2     2.064779    10A1     2.172207  
      11A1     2.233637    12A1     2.587363     8B2     2.965028  
       5B1     3.351096    13A1     3.488496     3A2     3.585796  
       9B2     3.658895     6B1     3.799664    10B2     3.878412  
      14A1     3.886138     4A2     3.963216     7B1     4.018072  
      11B2     4.074672    15A1     4.192873     5A2     4.310654  
      16A1     4.382202    12B2     4.591873     8B1     4.684236  
      13B2     4.865008    17A1     5.160737    18A1     5.251649  
      14B2     5.526341     9B1     6.053349    19A1     6.575816  
      10B1     6.921668     6A2     6.941627    11B1     7.003617  
      20A1     7.021447    15B2     7.052255    21A1     7.172531  
       7A2     7.237795    22A1     7.452979    16B2     7.795862  
      17B2     8.291488    23A1    12.868166  

    Final Occupation by Irrep:
             A1    A2    B1    B2 
    DOCC [     3,    0,    1,    1 ]

  @RHF Final Energy:   -76.05710677031622

   => Energetics <=

    Nuclear Repulsion Energy =              9.1916757820089749
    One-Electron Energy =                -123.1121526568455238
    Two-Electron Energy =                  37.8633701045203281
    Total Energy =                        -76.0571067703162242

Computation Completed


Properties will be evaluated at   0.000000,   0.000000,   0.000000 [a0]

Properties computed using the SCF density matrix

  Nuclear Dipole Moment: [e a0]
     X:     0.0000      Y:     0.0000      Z:     0.9813

  Electronic Dipole Moment: [e a0]
     X:     0.0000      Y:     0.0000      Z:    -0.1813

  Dipole Moment: [e a0]
     X:     0.0000      Y:     0.0000      Z:     0.8000     Total:     0.8000

  Dipole Moment: [D]
     X:     0.0000      Y:     0.0000      Z:     2.0333     Total:     2.0333


*** tstop() called on n016 at Fri Sep 18 18:14:32 2020
Module time:
	user time   =       1.92 seconds =       0.03 minutes
	system time =       0.01 seconds =       0.00 minutes
	total time  =          2 seconds =       0.03 minutes
Total time:
	user time   =       1.92 seconds =       0.03 minutes
	system time =       0.01 seconds =       0.00 minutes
	total time  =          2 seconds =       0.03 minutes
 MINTS: Wrapper to libmints.
   by Justin Turney

   Calculation information:
      Number of threads:                 1
      Number of atoms:                   3
      Number of AO shells:              22
      Number of SO shells:              16
      Number of primitives:             42
      Number of atomic orbitals:        65
      Number of basis functions:        58

      Number of irreps:                  4
      Integral cutoff                 0.00e+00
      Number of functions per irrep: [  23    7   11   17 ]

 OEINTS: Overlap, kinetic, potential, dipole, and quadrupole integrals
         stored in file 35.

      Computing two-electron integrals...done
      Computed 360120 non-zero two-electron integrals.
        Stored in file 33.


*** tstart() called on n016
*** at Fri Sep 18 18:14:32 2020


	Wfn Parameters:
	--------------------
	Wavefunction         = CCSD_T
	Number of irreps     = 4
	Number of MOs        = 58
	Number of active MOs = 58
	AO-Basis             = NONE
	Semicanonical        = false
	Reference            = RHF
	Print Level          = 1

	IRREP	# MOs	# FZDC	# DOCC	# SOCC	# VIRT	# FZVR
	-----	-----	------	------	------	------	------
	 A1	   23	    0	    3	    0	    20	    0
	 A2	   7	    0	    0	    0	    7	    0
	 B1	   11	    0	    1	    0	    10	    0
	 B2	   17	    0	    1	    0	    16	    0
	Transforming integrals...
	IWL integrals will be deleted.
	(OO|OO)...
	Presorting SO-basis two-electron integrals.
	Sorting File: SO Ints (nn|nn) nbuckets = 1
	Transforming the one-electron integrals and constructing Fock matrices
	Starting first half-transformation.
	Sorting half-transformed integrals.
	First half integral transformation complete.
	Starting second half-transformation.
	Two-electron integral transformation complete.
	(OO|OV)...
	Starting second half-transformation.
	Two-electron integral transformation complete.
	(OO|VV)...
	Starting second half-transformation.
	Two-electron integral transformation complete.
	(OV|OO)...
	Starting first half-transformation.
	Sorting half-transformed integrals.
	First half integral transformation complete.
	Starting second half-transformation.
	Two-electron integral transformation complete.
	(OV|OV)...
	Starting second half-transformation.
	Two-electron integral transformation complete.
	(OV|VV)...
	Starting second half-transformation.
	Two-electron integral transformation complete.
	(VV|OO)...
	Starting first half-transformation.
	Sorting half-transformed integrals.
	First half integral transformation complete.
	Starting second half-transformation.
	Two-electron integral transformation complete.
	(VV|OV)...
	Starting second half-transformation.
	Two-electron integral transformation complete.
	(VV|VV)...
	Starting second half-transformation.
	Two-electron integral transformation complete.
	Frozen core energy     =      0.00000000000000

	Size of irrep 0 of <ab|cd> integrals:      0.648 (MW) /      5.184 (MB)
	Size of irrep 1 of <ab|cd> integrals:      0.360 (MW) /      2.880 (MB)
	Size of irrep 2 of <ab|cd> integrals:      0.389 (MW) /      3.115 (MB)
	Size of irrep 3 of <ab|cd> integrals:      0.608 (MW) /      4.867 (MB)
	Total:                                     2.006 (MW) /     16.046 (MB)

	Size of irrep 0 of <ia|bc> integrals:      0.069 (MW) /      0.554 (MB)
	Size of irrep 1 of <ia|bc> integrals:      0.028 (MW) /      0.226 (MB)
	Size of irrep 2 of <ia|bc> integrals:      0.036 (MW) /      0.285 (MB)
	Size of irrep 3 of <ia|bc> integrals:      0.059 (MW) /      0.468 (MB)
	Total:                                     0.191 (MW) /      1.532 (MB)

	Size of irrep 0 of tijab amplitudes:       0.009 (MW) /      0.071 (MB)
	Size of irrep 1 of tijab amplitudes:       0.001 (MW) /      0.010 (MB)
	Size of irrep 2 of tijab amplitudes:       0.004 (MW) /      0.030 (MB)
	Size of irrep 3 of tijab amplitudes:       0.005 (MW) /      0.037 (MB)
	Total:                                     0.018 (MW) /      0.148 (MB)

	Nuclear Rep. energy          =      9.19167578200897
	SCF energy                   =    -76.05710677031622
	One-electron energy          =   -123.11215265740556
	Two-electron energy          =     37.86337010508037
	Reference energy             =    -76.05710677031622

*** tstop() called on n016 at Fri Sep 18 18:14:33 2020
Module time:
	user time   =       0.29 seconds =       0.00 minutes
	system time =       0.12 seconds =       0.00 minutes
	total time  =          1 seconds =       0.02 minutes
Total time:
	user time   =       2.38 seconds =       0.04 minutes
	system time =       0.14 seconds =       0.00 minutes
	total time  =          3 seconds =       0.05 minutes
            **************************
            *                        *
            *        CCENERGY        *
            *                        *
            **************************

    Nuclear Rep. energy (wfn)     =    9.191675782008975
    SCF energy          (wfn)     =  -76.057106770316224
    Reference energy    (file100) =  -76.057106770316224

    Input parameters:
    -----------------
    Wave function   =     CCSD_T
    Reference wfn   =     RHF
    Brueckner       =     No
    Memory (Mbytes) =     14000.0
    Maxiter         =    300
    R_Convergence   =     1.0e-08
    E_Convergence   =     1.0e-10
    Restart         =     Yes
    DIIS            =     Yes
    AO Basis        =     NONE
    ABCD            =     NEW
    Cache Level     =     2
    Cache Type      =     LOW
    Print Level     =     1
    Num. of threads =     1
    # Amps to Print =     10
    Print MP2 Amps? =     No
    Analyze T2 Amps =     No
    Print Pair Ener =     No
    Local CC        =     No
    SCS-MP2         =     False
    SCSN-MP2        =     False
    SCS-CCSD        =     False

MP2 correlation energy -0.2751514277853030
                Solving CC Amplitude Equations
                ------------------------------
  Iter             Energy              RMS        T1Diag      D1Diag    New D1Diag    D2Diag
  ----     ---------------------    ---------   ----------  ----------  ----------   --------
     0        -0.275151427785303    0.000e+00    0.000000    0.000000    0.000000    0.116045
     1        -0.275286941355189    2.890e-02    0.005066    0.009191    0.009191    0.119560
     2        -0.280174318748262    9.965e-03    0.005225    0.009302    0.009302    0.124187
     3        -0.280882513097721    3.187e-03    0.005733    0.010362    0.010362    0.125827
     4        -0.280872775822529    6.377e-04    0.005763    0.010433    0.010433    0.126029
     5        -0.280893895489044    1.957e-04    0.005778    0.010506    0.010506    0.126075
     6        -0.280895147011918    5.694e-05    0.005782    0.010535    0.010535    0.126072
     7        -0.280895172757081    1.876e-05    0.005784    0.010549    0.010549    0.126071
     8        -0.280894884497899    5.168e-06    0.005785    0.010553    0.010553    0.126071
     9        -0.280894806151319    1.057e-06    0.005785    0.010553    0.010553    0.126071
    10        -0.280894819047456    2.357e-07    0.005785    0.010554    0.010554    0.126071
    11        -0.280894818238585    4.549e-08    0.005785    0.010554    0.010554    0.126071
    12        -0.280894819793826    1.038e-08    0.005785    0.010554    0.010554    0.126071
    13        -0.280894819876743    2.510e-09    0.005785    0.010554    0.010554    0.126071
    14        -0.280894819888635    6.335e-10    0.005785    0.010554    0.010554    0.126071

    Iterations converged.


    Largest TIA Amplitudes:
              3  27        -0.0070673763
              4  41        -0.0059337873
              2   0         0.0053214986
              3  28        -0.0049060402
              2   3        -0.0044472528
              2   5        -0.0043672093
              1   2        -0.0040163555
              4  46        -0.0039013482
              2  11        -0.0038577033
              2   2         0.0035776142

    Largest TIjAb Amplitudes:
      3   3  27  27        -0.0475932041
      2   2   2   2        -0.0296159195
      4   4  38  38        -0.0268428490
      2   3   2  27         0.0259082839
      3   2  27   2         0.0259082839
      4   4   1   1        -0.0253144118
      4   4  39  39        -0.0226882565
      3   4  27  39         0.0222347519
      4   3  39  27         0.0222347519
      2   2  38  38        -0.0220093663

    SCF energy       (wfn)                    =  -76.057106770316224
    Reference energy (file100)                =  -76.057106770316224

    Opposite-spin MP2 correlation energy      =   -0.208576894305632
    Same-spin MP2 correlation energy          =   -0.066574533479671
    Singles MP2 correlation energy            =   -0.000000000000000
    MP2 correlation energy                    =   -0.275151427785303
      * MP2 total energy                      =  -76.332258198101528

    Opposite-spin CCSD correlation energy     =   -0.221286340100061
    Same-spin CCSD correlation energy         =   -0.059608479788574
    Singles CCSD correlation energy           =    0.000000000000000
    CCSD correlation energy                   =   -0.280894819888635
      * CCSD total energy                     =  -76.338001590204854

            **************************
            *                        *
            *        CCTRIPLES       *
            *                        *
            **************************


    Wave function   =    CCSD_T
    Reference wfn   =      RHF

    Nuclear Rep. energy (wfn)                =    9.191675782008975
    SCF energy          (wfn)                =  -76.057106770316224
    Reference energy    (file100)            =  -76.057106770316224
    CCSD energy         (file100)            =   -0.280894819888635
    Total CCSD energy   (file100)            =  -76.338001590204854

    Number of ijk index combinations:               35
    Memory available in words        :      1750000000
    ~Words needed per explicit thread:           32000
    Number of threads for explicit ijk threading:    1

    MKL num_threads set to 1 for explicit threading.

    (T) energy                                =   -0.007778710249163
      * CCSD(T) total energy                  =  -76.345780300454024


    Psi4 stopped on: Friday, 18 September 2020 06:14PM
    Psi4 wall time for execution: 0:00:07.30

*** Psi4 exiting successfully. Buy a developer a beer!
