
 Primary working directories    : /tmp/333988.15.gen4.q
 Secondary working directories  : /tmp/333988.15.gen4.q
 Wavefunction directory         : /home/vulcan/mel64643/wfu/
 Main file repository           : /tmp/333988.15.gen4.q/

 ARCHNAME  : Linux/x86_64
 FC        : /opt/intel/compilers_and_libraries_2016.1.150/linux/bin/intel64/ifort
 FCVERSION : 16.0.1
 BLASLIB   : -mkl
 id        : ccgc

 Nodes     nprocs
 n027         3
 Number of processes for MPI-2 version of Molpro:   nprocs(total)=    4   nprocs(compute)=    3   nprocs(helper)=    1
 ga_uses_ma=false, calling ma_init with nominal heap.
 GA-space will be limited to   8.0 MW (determined by -G option)

 Using customized tuning parameters: mindgm=10; mindgv=16; mindgc=4; mindgr=1; noblas=0; mincuda=1000; minvec=7
 default implementation of scratch files=sf  

 ***,Optimization of min3
 memory,1000,m
 gthresh,energy=1.0d-10,orbital=1.0d-10,oneint=1.0d-16,twoint=1.0d-16,optgrad=1.0d-6,compress=1.0d-13
 geomtyp=xyz
 
  bohr
  geometry = {
  12
  arbitrary comment
  C         -3.0919710109          1.5811454556          0.0196680982
  C         -0.8561926833         -0.0712414492         -0.6561990852
  C         -1.1182495330         -2.7790462281          0.2459978482
  O          1.3077508585          1.1112023030          0.5918236911
  O          3.4383715861          0.1179775211         -0.2544697230
  H         -4.7972164300          0.8435887193         -0.8742622744
  H         -2.7973456078          3.5190331170         -0.6156282162
  H         -3.3782217496          1.5887585691          2.0630451611
  H         -0.4462722398         -0.0050282896         -2.6760130878
  H         -2.7023857868         -3.6811652426         -0.7203902201
  H         -1.4766557958         -2.8209361958          2.2781840175
  H          0.5986045766         -3.8407674662         -0.1589764952
 }
 
 basis=cc-pvtz
 {rhf;maxit,200}
 {uccsd(t);maxit,200}

 Variables initialized (661), CPU time= 0.01 sec
 Commands  initialized (458), CPU time= 0.00 sec, 486 directives.
 Default parameters read. Elapsed time= 0.07 sec

 Checking input...
 Passed
1


                                         ***  PROGRAM SYSTEM MOLPRO  ***
                         Copyright, University College Cardiff Consultants Limited, 2008

                                    Version 2010.1 linked May 16 2016 07:17:05


 **********************************************************************************************************************************
 LABEL *   Optimization of min3                                                          
 Linux-4.4.3/n027(x86_64) 64 bit mpp version                                             DATE: 15-Jul-20          TIME: 06:33:53  
 **********************************************************************************************************************************

 SHA1:             9e8077add272b0f3cad6f7df79ec5211205f459d
 **********************************************************************************************************************************

 THRESHOLDS:

 ZERO    =  1.00D-12  ONEINT  =  1.00D-16  TWOINT  =  1.00D-16  PREFAC  =  1.00D-14  LOCALI  =  1.00D-09  EORDER  =  1.00D-04
 ENERGY  =  1.00D-10  ETEST   =  0.00D+00  EDENS   =  0.00D+00  THRDEDEF=  1.00D-06  GRADIENT=  1.00D-02  STEP    =  1.00D-03
 ORBITAL =  1.00D-10  CIVEC   =  1.00D-05  COEFF   =  1.00D-04  PRINTCI =  5.00D-02  PUNCHCI =  9.90D+01  OPTGRAD =  1.00D-06
 OPTENERG=  1.00D-06  OPTSTEP =  3.00D-04  THRGRAD =  1.00D-10  COMPRESS=  1.00D-13  VARMIN  =  1.00D-07  VARMAX  =  1.00D-03
 THRDOUB =  0.00D+00  THRDIV  =  1.00D-05  THRRED  =  1.00D-07  THRPSP  =  1.00D+00  THRDC   =  1.00D-10  THRCS   =  1.00D-10
 THRNRM  =  1.00D-08  THREQ   =  0.00D+00  THRDE   =  1.00D+00  THRREF  =  1.00D-05  SPARFAC =  1.00D+00  THRDLP  =  1.00D-07
 THRDIA  =  1.00D-10  THRDLS  =  1.00D-07  THRGPS  =  0.00D+00  THRKEX  =  0.00D+00  THRDIS  =  2.00D-01  THRVAR  =  1.00D-10
 THRLOC  =  1.00D-06  THRGAP  =  1.00D-06  THRLOCT = -1.00D+00  THRGAPT = -1.00D+00  THRORB  =  1.00D-06  THRMLTP =  0.00D+00
 THRCPQCI=  1.00D-10  KEXTA   =  0.00D+00  THRCOARS=  0.00D+00  SYMTOL  =  1.00D-06  GRADTOL =  1.00D-06  THROVL  =  1.00D-08
 THRORTH =  1.00D-08  GRID    =  1.00D-06  GRIDMAX =  1.00D-03  DTMAX   =  0.00D+00

 SETTING GEOMTYP        =    XYZ
 ZUNIT=BOHR
 

 Variable memory set to 1000000000 words,  buffer space   230000 words

 SETTING BASIS          =    CC-PVTZ


 Recomputing integrals since basis changed


 Using spherical harmonics

 Library entry C      S cc-pVTZ              selected for orbital group  1
 Library entry C      P cc-pVTZ              selected for orbital group  1
 Library entry C      D cc-pVTZ              selected for orbital group  1
 Library entry C      F cc-pVTZ              selected for orbital group  1
 Library entry O      S cc-pVTZ              selected for orbital group  2
 Library entry O      P cc-pVTZ              selected for orbital group  2
 Library entry O      D cc-pVTZ              selected for orbital group  2
 Library entry O      F cc-pVTZ              selected for orbital group  2
 Library entry H      S cc-pVTZ              selected for orbital group  3
 Library entry H      P cc-pVTZ              selected for orbital group  3
 Library entry H      D cc-pVTZ              selected for orbital group  3

1PROGRAM * SEWARD (Integral evaluation for generally contracted gaussian basis sets)     Author: Roland Lindh, 1990

 Geometry written to block  1 of record 700


 Point group  C1  



 ATOMIC COORDINATES

 NR  ATOM    CHARGE       X              Y              Z

   1  C       6.00   -3.091971011    1.581145456    0.019668098
   2  C       6.00   -0.856192683   -0.071241449   -0.656199085
   3  C       6.00   -1.118249533   -2.779046228    0.245997848
   4  O       8.00    1.307750858    1.111202303    0.591823691
   5  O       8.00    3.438371586    0.117977521   -0.254469723
   6  H       1.00   -4.797216430    0.843588719   -0.874262274
   7  H       1.00   -2.797345608    3.519033117   -0.615628216
   8  H       1.00   -3.378221750    1.588758569    2.063045161
   9  H       1.00   -0.446272240   -0.005028290   -2.676013088
  10  H       1.00   -2.702385787   -3.681165243   -0.720390220
  11  H       1.00   -1.476655796   -2.820936196    2.278184018
  12  H       1.00    0.598604577   -3.840767466   -0.158976495

 Bond lengths in Bohr (Angstrom)

 1-2  2.861098332  1-6  2.061786456  1-7  2.060537339  1-8  2.063343710  2-3  2.866154186
     ( 1.514028030)     ( 1.091050402)     ( 1.090389398)     ( 1.091874466)     ( 1.516703473)

  2- 4  2.763762965   2- 9  2.062054208   3-10  2.063301307   3-11  2.063974429   3-12  2.058845366
       ( 1.462520372)       ( 1.091192091)       ( 1.091852027)       ( 1.092208228)       ( 1.089494044)

 4-5  2.498450059
     ( 1.322122829)

 Bond angles

  1-2-3  113.56701251   1-2-4  104.95620174   1-2-9  111.60384793   2-1-6  109.71163104

  2- 1- 7  111.01379186   2- 1- 8  110.15017206   2- 3-10  109.62314512   2- 3-11  110.18054731

  2- 3-12  110.42840010   2- 4- 5  110.16101684   3- 2- 4  109.49027716   3- 2- 9  110.90627030

  4-2-9  105.83869198   6-1-7  108.72437272   6-1-8  108.41842733   7-1-8  108.76568831

 10- 3-11  108.60008372  10- 3-12  108.82249825  11- 3-12  109.14792067

 NUCLEAR CHARGE:                   41
 NUMBER OF PRIMITIVE AOS:         354
 NUMBER OF SYMMETRY AOS:          322
 NUMBER OF CONTRACTIONS:          248   ( 248A   )
 NUMBER OF CORE ORBITALS:           5   (   5A   )
 NUMBER OF VALENCE ORBITALS:       27   (  27A   )


 NUCLEAR REPULSION ENERGY  186.86806638


 Eigenvalues of metric

         1 0.803E-03 0.952E-03 0.110E-02 0.124E-02 0.136E-02 0.150E-02 0.159E-02 0.164E-02


 Contracted 2-electron integrals neglected if value below      1.0D-16
 AO integral compression algorithm  1   Integral accuracy      1.0D-16

     3376.677 MB (compressed) written to integral file ( 82.2%)

     Node minimum: 864.551 MB, node maximum: 1306.001 MB


 NUMBER OF SORTED TWO-ELECTRON INTEGRALS:  158903334.     BUFFER LENGTH:  32768
 NUMBER OF SEGMENTS:  10  SEGMENT LENGTH:   15997437      RECORD LENGTH: 524288

 Memory used in sort:      16.55 MW

 SORT1 READ   513563647. AND WROTE   152722860. INTEGRALS IN    442 RECORDS. CPU TIME:    14.70 SEC, REAL TIME:    18.77 SEC
 SORT2 READ   459641915. AND WROTE   476679126. INTEGRALS IN  14946 RECORDS. CPU TIME:     1.36 SEC, REAL TIME:    12.19 SEC

 Node minimum:   158882750.  Node maximum:   158903334. integrals

 OPERATOR DM      FOR CENTER  0  COORDINATES:    0.000000    0.000000    0.000000


 **********************************************************************************************************************************
 DATASETS  * FILE   NREC   LENGTH (MB)   RECORD NAMES
              1      18        5.04       500      610      700      900      950      970     1000      129      960     1100   
                                          VAR    BASINP    GEOM    SYMINP    ZMAT    AOBASIS   BASIS     P2S    ABASIS      S 
                                         1400     1410     1200     1210     1080     1600     1650     1700   
                                           T        V       H0       H01     AOSYM     SMH    MOLCAS    OPER   

 PROGRAMS   *        TOTAL       INT
 CPU TIMES  *        25.09     24.99
 REAL TIME  *        41.07 SEC
 DISK USED  *         9.06 GB      
 GA USED    *         0.01 MB       (max)       0.00 MB       (current)
 **********************************************************************************************************************************

1PROGRAM * RHF-SCF (OPEN SHELL)       Authors: W. Meyer, H.-J. Werner


 NUMBER OF ELECTRONS:      21+   20-    SPACE SYMMETRY=1    SPIN SYMMETRY: Doublet 
 CONVERGENCE THRESHOLDS:    1.00E-10 (Density)    1.00E-11 (Energy)
 MAX. NUMBER OF ITERATIONS:      200
 INTERPOLATION TYPE:            DIIS
 INTERPOLATION STEPS:              2 (START)      1 (STEP)
 LEVEL SHIFTS:                 -0.30 (CLOSED)  0.00 (OPEN) 



 Orbital guess generated from atomic densities. Full valence occupancy:   32

 Molecular orbital dump at record        2100.2

 ITERATION    DDIFF          GRAD             ENERGY        2-EL.EN.            DIPOLE MOMENTS         DIIS
    1      0.000D+00      0.000D+00      -267.26101000    560.282269   -1.76407   -0.06554   -0.09122    0
    2      0.000D+00      0.327D-02      -267.33468199    563.117197   -1.00811   -0.43277   -0.35844    1
    3      0.472D-02      0.230D-02      -267.36125661    562.072422   -1.18030   -0.24277   -0.21501    2
    4      0.212D-02      0.546D-03      -267.36950199    562.257310   -0.96931   -0.31637   -0.29636    3
    5      0.927D-03      0.485D-03      -267.37372049    562.299101   -0.91428   -0.31840   -0.30049    4
    6      0.583D-03      0.271D-03      -267.37563431    562.265946   -0.87344   -0.31169   -0.29828    5
    7      0.485D-03      0.132D-03      -267.37596587    562.251798   -0.88349   -0.30006   -0.29009    6
    8      0.257D-03      0.355D-04      -267.37598752    562.249194   -0.88303   -0.29686   -0.28864    7
    9      0.847D-04      0.189D-04      -267.37599845    562.249377   -0.88555   -0.29738   -0.28868    8
   10      0.447D-04      0.815D-05      -267.37600023    562.249268   -0.88674   -0.29675   -0.28838    9
   11      0.198D-04      0.318D-05      -267.37600048    562.249225   -0.88734   -0.29660   -0.28822    9
   12      0.778D-05      0.146D-05      -267.37600054    562.249453   -0.88749   -0.29669   -0.28827    9
   13      0.368D-05      0.518D-06      -267.37600054    562.249503   -0.88750   -0.29675   -0.28830    9
   14      0.146D-05      0.292D-06      -267.37600054    562.249503   -0.88749   -0.29677   -0.28830    9
   15      0.795D-06      0.141D-06      -267.37600054    562.249511   -0.88749   -0.29677   -0.28830    9
   16      0.400D-06      0.696D-07      -267.37600054    562.249513   -0.88748   -0.29678   -0.28830    9
   17      0.162D-06      0.312D-07      -267.37600055    562.249508   -0.88748   -0.29678   -0.28830    9
   18      0.949D-07      0.162D-07      -267.37600055    562.249505   -0.88748   -0.29677   -0.28830    9
   19      0.469D-07      0.713D-08      -267.37600055    562.249507   -0.88748   -0.29677   -0.28830    9
   20      0.173D-07      0.242D-08      -267.37600055    562.249506   -0.88748   -0.29677   -0.28830    9
   21      0.717D-08      0.153D-08      -267.37600055    562.249506   -0.88748   -0.29677   -0.28830    9
   22      0.504D-08      0.111D-08      -267.37600055    562.249506   -0.88748   -0.29677   -0.28830    9
   23      0.432D-08      0.793D-09      -267.37600055    562.249506   -0.88748   -0.29677   -0.28830    9
   24      0.383D-08      0.675D-09      -267.37600055    562.249506   -0.88748   -0.29677   -0.28830    9
   25      0.566D-08      0.536D-09      -267.37600055    562.249506   -0.88748   -0.29677   -0.28830    9
   26      0.860D-08      0.372D-09      -267.37600055    562.249506   -0.88748   -0.29677   -0.28830    9
   27      0.887D-08      0.172D-09      -267.37600055    562.249506   -0.88748   -0.29677   -0.28830    9
   28      0.345D-08      0.852D-10      -267.37600055    562.249506   -0.88748   -0.29677   -0.28830    9
   29      0.591D-09      0.416D-10      -267.37600055    562.249506   -0.88748   -0.29677   -0.28830    9
   30      0.485D-09      0.174D-10      -267.37600055    562.249506   -0.88748   -0.29677   -0.28830    9
   31      0.596D-10      0.123D-10      -267.37600055    562.249506   -0.88748   -0.29677   -0.28830    0

 Final alpha occupancy:  21
 Final beta  occupancy:  20

 !RHF STATE 1.1 Energy               -267.376000545016
 Nuclear energy                       186.86806638
 One-electron energy                 -735.36881997
 Two-electron energy                  281.12475305
 Virial quotient                       -1.00111434
 !RHF STATE 1.1 Dipole moment          -0.88748162    -0.29677347    -0.28830307
 Dipole moment /Debye                  -2.25560553    -0.75427351    -0.73274531

 Orbital energies:

         1.1          2.1          3.1          4.1          5.1          6.1          7.1          8.1          9.1         10.1
    -20.648583   -20.640864   -11.296836   -11.228527   -11.225378    -1.524878    -1.171379    -1.034886    -0.952651    -0.819929

        11.1         12.1         13.1         14.1         15.1         16.1         17.1         18.1         19.1         20.1
     -0.695769    -0.668493    -0.653252    -0.595565    -0.562822    -0.557352    -0.544301    -0.501253    -0.489414    -0.465978

        21.1         22.1         23.1
     -0.563094     0.137828     0.174825


 **********************************************************************************************************************************
 DATASETS  * FILE   NREC   LENGTH (MB)   RECORD NAMES
              1      18        5.04       500      610      700      900      950      970     1000      129      960     1100   
                                          VAR    BASINP    GEOM    SYMINP    ZMAT    AOBASIS   BASIS     P2S    ABASIS      S 
                                         1400     1410     1200     1210     1080     1600     1650     1700   
                                           T        V       H0       H01     AOSYM     SMH    MOLCAS    OPER   

              2       3        2.21       700     1000     2100   
                                         GEOM     BASIS     RHF  

 PROGRAMS   *        TOTAL       RHF       INT
 CPU TIMES  *        76.89     51.80     24.99
 REAL TIME  *        97.08 SEC
 DISK USED  *         9.10 GB      
 SF USED    *         0.25 MB      
 GA USED    *         0.01 MB       (max)       0.00 MB       (current)
 **********************************************************************************************************************************


1PROGRAM * CCSD (Unrestricted open-shell coupled cluster)     Authors: C. Hampel, H.-J. Werner, 1991, M. Deegan, P.J. Knowles, 1992


 Convergence thresholds:  THRVAR = 1.00D-08  THRDEN = 1.00D-10

 CCSD(T)     terms to be evaluated (factor= 1.000)


 Number of core orbitals:           5 (   5 )
 Number of closed-shell orbitals:  15 (  15 )
 Number of active  orbitals:        1 (   1 )
 Number of external orbitals:     227 ( 227 )

 Memory could be reduced to 332.02 Mwords without degradation in triples

 Number of N-1 electron functions:              31
 Number of N-2 electron functions:             465
 Number of singly external CSFs:              7068
 Number of doubly external CSFs:          18353430
 Total number of CSFs:                    18360498

 Molecular orbitals read from record     2100.2  Type=RHF/CANONICAL (state 1.1)

 Integral transformation finished. Total CPU:  33.75 sec, npass=  1  Memory used: 145.25 MW

 Starting RMP2 calculation

 ITER.      SQ.NORM     CORR.ENERGY   TOTAL ENERGY   ENERGY CHANGE        DEN1      VAR(S)    VAR(P)  DIIS     TIME
   1      1.26519067    -0.96757780  -268.34357834    -0.96757780    -0.00323239  0.26D-04  0.11D-02  1  1    38.38
   2      1.26796999    -0.97106288  -268.34706342    -0.00348508    -0.00000664  0.10D-05  0.23D-05  2  2    41.88
   3      1.26804970    -0.97111566  -268.34711620    -0.00005278    -0.00000008  0.53D-07  0.11D-07  3  3    45.31
   4      1.26805140    -0.97111547  -268.34711601     0.00000019    -0.00000000  0.16D-08  0.12D-09  4  4    50.21
   5      1.26805166    -0.97111555  -268.34711610    -0.00000009    -0.00000000  0.19D-10  0.45D-11  5  5    55.26
   6      1.26805171    -0.97111559  -268.34711613    -0.00000003    -0.00000000  0.50D-13  0.55D-13  6  6    60.65
   7      1.26805171    -0.97111559  -268.34711613     0.00000000    -0.00000000  0.15D-14  0.85D-15  6  1    64.93
   8      1.26805171    -0.97111559  -268.34711613     0.00000000    -0.00000000  0.16D-16  0.79D-17  6  2    69.33
   9      1.26805171    -0.97111559  -268.34711613    -0.00000000    -0.00000000  0.32D-18  0.10D-18  6  3    74.56

 Norm of t1 vector:      0.04586305      S-energy:    -0.00446493      T1 diagnostic:  0.00074297
 Norm of t2 vector:      0.51570175      P-energy:    -0.96665066
                                         Alpha-Beta:  -0.73702268
                                         Alpha-Alpha: -0.11901358
                                         Beta-Beta:   -0.11061440

 Spin contamination <S**2-Sz**2-Sz>     0.00145244
  Reference energy                   -267.376000545016
  RHF-RMP2 correlation energy          -0.971115585904
 !RHF-RMP2 energy                    -268.347116130921

 Starting UCCSD calculation

 ITER.      SQ.NORM     CORR.ENERGY   TOTAL ENERGY   ENERGY CHANGE        DEN1      VAR(S)    VAR(P)  DIIS     TIME
   1      1.27965947    -0.97926841  -268.35526895    -0.97926841    -0.02929192  0.65D-02  0.54D-02  1  1   185.54
   2      1.30601566    -1.00586732  -268.38186787    -0.02659892    -0.00362371  0.61D-03  0.96D-03  2  2   295.63
   3      1.32260142    -1.01267411  -268.38867465    -0.00680678    -0.00090837  0.75D-03  0.76D-04  3  3   405.10
   4      1.33378286    -1.01532292  -268.39132346    -0.00264881    -0.00038364  0.31D-03  0.32D-04  4  4   514.92
   5      1.34878435    -1.01731197  -268.39331251    -0.00198905    -0.00011752  0.10D-03  0.89D-05  5  5   624.15
   6      1.36027265    -1.01833161  -268.39433216    -0.00101965    -0.00001802  0.92D-05  0.32D-05  6  6   734.13
   7      1.36394688    -1.01857110  -268.39457165    -0.00023949    -0.00000314  0.16D-05  0.60D-06  6  1   844.88
   8      1.36454733    -1.01861297  -268.39461351    -0.00004187    -0.00000067  0.26D-06  0.15D-06  6  2   954.57
   9      1.36486573    -1.01863125  -268.39463179    -0.00001828    -0.00000015  0.66D-07  0.32D-07  6  4  1063.92
  10      1.36485209    -1.01862995  -268.39463050     0.00000130    -0.00000002  0.10D-07  0.42D-08  6  3  1173.85
  11      1.36491425    -1.01863502  -268.39463557    -0.00000507    -0.00000000  0.23D-08  0.92D-09  6  5  1284.02
  12      1.36489375    -1.01863096  -268.39463150     0.00000407    -0.00000000  0.71D-09  0.16D-09  6  2  1394.33
  13      1.36488959    -1.01863017  -268.39463071     0.00000079    -0.00000000  0.42D-09  0.44D-10  6  6  1503.92
  14      1.36488350    -1.01862933  -268.39462987     0.00000084    -0.00000000  0.31D-09  0.19D-10  6  1  1614.41
  15      1.36488152    -1.01862903  -268.39462957     0.00000030    -0.00000000  0.26D-09  0.12D-10  6  4  1767.26
  16      1.36488388    -1.01862933  -268.39462987    -0.00000030    -0.00000000  0.19D-09  0.10D-10  6  3  1878.59
  17      1.36488731    -1.01862973  -268.39463028    -0.00000041    -0.00000000  0.91D-10  0.99D-11  6  5  1988.49
  18      1.36488875    -1.01862976  -268.39463031    -0.00000003    -0.00000000  0.32D-10  0.43D-11  6  2  2097.47
  19      1.36488879    -1.01862983  -268.39463038    -0.00000007    -0.00000000  0.73D-11  0.14D-11  6  1  2206.58
  20      1.36488758    -1.01862965  -268.39463020     0.00000018    -0.00000000  0.25D-11  0.61D-12  6  2  2316.59
  21      1.36488607    -1.01862951  -268.39463005     0.00000014    -0.00000000  0.39D-12  0.14D-12  6  6  2426.29
  22      1.36488565    -1.01862947  -268.39463001     0.00000004    -0.00000000  0.71D-13  0.36D-13  6  4  2535.98
  23      1.36488545    -1.01862945  -268.39462999     0.00000002    -0.00000000  0.24D-13  0.79D-14  6  5  2645.79
  24      1.36488546    -1.01862945  -268.39463000    -0.00000000    -0.00000000  0.68D-14  0.15D-14  6  3  2755.18
  25      1.36488545    -1.01862945  -268.39463000     0.00000000    -0.00000000  0.31D-14  0.47D-15  6  5  2864.88
  26      1.36488546    -1.01862945  -268.39463000    -0.00000000    -0.00000000  0.47D-15  0.14D-15  6  2  2974.51
  27      1.36488547    -1.01862945  -268.39463000    -0.00000000    -0.00000000  0.12D-15  0.55D-16  6  1  3084.37
  28      1.36488547    -1.01862945  -268.39463000    -0.00000000    -0.00000000  0.43D-16  0.91D-17  6  3  3193.99
  29      1.36488548    -1.01862945  -268.39463000    -0.00000000    -0.00000000  0.53D-17  0.12D-17  6  6  3304.33
  30      1.36488548    -1.01862945  -268.39463000    -0.00000000    -0.00000000  0.23D-17  0.31D-18  6  4  3414.13

 Norm of t1 vector:      0.23074106      S-energy:    -0.00501100      T1 diagnostic:  0.02843119
                                                                       D1 diagnostic:  0.14575431
 Norm of t2 vector:      0.55825088      P-energy:    -1.01361846
                                         Alpha-Beta:  -0.80127675
                                         Alpha-Alpha: -0.10871745
                                         Beta-Beta:   -0.10362425

 Singles amplitudes (print threshold =  0.500E-01):

         I         SYM. A    A   T(IA) [Beta-Beta]

         8         1         1     -0.09594908
         9         1         1      0.09928937
        11         1         1     -0.05459773
        12         1         1     -0.07366099
        14         1         1     -0.11149109

 Spin contamination <S**2-Sz**2-Sz>     0.00175747

 Memory could be reduced to 360.52 Mwords without degradation in triples
 

 RESULTS
 =======

  Reference energy                   -267.376000545016
  UCCSD singles energy                 -0.005010997552
  UCCSD pair energy                    -1.013618455939
  UCCSD correlation energy             -1.018629453491
  Triples (T) contribution             -0.040794754900
  Total correlation energy             -1.059424208391
 
  RHF-UCCSD energy                   -268.394629998507
  RHF-UCCSD[T] energy                -268.438733197643
  RHF-UCCSD-T energy                 -268.434928304202
 !RHF-UCCSD(T) energy                -268.435424753407

 Program statistics:

 Available memory in ccsd:               999997692
 Min. memory needed in ccsd:              51505734
 Max. memory used in ccsd:                74803578
 Max. memory used in cckext:              59475747 (30 integral passes)
 Max. memory used in cckint:             145249478 ( 1 integral passes)



 **********************************************************************************************************************************
 DATASETS  * FILE   NREC   LENGTH (MB)   RECORD NAMES
              1      18        5.04       500      610      700      900      950      970     1000      129      960     1100   
                                          VAR    BASINP    GEOM    SYMINP    ZMAT    AOBASIS   BASIS     P2S    ABASIS      S 
                                         1400     1410     1200     1210     1080     1600     1650     1700   
                                           T        V       H0       H01     AOSYM     SMH    MOLCAS    OPER   

              2       3        2.21       700     1000     2100   
                                         GEOM     BASIS     RHF  

 PROGRAMS   *        TOTAL  UCCSD(T)       RHF       INT
 CPU TIMES  *      5726.21   5649.32     51.80     24.99
 REAL TIME  *      5852.56 SEC
 DISK USED  *        16.08 GB      
 SF USED    *         6.57 GB      
 GA USED    *         0.01 MB       (max)       0.00 MB       (current)
 **********************************************************************************************************************************

        UCCSD(T)        RHF-SCF 
   -268.43542475   -267.37600055
 **********************************************************************************************************************************
 Variable memory released
