
 Working directory              : /scratch/mel64643/tmp/40073267/
 Global scratch directory       : /scratch/mel64643/tmp/40073267/
 Wavefunction directory         : /home/mel64643/wfu/
 Main file repository           : /scratch/mel64643/tmp/40073267/

 id        : ccgc

 Nodes     nprocs
 a1-8         3
 Distribution of processes:   nprocs(total)=    4   nprocs(compute)=    3   nprocs(helper)=    1
 GA implementation: MPI file
 GA implementation (serial work in mppx): MPI file

 Using customized tuning parameters: mindgm=1; mindgv=20; mindgc=4; mindgr=1; noblas=0; minvec=7
 default implementation of scratch files=sf  


 Variables initialized (1015), CPU time= 0.00 sec
 ***,Optimization of min3
 memory,1000,m
 gthresh,energy=1.0d-12,orbital=1.0d-10,oneint=1.0d-16,twoint=1.0d-16,optgrad=1.0d-6,compress=1.0d-13
 geomtyp=xyz
 
  bohr
  geometry = {
  6
  arbitrary comment
  C   -1.3804895002   -0.0257986678    0.0000005760
  O    1.3106862458    0.1196700591    0.0000003854
  H   -2.0938473588    1.9122542234   -0.0000799798
  H   -2.1025514967   -0.9738938377    1.6852853983
  H   -2.1025441708   -0.9740252165   -1.6852136788
  H    1.9450221207   -1.5883386804   -0.0000011111
 }
 
 basis=cc-pvdz
 {rhf;maxit,200}
 {ccsd(t);maxit,200}
 Commands initialized (818), CPU time= 0.01 sec, 672 directives.
 Default parameters read. Elapsed time= 0.09 sec

 Checking input...
 Passed
1


                                         ***  PROGRAM SYSTEM MOLPRO  ***
                                       Copyright, TTI GmbH Stuttgart, 2015
                                    Version 2022.1 linked Mar  4 2022 00:40:14


 **********************************************************************************************************************************
 LABEL *   Optimization of min3                                                          
  64 bit mpp version                                                                     DATE: 07-Aug-25          TIME: 21:25:04  
 **********************************************************************************************************************************

 SHA1:             31073afc4d8441e10870424e0d77336a33bc4286
 **********************************************************************************************************************************

 Memory per process:      1000 MW
 Total memory per node:   3000 MW

 GA preallocation disabled
 GA check disabled

 Variable memory set to 1000.0 MW


 THRESHOLDS:

 ZERO    =  1.00D-12  ONEINT  =  1.00D-16  TWOINT  =  1.00D-16  PREFAC  =  1.00D-14  XXXXXX  =  1.00D-09  EORDER  =  1.00D-04
 ENERGY  =  1.00D-12  ETEST   =  0.00D+00  EDENS   =  0.00D+00  THRDEDEF=  1.00D-06  GRADIENT=  1.00D-05  STEP    =  1.00D-03
 ORBITAL =  1.00D-10  CIVEC   =  1.00D-05  COEFF   =  1.00D-04  PRINTCI =  5.00D-02  PUNCHCI =  9.90D+01  OPTGRAD =  1.00D-06
 OPTENERG=  1.00D-06  OPTSTEP =  3.00D-04  THRGRAD =  1.00D-10  COMPRESS=  1.00D-13  VARMIN  =  1.00D-07  VARMAX  =  1.00D-03
 THRDOUB =  0.00D+00  THRDIV  =  1.00D-05  THRRED  =  1.00D-07  THRPSP  =  1.00D+00  THRDC   =  1.00D-10  THRCS   =  1.00D-10
 THRNRM  =  1.00D-08  THREQ   =  0.00D+00  THRDE   =  1.00D+00  THRREF  =  1.00D-05  SPARFAC =  1.00D+00  THRDLP  =  1.00D-07
 THRDIA  =  1.00D-10  THRDLS  =  1.00D-07  THRGPS  =  0.00D+00  THRKEX  =  0.00D+00  THRDIS  =  2.00D-01  THRVAR  =  1.00D-10
 THRLOC  =  1.00D-06  THRGAP  =  1.00D-06  THRLOCT = -1.00D+00  THRGAPT = -1.00D+00  THRORB  =  1.00D-06  THRMLTP =  0.00D+00
 THRCPQCI=  1.00D-10  KEXTA   =  0.00D+00  THRCOARS=  0.00D+00  SYMTOL  =  1.00D-06  GRADTOL =  1.00D-06  THROVL  =  1.00D-08
 THRORTH =  1.00D-08  THRDLOVL= -1.00D+00  GRID    =  1.00D-06  GRIDMAX =  1.00D-03  DTMAX   =  0.00D+00  THROCCDE=  1.00D-01
 THROCCDE=  1.00D-01  THRPRINT=  2.50D-01

 SETTING GEOMTYP        =    XYZ
 ZUNIT=BOHR

 SETTING BASIS          =    CC-PVDZ


 Recomputing integrals since basis changed


 Using spherical harmonics

 Library entry C      S cc-pVDZ              selected for orbital group  1
 Library entry C      P cc-pVDZ              selected for orbital group  1
 Library entry C      D cc-pVDZ              selected for orbital group  1
 Library entry O      S cc-pVDZ              selected for orbital group  2
 Library entry O      P cc-pVDZ              selected for orbital group  2
 Library entry O      D cc-pVDZ              selected for orbital group  2
 Library entry H      S cc-pVDZ              selected for orbital group  3
 Library entry H      P cc-pVDZ              selected for orbital group  3


 PROGRAM * SEWARD (Integral evaluation for generally contracted gaussian basis sets)     Author: Roland Lindh, 1990

 Geometry written to block  1 of record 700


 Point group  C1  



 ATOMIC COORDINATES

 NR  ATOM    CHARGE       X              Y              Z

   1  C       6.00   -1.380489500   -0.025798668    0.000000576
   2  O       8.00    1.310686246    0.119670059    0.000000385
   3  H       1.00   -2.093847359    1.912254223   -0.000079980
   4  H       1.00   -2.102551497   -0.973893838    1.685285398
   5  H       1.00   -2.102544171   -0.974025216   -1.685213679
   6  H       1.00    1.945022121   -1.588338680   -0.000001111

 Bond lengths in Bohr (Angstrom)

 1-2  2.695104459  1-3  2.065170320  1-4  2.064084037  1-5  2.064084208  2-6  1.821997765
     ( 1.426187861)     ( 1.092841070)     ( 1.092266234)     ( 1.092266324)     ( 0.964159696)

 Bond angles

  1-2-6  107.28039606   2-1-3  107.11358197   2-1-4  111.96897698   2-1-5  111.96896122

  3-1-4  108.07440610   3-1-5  108.07423957   4-1-5  109.46467359

 NUCLEAR CHARGE:                   18
 NUMBER OF PRIMITIVE AOS:          82
 NUMBER OF SYMMETRY AOS:           80
 NUMBER OF CONTRACTIONS:           48   (   48A   )
 NUMBER OF INNER CORE ORBITALS:     0   (    0A   )
 NUMBER OF OUTER CORE ORBITALS:     2   (    2A   )
 NUMBER OF VALENCE ORBITALS:       12   (   12A   )


 NUCLEAR REPULSION ENERGY   40.20581673

 Eigenvalues of metric

         1 0.968E-02 0.177E-01 0.370E-01 0.372E-01 0.387E-01 0.470E-01 0.477E-01 0.523E-01


 Contracted 2-electron integrals neglected if value below      1.0D-16
 AO integral compression algorithm  1   Integral accuracy      1.0D-16

     6.816 MB (compressed) written to integral file ( 98.5%)

     Node minimum: 2.097 MB, node maximum: 2.359 MB


 NUMBER OF SORTED TWO-ELECTRON INTEGRALS:     231084.     BUFFER LENGTH:  32768
 NUMBER OF SEGMENTS:   1  SEGMENT LENGTH:     231084      RECORD LENGTH: 524288

 Memory used in sort:       0.79 MW

 SORT1 READ      832256. AND WROTE      227683. INTEGRALS IN      1 RECORDS. CPU TIME:     0.01 SEC, REAL TIME:     0.02 SEC
 SORT2 READ      682150. AND WROTE      692076. INTEGRALS IN     27 RECORDS. CPU TIME:     0.01 SEC, REAL TIME:     0.02 SEC

 Node minimum:      230300.  Node maximum:      231084. integrals

 OPERATOR DM      FOR CENTER  0  COORDINATES:    0.000000    0.000000    0.000000


 **********************************************************************************************************************************
 DATASETS  * FILE   NREC   LENGTH (MB)   RECORD NAMES
              1      18       28.73       500      610      700      900      950      970     1000      129      960     1100   
                                          VAR    BASINP    GEOM    SYMINP    ZMAT    AOBASIS   BASIS     P2S    ABASIS      S 
                                         1400     1410     1200     1210     1080     1600     1650     1700   
                                           T        V       H0       H01     AOSYM     SMH    MOLCAS    OPER   

 PROGRAMS   *        TOTAL       INT
 CPU TIMES  *         0.36      0.23
 REAL TIME  *         1.02 SEC
 DISK USED  *        29.07 MB (local),      104.32 MB (total)
 GA USED    *         0.00 MB       (max)       0.00 MB       (current)
 **********************************************************************************************************************************


 Program * Restricted Hartree-Fock

 Orbital guess generated from atomic densities. Full valence occupancy:   14

 Initial occupancy:   9

 NELEC=   18   SYM=1   MS2= 0   THRE=1.0D-12   THRD=1.0D-10   THRG=1.0D-10  HFMA2=F  DIIS_START=2   DIIS_MAX=10   DIIS_INCORE=F

 Level shifts:    0.00 (CLOSED)    0.00 (OPEN)    0.30 (GAP_MIN)

 ITER           ETOT              DE          GRAD        DDIFF     DIIS  NEXP   TIME(IT)  TIME(TOT)  DIAG
   1     -115.01375409    -115.01375409     0.00D+00     0.16D+00     0     0       0.01      0.01    start
   2     -115.04215647      -0.02840238     0.10D-01     0.20D-01     1     0       0.00      0.01    diag
   3     -115.04827311      -0.00611664     0.49D-02     0.64D-02     2     0       0.00      0.01    diag
   4     -115.04874046      -0.00046735     0.10D-02     0.20D-02     3     0       0.00      0.01    diag
   5     -115.04876194      -0.00002148     0.19D-03     0.44D-03     4     0       0.01      0.02    diag
   6     -115.04876276      -0.00000083     0.33D-04     0.94D-04     5     0       0.01      0.03    diag
   7     -115.04876280      -0.00000003     0.69D-05     0.15D-04     6     0       0.00      0.03    diag
   8     -115.04876280      -0.00000000     0.22D-05     0.52D-05     7     0       0.00      0.03    fixocc
   9     -115.04876280      -0.00000000     0.46D-06     0.15D-05     8     0       0.00      0.03    diag
  10     -115.04876280      -0.00000000     0.76D-07     0.25D-06     9     0       0.00      0.03    diag/orth
  11     -115.04876280      -0.00000000     0.19D-07     0.51D-07     9     0       0.01      0.04    diag
  12     -115.04876280       0.00000000     0.47D-08     0.15D-07     9     0       0.00      0.04    diag
  13     -115.04876280      -0.00000000     0.70D-09     0.20D-08     9     0       0.00      0.04    diag
  14     -115.04876280       0.00000000     0.15D-09     0.41D-09     9     0       0.00      0.04    diag
  15     -115.04876280       0.00000000     0.64D-10     0.12D-09     9     0       0.01      0.05    diag
  16     -115.04876280      -0.00000000     0.14D-10     0.33D-10     9     0       0.00      0.05    diag
  17     -115.04876280      -0.00000000     0.23D-11     0.46D-11     0     0       0.00      0.05    diag

 Final occupancy:   9

 !RHF STATE 1.1 Energy               -115.048762800107
  RHF One-electron energy            -236.688023984178
  RHF Two-electron energy              81.433444457055
  RHF Kinetic energy                  114.924796146146
  RHF Nuclear energy                   40.205816727016
  RHF Virial quotient                  -1.001078676301

 !RHF STATE 1.1 Dipole moment          -0.40278509    -0.59819393    -0.00000260
 Dipole moment /Debye                  -1.02377759    -1.52045732    -0.00000661

 Orbital energies:

           1.1          2.1          3.1          4.1          5.1          6.1          7.1          8.1          9.1         10.1
    -20.550060   -11.275025    -1.346786    -0.920990    -0.680070    -0.614367    -0.583130    -0.496300    -0.443839     0.184325

          11.1
      0.223779


 HOMO      9.1    -0.443839 =     -12.0775eV
 LUMO     10.1     0.184325 =       5.0157eV
 LUMO-HOMO         0.628165 =      17.0932eV

 Orbitals saved in record  2100.2


 **********************************************************************************************************************************
 DATASETS  * FILE   NREC   LENGTH (MB)   RECORD NAMES
              1      18       28.73       500      610      700      900      950      970     1000      129      960     1100   
                                          VAR    BASINP    GEOM    SYMINP    ZMAT    AOBASIS   BASIS     P2S    ABASIS      S 
                                         1400     1410     1200     1210     1080     1600     1650     1700   
                                           T        V       H0       H01     AOSYM     SMH    MOLCAS    OPER   

              2       4        0.47       700     1000      520     2100   
                                         GEOM     BASIS   MCVARS     RHF  

 PROGRAMS   *        TOTAL   RHF-SCF       INT
 CPU TIMES  *         0.41      0.05      0.23
 REAL TIME  *         1.27 SEC
 DISK USED  *        29.40 MB (local),      105.31 MB (total)
 GA USED    *         0.00 MB       (max)       0.00 MB       (current)
 **********************************************************************************************************************************


 PROGRAM * CCSD (Closed-shell coupled cluster)     Authors: C. Hampel, H.-J. Werner, 1991, M. Deegan, P.J. Knowles, 1992


 Convergence thresholds:  THRVAR = 1.00D-08  THRDEN = 1.00D-12

 CCSD(T)     terms to be evaluated (factor= 1.000)


 Number of core orbitals:           2 (   2 )
 Number of closed-shell orbitals:   7 (   7 )
 Number of external orbitals:      39 (  39 )

 Molecular orbitals read from record     2100.2  Type=RHF/CANONICAL  

 Number of N-1 electron functions:               7
 Number of N-2 electron functions:              28
 Number of singly external CSFs:               273
 Number of doubly external CSFs:             37401
 Total number of CSFs:                       37675

 Length of J-op  integral file:               0.00 MB
 Length of K-op  integral file:               0.16 MB
 Length of 3-ext integral record:             0.00 MB

 Memory could be reduced to 0.73 Mwords without degradation in triples

 Integral transformation finished. Total CPU:   0.02 sec, npass=  1  Memory used:   0.66 MW

 Reference energy:                   -115.04876280

 MP2 singlet pair energy:              -0.21888067
 MP2 triplet pair energy:              -0.11988624
 MP2 correlation energy:               -0.33876691
 MP2 total energy:                   -115.38752971

 SCS-MP2 correlation energy:           -0.33725269   (PS=  1.200000  PT=  0.333333)
 SCS-MP2 total energy:               -115.38601549

 ITER.      SQ.NORM     CORR.ENERGY   TOTAL ENERGY   ENERGY CHANGE        DEN1      VAR(S)    VAR(P)  DIIS     TIME  TIME/IT
   1      1.10759576    -0.36155463  -115.41031743    -0.02278772    -0.01406705  0.92D-03  0.18D-02  1  1     0.05     0.04
   2      1.11617352    -0.36351173  -115.41227453    -0.00195710    -0.00928607  0.20D-04  0.16D-03  2  2     0.06     0.04
   3      1.11808213    -0.36364086  -115.41240366    -0.00012913    -0.00121941  0.96D-05  0.87D-05  3  3     0.08     0.04
   4      1.11860542    -0.36363978  -115.41240258     0.00000108    -0.00025790  0.35D-06  0.69D-06  4  4     0.10     0.03
   5      1.11870561    -0.36364022  -115.41240302    -0.00000044    -0.00003671  0.10D-06  0.50D-07  5  5     0.11     0.03
   6      1.11872521    -0.36363883  -115.41240163     0.00000139    -0.00000443  0.17D-07  0.43D-08  6  6     0.13     0.03
   7      1.11873015    -0.36363841  -115.41240121     0.00000042    -0.00000036  0.21D-08  0.76D-09  6  1     0.15     0.03
   8      1.11873147    -0.36363851  -115.41240131    -0.00000011     0.00000078  0.27D-09  0.77D-10  6  3     0.16     0.03
   9      1.11873256    -0.36363838  -115.41240118     0.00000013    -0.00000039  0.14D-10  0.11D-10  6  2     0.18     0.03
  10      1.11873262    -0.36363838  -115.41240118     0.00000000     0.00000000  0.14D-11  0.13D-11  6  4     0.20     0.03
  11      1.11873258    -0.36363838  -115.41240118     0.00000000     0.00000003  0.35D-12  0.89D-13  6  5     0.22     0.03
  12      1.11873253    -0.36363839  -115.41240119    -0.00000000     0.00000003  0.34D-13  0.14D-13  6  6     0.24     0.03
  13      1.11873251    -0.36363839  -115.41240119    -0.00000000     0.00000001  0.40D-14  0.16D-14  6  3     0.26     0.03
  14      1.11873251    -0.36363839  -115.41240119    -0.00000000     0.00000000  0.29D-15  0.15D-15  6  1     0.28     0.03
  15      1.11873251    -0.36363839  -115.41240119     0.00000000    -0.00000000  0.37D-16  0.32D-16  6  2     0.30     0.03
  16      1.11873251    -0.36363839  -115.41240119     0.00000000    -0.00000000  0.33D-17  0.17D-17  6  5     0.32     0.03
  17      1.11873251    -0.36363839  -115.41240119    -0.00000000     0.00000000  0.13D-18  0.13D-18  6  4     0.33     0.03
  18      1.11873251    -0.36363839  -115.41240119     0.00000000    -0.00000000  0.28D-19  0.13D-19  6  3     0.35     0.03
  19      1.11873251    -0.36363839  -115.41240119     0.00000000    -0.00000000  0.26D-20  0.11D-20  6  6     0.37     0.03
  20      1.11873251    -0.36363839  -115.41240119     0.00000000    -0.00000000  0.42D-21  0.17D-21  6  1     0.39     0.03

 Norm of t1 vector:      0.04187594      S-energy:     0.00000000      T1 diagnostic:  0.00791381
                                                                       D1 diagnostic:  0.01783541
                                                                       D2 diagnostic:  0.13485469 (internal)


 Total CPU time for triples:      0.07 sec


 RESULTS
 =======

  Reference energy                   -115.048762800107
  CCSD singlet pair energy             -0.254918119113
  CCSD triplet pair energy             -0.108720267791
  CCSD correlation energy              -0.363638386904

  Triples (T) contribution             -0.007768854925
  Total correlation energy             -0.371407241830

  CCSD total energy                  -115.412401187011
  CCSD[T] energy                     -115.420462155641
  CCSD-T energy                      -115.420018797615
 !CCSD(T) total energy               -115.420170041936

 Timing summary (sec):

 STEP                 CPU(USER)    SYS     CPU(TOT)    WALL
 Transformation          0.02      0.01      0.03      0.03
 CCSD iterations         0.38      0.06      0.44      0.67
 Triples                 0.07      0.00      0.07      0.08

 Program statistics:

 Available memory in ccsd:               999999795
 Min. memory needed in ccsd:                136177
 Max. memory used in ccsd:                  162910
 Max. memory used in cckext:                178997 (20 integral passes)



 **********************************************************************************************************************************
 DATASETS  * FILE   NREC   LENGTH (MB)   RECORD NAMES
              1      19       31.13       500      610      700      900      950      970     1000      129      960     1100   
                                          VAR    BASINP    GEOM    SYMINP    ZMAT    AOBASIS   BASIS     P2S    ABASIS      S 
                                         1400     1410     1200     1210     1080     1600     1650     1700     1380   
                                           T        V       H0       H01     AOSYM     SMH    MOLCAS    OPER     JKOP   

              2       4        0.47       700     1000      520     2100   
                                         GEOM     BASIS   MCVARS     RHF  

 PROGRAMS   *        TOTAL   CCSD(T)   RHF-SCF       INT
 CPU TIMES  *         0.91      0.50      0.05      0.23
 REAL TIME  *         2.11 SEC
 DISK USED  *        35.56 MB (local),      115.96 MB (total)
 SF USED    *         5.97 MB
 GA USED    *         0.00 MB       (max)       0.00 MB       (current)
 **********************************************************************************************************************************

 CCSD(T)/cc-pVDZ energy=   -115.420170041936

         CCSD(T)         RHF-SCF
   -115.42017004   -115.04876280
 **********************************************************************************************************************************
 Molpro calculation terminated
