
 Primary working directories    : /tmp/601555.54.gen4.q
 Secondary working directories  : /tmp/601555.54.gen4.q
 Wavefunction directory         : /home/vulcan/mel64643/wfu/
 Main file repository           : /tmp/601555.54.gen4.q/

 ARCHNAME  : Linux/x86_64
 FC        : /opt/intel/compilers_and_libraries_2016.1.150/linux/bin/intel64/ifort
 FCVERSION : 16.0.1
 BLASLIB   : -mkl
 id        : ccgc

 Nodes     nprocs
 n023         1
 ga_uses_ma=false, calling ma_init with nominal heap.
 GA-space will be limited to   8.0 MW (determined by -G option)

 Using customized tuning parameters: mindgm=10; mindgv=16; mindgc=4; mindgr=1; noblas=0; mincuda=1000; minvec=7
 default implementation of scratch files=df  

 ***,Optimization of min3
 memory,1000,m
 gthresh,energy=1.0d-12,orbital=1.0d-10,oneint=1.0d-16,twoint=1.0d-16,optgrad=1.0d-6,compress=1.0d-13
 geomtyp=xyz
 
  bohr
  geometry = {
  6
  arbitrary comment
  C   -1.3756581822   -0.0241915571   -0.0027220203
  O    1.3125688886    0.1228877008    0.0009089848
  H   -2.0783613128    1.9088792459    0.0008431877
  H   -2.1106339214   -0.9795568873    1.6810255167
  H   -2.1108153787   -0.9803937348   -1.6798610562
  H    1.9391757464   -1.5777568875   -0.0002030226
 }
 
 basis=cc-pvdz
 {rhf;maxit,200}
 {ccsd(t);maxit,200}

 Variables initialized (661), CPU time= 0.01 sec
 Commands  initialized (458), CPU time= 0.00 sec, 486 directives.
 Default parameters read. Elapsed time= 0.06 sec

 Checking input...
 Passed
1


                                         ***  PROGRAM SYSTEM MOLPRO  ***
                         Copyright, University College Cardiff Consultants Limited, 2008

                                    Version 2010.1 linked May 16 2016 07:17:05


 **********************************************************************************************************************************
 LABEL *   Optimization of min3                                                          
 Linux-4.4.3/n023(x86_64) 64 bit mpp version                                             DATE: 06-Nov-21          TIME: 15:39:16  
 **********************************************************************************************************************************

 SHA1:             9e8077add272b0f3cad6f7df79ec5211205f459d
 **********************************************************************************************************************************

 THRESHOLDS:

 ZERO    =  1.00D-12  ONEINT  =  1.00D-16  TWOINT  =  1.00D-16  PREFAC  =  1.00D-14  LOCALI  =  1.00D-09  EORDER  =  1.00D-04
 ENERGY  =  1.00D-12  ETEST   =  0.00D+00  EDENS   =  0.00D+00  THRDEDEF=  1.00D-06  GRADIENT=  1.00D-02  STEP    =  1.00D-03
 ORBITAL =  1.00D-10  CIVEC   =  1.00D-05  COEFF   =  1.00D-04  PRINTCI =  5.00D-02  PUNCHCI =  9.90D+01  OPTGRAD =  1.00D-06
 OPTENERG=  1.00D-06  OPTSTEP =  3.00D-04  THRGRAD =  1.00D-10  COMPRESS=  1.00D-13  VARMIN  =  1.00D-07  VARMAX  =  1.00D-03
 THRDOUB =  0.00D+00  THRDIV  =  1.00D-05  THRRED  =  1.00D-07  THRPSP  =  1.00D+00  THRDC   =  1.00D-10  THRCS   =  1.00D-10
 THRNRM  =  1.00D-08  THREQ   =  0.00D+00  THRDE   =  1.00D+00  THRREF  =  1.00D-05  SPARFAC =  1.00D+00  THRDLP  =  1.00D-07
 THRDIA  =  1.00D-10  THRDLS  =  1.00D-07  THRGPS  =  0.00D+00  THRKEX  =  0.00D+00  THRDIS  =  2.00D-01  THRVAR  =  1.00D-10
 THRLOC  =  1.00D-06  THRGAP  =  1.00D-06  THRLOCT = -1.00D+00  THRGAPT = -1.00D+00  THRORB  =  1.00D-06  THRMLTP =  0.00D+00
 THRCPQCI=  1.00D-10  KEXTA   =  0.00D+00  THRCOARS=  0.00D+00  SYMTOL  =  1.00D-06  GRADTOL =  1.00D-06  THROVL  =  1.00D-08
 THRORTH =  1.00D-08  GRID    =  1.00D-06  GRIDMAX =  1.00D-03  DTMAX   =  0.00D+00

 SETTING GEOMTYP        =    XYZ
 ZUNIT=BOHR
 

 Variable memory set to 1000000000 words,  buffer space   230000 words

 SETTING BASIS          =    CC-PVDZ


 Recomputing integrals since basis changed


 Using spherical harmonics

 Library entry C      S cc-pVDZ              selected for orbital group  1
 Library entry C      P cc-pVDZ              selected for orbital group  1
 Library entry C      D cc-pVDZ              selected for orbital group  1
 Library entry O      S cc-pVDZ              selected for orbital group  2
 Library entry O      P cc-pVDZ              selected for orbital group  2
 Library entry O      D cc-pVDZ              selected for orbital group  2
 Library entry H      S cc-pVDZ              selected for orbital group  3
 Library entry H      P cc-pVDZ              selected for orbital group  3

1PROGRAM * SEWARD (Integral evaluation for generally contracted gaussian basis sets)     Author: Roland Lindh, 1990

 Geometry written to block  1 of record 700


 Point group  C1  



 ATOMIC COORDINATES

 NR  ATOM    CHARGE       X              Y              Z

   1  C       6.00   -1.375658182   -0.024191557   -0.002722020
   2  O       8.00    1.312568889    0.122887701    0.000908985
   3  H       1.00   -2.078361313    1.908879246    0.000843188
   4  H       1.00   -2.110633921   -0.979556887    1.681025517
   5  H       1.00   -2.110815379   -0.980393735   -1.679861056
   6  H       1.00    1.939175746   -1.577756888   -0.000203023

 Bond lengths in Bohr (Angstrom)

 1-2  2.692250040  1-3  2.056834249  1-4  2.070728862  1-5  2.065810750  2-6  1.812409834
     ( 1.424677362)     ( 1.088429808)     ( 1.095782520)     ( 1.093179967)     ( 0.959085978)

 Bond angles

  1-2-6  107.09471491   2-1-3  106.84519362   2-1-4  112.24163553   2-1-5  112.44018112

  3-1-4  108.11556697   3-1-5  108.35149451   4-1-5  108.67930725

 NUCLEAR CHARGE:                   18
 NUMBER OF PRIMITIVE AOS:          82
 NUMBER OF SYMMETRY AOS:           80
 NUMBER OF CONTRACTIONS:           48   (  48A   )
 NUMBER OF CORE ORBITALS:           2   (   2A   )
 NUMBER OF VALENCE ORBITALS:       12   (  12A   )


 NUCLEAR REPULSION ENERGY   40.25473867


 Eigenvalues of metric

         1 0.968E-02 0.177E-01 0.368E-01 0.374E-01 0.382E-01 0.474E-01 0.478E-01 0.517E-01


 Contracted 2-electron integrals neglected if value below      1.0D-16
 AO integral compression algorithm  1   Integral accuracy      1.0D-16

     6.816 MB (compressed) written to integral file (100.0%)

     Node minimum: 6.816 MB, node maximum: 6.816 MB


 NUMBER OF SORTED TWO-ELECTRON INTEGRALS:     692076.     BUFFER LENGTH:  32768
 NUMBER OF SEGMENTS:   1  SEGMENT LENGTH:     692076      RECORD LENGTH: 524288

 Memory used in sort:       1.25 MW

 SORT1 READ      832256. AND WROTE      682150. INTEGRALS IN      2 RECORDS. CPU TIME:     0.01 SEC, REAL TIME:     0.01 SEC
 SORT2 READ      682150. AND WROTE      692076. INTEGRALS IN     26 RECORDS. CPU TIME:     0.02 SEC, REAL TIME:     0.02 SEC

 FILE SIZES:   FILE 1:     8.4 MBYTE,  FILE 4:     8.4 MBYTE,   TOTAL:     16.8 MBYTE

 OPERATOR DM      FOR CENTER  0  COORDINATES:    0.000000    0.000000    0.000000


 **********************************************************************************************************************************
 DATASETS  * FILE   NREC   LENGTH (MB)   RECORD NAMES
              1      19        8.40       500      610      700      900      950      970     1000      129      960     1100   
                                          VAR    BASINP    GEOM    SYMINP    ZMAT    AOBASIS   BASIS     P2S    ABASIS      S 
                                         1400     1410     1200     1210     1080     1600     1650     1300     1700   
                                           T        V       H0       H01     AOSYM     SMH    MOLCAS    ERIS     OPER   

 PROGRAMS   *        TOTAL       INT
 CPU TIMES  *         0.35      0.29
 REAL TIME  *         0.52 SEC
 DISK USED  *        24.23 MB      
 GA USED    *         0.00 MB       (max)       0.00 MB       (current)
 **********************************************************************************************************************************

1PROGRAM * RHF-SCF (CLOSED SHELL)       Authors: W. Meyer, H.-J. Werner


 NUMBER OF ELECTRONS:       9+    9-    SPACE SYMMETRY=1    SPIN SYMMETRY: Singlet 
 CONVERGENCE THRESHOLDS:    1.00E-10 (Density)    1.00E-13 (Energy)
 MAX. NUMBER OF ITERATIONS:      200
 INTERPOLATION TYPE:            DIIS
 INTERPOLATION STEPS:              2 (START)      1 (STEP)
 LEVEL SHIFTS:                  0.00 (CLOSED)  0.00 (OPEN) 



 Orbital guess generated from atomic densities. Full valence occupancy:   14

 Molecular orbital dump at record        2100.2

 ITERATION    DDIFF          GRAD             ENERGY        2-EL.EN.            DIPOLE MOMENTS         DIIS
    1      0.000D+00      0.000D+00      -115.01405875    164.279373   -0.50597   -0.90242   -0.00089    0
    2      0.000D+00      0.110D-01      -115.04241729    162.069699   -0.32371   -0.53617   -0.00130    1
    3      0.205D-01      0.531D-02      -115.04848265    163.091744   -0.40822   -0.61174   -0.00172    2
    4      0.640D-02      0.112D-02      -115.04894697    162.936246   -0.39776   -0.60064   -0.00187    3
    5      0.204D-02      0.202D-03      -115.04896809    162.942604   -0.40054   -0.59636   -0.00194    4
    6      0.434D-03      0.355D-04      -115.04896889    162.942737   -0.40083   -0.59616   -0.00195    5
    7      0.931D-04      0.736D-05      -115.04896892    162.941547   -0.40096   -0.59600   -0.00195    6
    8      0.150D-04      0.237D-05      -115.04896893    162.941930   -0.40099   -0.59597   -0.00196    7
    9      0.502D-05      0.488D-06      -115.04896893    162.941888   -0.40100   -0.59597   -0.00196    6
   10      0.140D-05      0.854D-07      -115.04896893    162.941887   -0.40101   -0.59597   -0.00195    6
   11      0.230D-06      0.319D-07      -115.04896893    162.941893   -0.40101   -0.59597   -0.00195    6
   12      0.572D-07      0.132D-07      -115.04896893    162.941891   -0.40101   -0.59597   -0.00195    7
   13      0.245D-07      0.294D-08      -115.04896893    162.941891   -0.40101   -0.59597   -0.00195    7
   14      0.734D-08      0.648D-09      -115.04896893    162.941891   -0.40101   -0.59597   -0.00195    7
   15      0.167D-08      0.149D-09      -115.04896893    162.941891   -0.40101   -0.59597   -0.00195    7
   16      0.331D-09      0.449D-10      -115.04896893    162.941891   -0.40101   -0.59597   -0.00195    7
   17      0.879D-10      0.162D-10      -115.04896893    162.941891   -0.40101   -0.59597   -0.00195    7
   18      0.415D-10      0.304D-11      -115.04896893    162.941891   -0.40101   -0.59597   -0.00195    7
   19      0.708D-11      0.746D-12      -115.04896893    162.941891   -0.40101   -0.59597   -0.00195    7
   20      0.182D-11      0.326D-12      -115.04896893    162.941891   -0.40101   -0.59597   -0.00195    7
   21      0.580D-12      0.108D-12      -115.04896893    162.941891   -0.40101   -0.59597   -0.00195    7
   22      0.220D-12      0.292D-13      -115.04896893    162.941891   -0.40101   -0.59597   -0.00195    0

 Final occupancy:   9

 !RHF STATE 1.1 Energy               -115.048968926928
 Nuclear energy                        40.25473867
 One-electron energy                 -236.77465306
 Two-electron energy                   81.47094546
 Virial quotient                       -1.00097200
 !RHF STATE 1.1 Dipole moment          -0.40100666    -0.59597463    -0.00195496
 Dipole moment /Debye                  -1.01919052    -1.51471720    -0.00496869

 Orbital energies:

         1.1          2.1          3.1          4.1          5.1          6.1          7.1          8.1          9.1         10.1
    -20.550168   -11.274959    -1.348870    -0.921551    -0.682236    -0.613114    -0.583926    -0.497990    -0.443567     0.184533

        11.1
      0.224419


 **********************************************************************************************************************************
 DATASETS  * FILE   NREC   LENGTH (MB)   RECORD NAMES
              1      19        8.40       500      610      700      900      950      970     1000      129      960     1100   
                                          VAR    BASINP    GEOM    SYMINP    ZMAT    AOBASIS   BASIS     P2S    ABASIS      S 
                                         1400     1410     1200     1210     1080     1600     1650     1300     1700   
                                           T        V       H0       H01     AOSYM     SMH    MOLCAS    ERIS     OPER   

              2       3        0.39       700     1000     2100   
                                         GEOM     BASIS     RHF  

 PROGRAMS   *        TOTAL       RHF       INT
 CPU TIMES  *         0.47      0.12      0.29
 REAL TIME  *         0.69 SEC
 DISK USED  *        24.23 MB      
 GA USED    *         0.00 MB       (max)       0.00 MB       (current)
 **********************************************************************************************************************************


1PROGRAM * CCSD (Closed-shell coupled cluster)     Authors: C. Hampel, H.-J. Werner, 1991, M. Deegan, P.J. Knowles, 1992


 Convergence thresholds:  THRVAR = 1.00D-08  THRDEN = 1.00D-12

 CCSD(T)     terms to be evaluated (factor= 1.000)


 Number of core orbitals:           2 (   2 )
 Number of closed-shell orbitals:   7 (   7 )
 Number of external orbitals:      39 (  39 )

 Molecular orbitals read from record     2100.2  Type=RHF/CANONICAL (state 1.1)

 Number of N-1 electron functions:               7
 Number of N-2 electron functions:              28
 Number of singly external CSFs:               273
 Number of doubly external CSFs:             37401
 Total number of CSFs:                       37675

 Length of J-op  integral file:               0.00 MB
 Length of K-op  integral file:               0.19 MB
 Length of 3-ext integral record:             0.00 MB

 Memory could be reduced to 0.96 Mwords without degradation in triples

 Integral transformation finished. Total CPU:   0.02 sec, npass=  1  Memory used:   0.66 MW

 Reference energy:                   -115.04896893

 MP2 singlet pair energy:              -0.21874275
 MP2 triplet pair energy:              -0.11986812
 MP2 correlation energy:               -0.33861087
 MP2 total energy:                   -115.38757980

 SCS-MP2 correlation energy:           -0.33707591   (PS=  1.200000  PT=  0.333333)
 SCS-MP2 total energy:               -115.38604484

 ITER.      SQ.NORM     CORR.ENERGY   TOTAL ENERGY   ENERGY CHANGE        DEN1      VAR(S)    VAR(P)  DIIS     TIME
   1      1.10744395    -0.36139960  -115.41036852    -0.02278872    -0.01408925  0.92D-03  0.17D-02  1  1     0.08
   2      1.11598944    -0.36334676  -115.41231569    -0.00194717    -0.00926362  0.20D-04  0.16D-03  2  2     0.13
   3      1.11788372    -0.36347497  -115.41244390    -0.00012821    -0.00121096  0.96D-05  0.87D-05  3  3     0.18
   4      1.11840313    -0.36347351  -115.41244244     0.00000146    -0.00025663  0.34D-06  0.68D-06  4  4     0.23
   5      1.11850240    -0.36347391  -115.41244283    -0.00000039    -0.00003643  0.10D-06  0.50D-07  5  5     0.28
   6      1.11852170    -0.36347253  -115.41244146     0.00000138    -0.00000440  0.16D-07  0.42D-08  6  6     0.33
   7      1.11852650    -0.36347210  -115.41244103     0.00000042    -0.00000035  0.20D-08  0.73D-09  6  1     0.38
   8      1.11852778    -0.36347221  -115.41244114    -0.00000010     0.00000075  0.26D-09  0.73D-10  6  3     0.43
   9      1.11852886    -0.36347208  -115.41244101     0.00000013    -0.00000039  0.13D-10  0.11D-10  6  2     0.47
  10      1.11852878    -0.36347208  -115.41244101    -0.00000000     0.00000007  0.11D-11  0.89D-12  6  5     0.52
  11      1.11852882    -0.36347208  -115.41244101     0.00000000    -0.00000000  0.19D-12  0.51D-13  6  4     0.57
  12      1.11852880    -0.36347208  -115.41244101    -0.00000000     0.00000001  0.19D-13  0.10D-13  6  1     0.62
  13      1.11852880    -0.36347208  -115.41244101    -0.00000000    -0.00000000  0.24D-14  0.94D-15  6  6     0.67
  14      1.11852880    -0.36347208  -115.41244101     0.00000000    -0.00000000  0.22D-15  0.12D-15  6  3     0.72
  15      1.11852880    -0.36347208  -115.41244101    -0.00000000    -0.00000000  0.25D-16  0.17D-16  6  2     0.77
  16      1.11852880    -0.36347208  -115.41244101    -0.00000000    -0.00000000  0.57D-17  0.16D-17  6  5     0.82
  17      1.11852880    -0.36347208  -115.41244101    -0.00000000    -0.00000000  0.55D-18  0.25D-18  6  4     0.87
  18      1.11852880    -0.36347208  -115.41244101     0.00000000    -0.00000000  0.86D-19  0.43D-19  6  1     0.92
  19      1.11852880    -0.36347208  -115.41244101    -0.00000000    -0.00000000  0.10D-19  0.44D-20  6  6     0.97
  20      1.11852880    -0.36347208  -115.41244101     0.00000000     0.00000000  0.16D-20  0.59D-21  6  3     1.02

 Norm of t1 vector:      0.04182270      S-energy:    -0.00000000      T1 diagnostic:  0.00790375
                                                                       D1 diagnostic:  0.01768200


 Total CPU time for triples:      0.25 sec


 RESULTS
 =======

  Reference energy                   -115.048968926928
  CCSD singlet pair energy             -0.254722735492
  CCSD triplet pair energy             -0.108749349271
  CCSD correlation energy              -0.363472084763

  Triples (T) contribution             -0.007756988527
  Total correlation energy             -0.371229073290

  CCSD total energy                  -115.412441011691
  CCSD[T] energy                     -115.420489995349
  CCSD-T energy                      -115.420047035872
 !CCSD(T) total energy               -115.420198000218

 Timing summary (sec):

 STEP                 CPU(USER)    SYS     CPU(TOT)    WALL
 Transformation          0.02      0.01      0.03      0.04
 CCSD iterations         1.00      0.05      1.05      1.07
 Triples                 0.25      0.00      0.25      0.26

 Program statistics:

 Available memory in ccsd:               999999704
 Min. memory needed in ccsd:                136801
 Max. memory used in ccsd:                  163198
 Max. memory used in cckext:                182024 (20 integral passes)



 **********************************************************************************************************************************
 DATASETS  * FILE   NREC   LENGTH (MB)   RECORD NAMES
              1      20       10.93       500      610      700      900      950      970     1000      129      960     1100   
                                          VAR    BASINP    GEOM    SYMINP    ZMAT    AOBASIS   BASIS     P2S    ABASIS      S 
                                         1400     1410     1200     1210     1080     1600     1650     1300     1700     1380   
                                           T        V       H0       H01     AOSYM     SMH    MOLCAS    ERIS     OPER     JKOP   

              2       3        0.39       700     1000     2100   
                                         GEOM     BASIS     RHF  

 PROGRAMS   *        TOTAL   CCSD(T)       RHF       INT
 CPU TIMES  *         1.75      1.28      0.12      0.29
 REAL TIME  *         2.08 SEC
 DISK USED  *        25.66 MB      
 GA USED    *         0.00 MB       (max)       0.00 MB       (current)
 **********************************************************************************************************************************

        CCSD(T)         RHF-SCF 
   -115.42019800   -115.04896893
 **********************************************************************************************************************************
 Variable memory released
