
 Primary working directories    : /tmp/795519.19.gen4.q
 Secondary working directories  : /tmp/795519.19.gen4.q
 Wavefunction directory         : /home/vulcan/mel64643/wfu/
 Main file repository           : /tmp/795519.19.gen4.q/

 ARCHNAME  : Linux/x86_64
 FC        : /opt/intel/compilers_and_libraries_2016.1.150/linux/bin/intel64/ifort
 FCVERSION : 16.0.1
 BLASLIB   : -mkl
 id        : ccgc

 Nodes     nprocs
 n049         1
 ga_uses_ma=false, calling ma_init with nominal heap.
 GA-space will be limited to   8.0 MW (determined by -G option)

 Using customized tuning parameters: mindgm=10; mindgv=16; mindgc=4; mindgr=1; noblas=0; mincuda=1000; minvec=7
 default implementation of scratch files=df  

 ***,Optimization of min3
 memory,1000,m
 gthresh,energy=1.0d-12,orbital=1.0d-10,oneint=1.0d-16,twoint=1.0d-16,optgrad=1.0d-6,compress=1.0d-13
 geomtyp=xyz
 
  bohr
  geometry = {
  6
  arbitrary comment
  C   -1.3767589768   -0.0218242379    0.0000003242
  O    1.3046303056    0.1194384776    0.0000002576
  H   -2.0780584551    1.9045647297   -0.0000797449
  H   -2.1078564001   -0.9771471086    1.6768354869
  H   -2.1078492233   -0.9772778598   -1.6767634162
  H    1.9421685896   -1.5778861210   -0.0000013175
 }
 
 basis=cc-pvdz
 {rhf;maxit,200}
 {ccsd(t);maxit,200}

 Variables initialized (661), CPU time= 0.00 sec
 Commands  initialized (458), CPU time= 0.00 sec, 486 directives.
 Default parameters read. Elapsed time= 0.05 sec

 Checking input...
 Passed
1


                                         ***  PROGRAM SYSTEM MOLPRO  ***
                         Copyright, University College Cardiff Consultants Limited, 2008

                                    Version 2010.1 linked May 16 2016 07:17:05


 **********************************************************************************************************************************
 LABEL *   Optimization of min3                                                          
 Linux-4.4.3/n049(x86_64) 64 bit mpp version                                             DATE: 24-Oct-22          TIME: 15:40:51  
 **********************************************************************************************************************************

 SHA1:             9e8077add272b0f3cad6f7df79ec5211205f459d
 **********************************************************************************************************************************

 THRESHOLDS:

 ZERO    =  1.00D-12  ONEINT  =  1.00D-16  TWOINT  =  1.00D-16  PREFAC  =  1.00D-14  LOCALI  =  1.00D-09  EORDER  =  1.00D-04
 ENERGY  =  1.00D-12  ETEST   =  0.00D+00  EDENS   =  0.00D+00  THRDEDEF=  1.00D-06  GRADIENT=  1.00D-02  STEP    =  1.00D-03
 ORBITAL =  1.00D-10  CIVEC   =  1.00D-05  COEFF   =  1.00D-04  PRINTCI =  5.00D-02  PUNCHCI =  9.90D+01  OPTGRAD =  1.00D-06
 OPTENERG=  1.00D-06  OPTSTEP =  3.00D-04  THRGRAD =  1.00D-10  COMPRESS=  1.00D-13  VARMIN  =  1.00D-07  VARMAX  =  1.00D-03
 THRDOUB =  0.00D+00  THRDIV  =  1.00D-05  THRRED  =  1.00D-07  THRPSP  =  1.00D+00  THRDC   =  1.00D-10  THRCS   =  1.00D-10
 THRNRM  =  1.00D-08  THREQ   =  0.00D+00  THRDE   =  1.00D+00  THRREF  =  1.00D-05  SPARFAC =  1.00D+00  THRDLP  =  1.00D-07
 THRDIA  =  1.00D-10  THRDLS  =  1.00D-07  THRGPS  =  0.00D+00  THRKEX  =  0.00D+00  THRDIS  =  2.00D-01  THRVAR  =  1.00D-10
 THRLOC  =  1.00D-06  THRGAP  =  1.00D-06  THRLOCT = -1.00D+00  THRGAPT = -1.00D+00  THRORB  =  1.00D-06  THRMLTP =  0.00D+00
 THRCPQCI=  1.00D-10  KEXTA   =  0.00D+00  THRCOARS=  0.00D+00  SYMTOL  =  1.00D-06  GRADTOL =  1.00D-06  THROVL  =  1.00D-08
 THRORTH =  1.00D-08  GRID    =  1.00D-06  GRIDMAX =  1.00D-03  DTMAX   =  0.00D+00

 SETTING GEOMTYP        =    XYZ
 ZUNIT=BOHR
 

 Variable memory set to 1000000000 words,  buffer space   230000 words

 SETTING BASIS          =    CC-PVDZ


 Recomputing integrals since basis changed


 Using spherical harmonics

 Library entry C      S cc-pVDZ              selected for orbital group  1
 Library entry C      P cc-pVDZ              selected for orbital group  1
 Library entry C      D cc-pVDZ              selected for orbital group  1
 Library entry O      S cc-pVDZ              selected for orbital group  2
 Library entry O      P cc-pVDZ              selected for orbital group  2
 Library entry O      D cc-pVDZ              selected for orbital group  2
 Library entry H      S cc-pVDZ              selected for orbital group  3
 Library entry H      P cc-pVDZ              selected for orbital group  3

1PROGRAM * SEWARD (Integral evaluation for generally contracted gaussian basis sets)     Author: Roland Lindh, 1990

 Geometry written to block  1 of record 700


 Point group  C1  



 ATOMIC COORDINATES

 NR  ATOM    CHARGE       X              Y              Z

   1  C       6.00   -1.376758977   -0.021824238    0.000000324
   2  O       8.00    1.304630306    0.119438478    0.000000258
   3  H       1.00   -2.078058455    1.904564730   -0.000079745
   4  H       1.00   -2.107856400   -0.977147109    1.676835487
   5  H       1.00   -2.107849223   -0.977277860   -1.676763416
   6  H       1.00    1.942168590   -1.577886121   -0.000001318

 Bond lengths in Bohr (Angstrom)

 1-2  2.685107752  1-3  2.050072052  1-4  2.063715434  1-5  2.063715391  2-6  1.813109444
     ( 1.420897826)     ( 1.084851407)     ( 1.092071174)     ( 1.092071151)     ( 0.959456195)

 Bond angles

  1-2-6  107.57115766   2-1-3  106.98826577   2-1-4  112.21764480   2-1-5  112.21763416

  3-1-4  108.29017323   3-1-5  108.29000805   4-1-5  108.68474695

 NUCLEAR CHARGE:                   18
 NUMBER OF PRIMITIVE AOS:          82
 NUMBER OF SYMMETRY AOS:           80
 NUMBER OF CONTRACTIONS:           48   (  48A   )
 NUMBER OF CORE ORBITALS:           2   (   2A   )
 NUMBER OF VALENCE ORBITALS:       12   (  12A   )


 NUCLEAR REPULSION ENERGY   40.33996108


 Eigenvalues of metric

         1 0.964E-02 0.176E-01 0.365E-01 0.371E-01 0.380E-01 0.472E-01 0.473E-01 0.514E-01


 Contracted 2-electron integrals neglected if value below      1.0D-16
 AO integral compression algorithm  1   Integral accuracy      1.0D-16

     6.291 MB (compressed) written to integral file ( 98.3%)

     Node minimum: 6.291 MB, node maximum: 6.291 MB


 NUMBER OF SORTED TWO-ELECTRON INTEGRALS:     692076.     BUFFER LENGTH:  32768
 NUMBER OF SEGMENTS:   1  SEGMENT LENGTH:     692076      RECORD LENGTH: 524288

 Memory used in sort:       1.25 MW

 SORT1 READ      832256. AND WROTE      682147. INTEGRALS IN      2 RECORDS. CPU TIME:     0.01 SEC, REAL TIME:     0.01 SEC
 SORT2 READ      682147. AND WROTE      692076. INTEGRALS IN     24 RECORDS. CPU TIME:     0.02 SEC, REAL TIME:     0.03 SEC

 FILE SIZES:   FILE 1:     8.0 MBYTE,  FILE 4:     8.4 MBYTE,   TOTAL:     16.4 MBYTE

 OPERATOR DM      FOR CENTER  0  COORDINATES:    0.000000    0.000000    0.000000


 **********************************************************************************************************************************
 DATASETS  * FILE   NREC   LENGTH (MB)   RECORD NAMES
              1      19        8.03       500      610      700      900      950      970     1000      129      960     1100   
                                          VAR    BASINP    GEOM    SYMINP    ZMAT    AOBASIS   BASIS     P2S    ABASIS      S 
                                         1400     1410     1200     1210     1080     1600     1650     1300     1700   
                                           T        V       H0       H01     AOSYM     SMH    MOLCAS    ERIS     OPER   

 PROGRAMS   *        TOTAL       INT
 CPU TIMES  *         0.22      0.18
 REAL TIME  *         0.40 SEC
 DISK USED  *        23.34 MB      
 GA USED    *         0.00 MB       (max)       0.00 MB       (current)
 **********************************************************************************************************************************

1PROGRAM * RHF-SCF (CLOSED SHELL)       Authors: W. Meyer, H.-J. Werner


 NUMBER OF ELECTRONS:       9+    9-    SPACE SYMMETRY=1    SPIN SYMMETRY: Singlet 
 CONVERGENCE THRESHOLDS:    1.00E-10 (Density)    1.00E-13 (Energy)
 MAX. NUMBER OF ITERATIONS:      200
 INTERPOLATION TYPE:            DIIS
 INTERPOLATION STEPS:              2 (START)      1 (STEP)
 LEVEL SHIFTS:                  0.00 (CLOSED)  0.00 (OPEN) 



 Orbital guess generated from atomic densities. Full valence occupancy:   14

 Molecular orbital dump at record        2100.2

 ITERATION    DDIFF          GRAD             ENERGY        2-EL.EN.            DIPOLE MOMENTS         DIIS
    1      0.000D+00      0.000D+00      -115.01427065    164.455707   -0.49454   -0.90029   -0.00000    0
    2      0.000D+00      0.109D-01      -115.04262307    162.229948   -0.31796   -0.53562   -0.00000    1
    3      0.205D-01      0.529D-02      -115.04862492    163.256913   -0.40140   -0.61021   -0.00000    2
    4      0.638D-02      0.112D-02      -115.04908837    163.100571   -0.39146   -0.59898   -0.00000    3
    5      0.204D-02      0.202D-03      -115.04910933    163.106747   -0.39435   -0.59464   -0.00000    4
    6      0.432D-03      0.355D-04      -115.04911012    163.107064   -0.39468   -0.59443   -0.00000    5
    7      0.933D-04      0.750D-05      -115.04911015    163.105819   -0.39482   -0.59426   -0.00000    6
    8      0.151D-04      0.243D-05      -115.04911015    163.106201   -0.39486   -0.59423   -0.00000    7
    9      0.519D-05      0.491D-06      -115.04911015    163.106162   -0.39487   -0.59423   -0.00000    6
   10      0.141D-05      0.886D-07      -115.04911015    163.106161   -0.39487   -0.59423   -0.00000    6
   11      0.238D-06      0.329D-07      -115.04911015    163.106167   -0.39487   -0.59423   -0.00000    6
   12      0.595D-07      0.139D-07      -115.04911015    163.106165   -0.39487   -0.59423   -0.00000    7
   13      0.259D-07      0.306D-08      -115.04911015    163.106165   -0.39487   -0.59423   -0.00000    7
   14      0.763D-08      0.647D-09      -115.04911015    163.106165   -0.39487   -0.59423   -0.00000    7
   15      0.165D-08      0.150D-09      -115.04911015    163.106165   -0.39487   -0.59423   -0.00000    7
   16      0.333D-09      0.454D-10      -115.04911015    163.106165   -0.39487   -0.59423   -0.00000    7
   17      0.868D-10      0.149D-10      -115.04911015    163.106165   -0.39487   -0.59423   -0.00000    0

 Final occupancy:   9

 !RHF STATE 1.1 Energy               -115.049110153032
 Nuclear energy                        40.33996108
 One-electron energy                 -236.94215363
 Two-electron energy                   81.55308240
 Virial quotient                       -1.00081220
 !RHF STATE 1.1 Dipole moment          -0.39487230    -0.59422743    -0.00000278
 Dipole moment /Debye                  -1.00359955    -1.51027655    -0.00000706

 Orbital energies:

         1.1          2.1          3.1          4.1          5.1          6.1          7.1          8.1          9.1         10.1
    -20.549576   -11.273651    -1.349552    -0.922356    -0.682893    -0.614002    -0.585475    -0.497432    -0.443056     0.184750

        11.1
      0.224576


 **********************************************************************************************************************************
 DATASETS  * FILE   NREC   LENGTH (MB)   RECORD NAMES
              1      19        8.03       500      610      700      900      950      970     1000      129      960     1100   
                                          VAR    BASINP    GEOM    SYMINP    ZMAT    AOBASIS   BASIS     P2S    ABASIS      S 
                                         1400     1410     1200     1210     1080     1600     1650     1300     1700   
                                           T        V       H0       H01     AOSYM     SMH    MOLCAS    ERIS     OPER   

              2       3        0.39       700     1000     2100   
                                         GEOM     BASIS     RHF  

 PROGRAMS   *        TOTAL       RHF       INT
 CPU TIMES  *         0.30      0.08      0.18
 REAL TIME  *         0.52 SEC
 DISK USED  *        23.34 MB      
 GA USED    *         0.00 MB       (max)       0.00 MB       (current)
 **********************************************************************************************************************************


1PROGRAM * CCSD (Closed-shell coupled cluster)     Authors: C. Hampel, H.-J. Werner, 1991, M. Deegan, P.J. Knowles, 1992


 Convergence thresholds:  THRVAR = 1.00D-08  THRDEN = 1.00D-12

 CCSD(T)     terms to be evaluated (factor= 1.000)


 Number of core orbitals:           2 (   2 )
 Number of closed-shell orbitals:   7 (   7 )
 Number of external orbitals:      39 (  39 )

 Molecular orbitals read from record     2100.2  Type=RHF/CANONICAL (state 1.1)

 Number of N-1 electron functions:               7
 Number of N-2 electron functions:              28
 Number of singly external CSFs:               273
 Number of doubly external CSFs:             37401
 Total number of CSFs:                       37675

 Length of J-op  integral file:               0.00 MB
 Length of K-op  integral file:               0.19 MB
 Length of 3-ext integral record:             0.00 MB

 Memory could be reduced to 0.96 Mwords without degradation in triples

 Integral transformation finished. Total CPU:   0.02 sec, npass=  1  Memory used:   0.66 MW

 Reference energy:                   -115.04911015

 MP2 singlet pair energy:              -0.21850732
 MP2 triplet pair energy:              -0.11980259
 MP2 correlation energy:               -0.33830991
 MP2 total energy:                   -115.38742007

 SCS-MP2 correlation energy:           -0.33675262   (PS=  1.200000  PT=  0.333333)
 SCS-MP2 total energy:               -115.38586278

 ITER.      SQ.NORM     CORR.ENERGY   TOTAL ENERGY   ENERGY CHANGE        DEN1      VAR(S)    VAR(P)  DIIS     TIME
   1      1.10713763    -0.36109409  -115.41020424    -0.02278417    -0.01412549  0.91D-03  0.17D-02  1  1     0.06
   2      1.11562624    -0.36303229  -115.41214244    -0.00193820    -0.00922963  0.20D-04  0.16D-03  2  2     0.10
   3      1.11749316    -0.36315837  -115.41226852    -0.00012608    -0.00119721  0.94D-05  0.85D-05  3  3     0.14
   4      1.11800433    -0.36315699  -115.41226714     0.00000138    -0.00025326  0.34D-06  0.67D-06  4  4     0.18
   5      1.11810177    -0.36315737  -115.41226752    -0.00000038    -0.00003584  0.10D-06  0.48D-07  5  5     0.21
   6      1.11812072    -0.36315601  -115.41226616     0.00000136    -0.00000432  0.16D-07  0.41D-08  6  6     0.25
   7      1.11812550    -0.36315559  -115.41226574     0.00000042    -0.00000035  0.20D-08  0.72D-09  6  1     0.29
   8      1.11812678    -0.36315569  -115.41226585    -0.00000010     0.00000075  0.25D-09  0.72D-10  6  3     0.33
   9      1.11812784    -0.36315557  -115.41226572     0.00000012    -0.00000038  0.13D-10  0.10D-10  6  2     0.37
  10      1.11812789    -0.36315557  -115.41226572     0.00000000     0.00000000  0.13D-11  0.12D-11  6  4     0.40
  11      1.11812785    -0.36315557  -115.41226572     0.00000000     0.00000003  0.33D-12  0.83D-13  6  5     0.44
  12      1.11812780    -0.36315557  -115.41226572    -0.00000000     0.00000003  0.33D-13  0.13D-13  6  6     0.48
  13      1.11812778    -0.36315557  -115.41226573    -0.00000000     0.00000001  0.37D-14  0.15D-14  6  3     0.52
  14      1.11812778    -0.36315557  -115.41226573    -0.00000000     0.00000000  0.28D-15  0.14D-15  6  1     0.56
  15      1.11812778    -0.36315557  -115.41226573     0.00000000    -0.00000000  0.35D-16  0.31D-16  6  2     0.60
  16      1.11812778    -0.36315557  -115.41226573     0.00000000    -0.00000000  0.31D-17  0.16D-17  6  5     0.63
  17      1.11812778    -0.36315557  -115.41226573    -0.00000000     0.00000000  0.13D-18  0.12D-18  6  4     0.67
  18      1.11812778    -0.36315557  -115.41226573     0.00000000    -0.00000000  0.27D-19  0.12D-19  6  3     0.71
  19      1.11812778    -0.36315557  -115.41226573     0.00000000    -0.00000000  0.26D-20  0.10D-20  6  6     0.75

 Norm of t1 vector:      0.04159307      S-energy:    -0.00000000      T1 diagnostic:  0.00786035
                                                                       D1 diagnostic:  0.01754558


 Total CPU time for triples:      0.20 sec


 RESULTS
 =======

  Reference energy                   -115.049110153032
  CCSD singlet pair energy             -0.254404293832
  CCSD triplet pair energy             -0.108751278478
  CCSD correlation energy              -0.363155572311

  Triples (T) contribution             -0.007718511258
  Total correlation energy             -0.370874083569

  CCSD total energy                  -115.412265725343
  CCSD[T] energy                     -115.420272503026
  CCSD-T energy                      -115.419835154396
 !CCSD(T) total energy               -115.419984236601

 Timing summary (sec):

 STEP                 CPU(USER)    SYS     CPU(TOT)    WALL
 Transformation          0.02      0.01      0.03      0.02
 CCSD iterations         0.73      0.04      0.77      0.80
 Triples                 0.20      0.00      0.20      0.21

 Program statistics:

 Available memory in ccsd:               999999704
 Min. memory needed in ccsd:                136801
 Max. memory used in ccsd:                  163198
 Max. memory used in cckext:                182024 (19 integral passes)



 **********************************************************************************************************************************
 DATASETS  * FILE   NREC   LENGTH (MB)   RECORD NAMES
              1      20       10.56       500      610      700      900      950      970     1000      129      960     1100   
                                          VAR    BASINP    GEOM    SYMINP    ZMAT    AOBASIS   BASIS     P2S    ABASIS      S 
                                         1400     1410     1200     1210     1080     1600     1650     1300     1700     1380   
                                           T        V       H0       H01     AOSYM     SMH    MOLCAS    ERIS     OPER     JKOP   

              2       3        0.39       700     1000     2100   
                                         GEOM     BASIS     RHF  

 PROGRAMS   *        TOTAL   CCSD(T)       RHF       INT
 CPU TIMES  *         1.26      0.96      0.08      0.18
 REAL TIME  *         1.58 SEC
 DISK USED  *        24.77 MB      
 GA USED    *         0.00 MB       (max)       0.00 MB       (current)
 **********************************************************************************************************************************

        CCSD(T)         RHF-SCF 
   -115.41998424   -115.04911015
 **********************************************************************************************************************************
 Variable memory released
