 --invoking executable--
/opt/vulcan/opt/vulcan/linux-x86_64/intel-13.0.0/cfour-2.0-yhj426etc3g7hslvbmpgvdymp2w76rob/bin/xjoda


   *************************************************************************
         <<<     CCCCCC     CCCCCC   |||     CCCCCC     CCCCCC   >>>
       <<<      CCC        CCC       |||    CCC        CCC         >>>
      <<<      CCC        CCC        |||   CCC        CCC            >>>
    <<<        CCC        CCC        |||   CCC        CCC              >>>
      <<<      CCC        CCC        |||   CCC        CCC            >>>
       <<<      CCC        CCC       |||    CCC        CCC         >>>
         <<<     CCCCCC     CCCCCC   |||     CCCCCC     CCCCCC   >>>
   *************************************************************************

     ****************************************************************
     * CFOUR Coupled-Cluster techniques for Computational Chemistry *
     ****************************************************************
 

   Department of Chemistry                Institut fuer Physikalische Chemie
   University of Texas at Austin          Universitaet Mainz
   Austin, TX  78712, USA                 D-55099 Mainz, Germany
 
                       Version 1.2
 
                     n089                                              
                     Sat Aug 22 20:12:34 EDT 2020                      
                     integer*8 version is running
 
********************************************************************************
*                          Input from ZMAT file                                *
********************************************************************************
MIN4                                                                            
C                                                                               
O 1 R1                                                                          
H 1 R2 2 A2                                                                     
H 1 R3 2 A3 3 D3                                                                
H 1 R3 2 A3 3 D4                                                                
H 2 R5 1 A5 3 D5                                                                
                                                                                
R1   =        2.676721968953615                                                 
R2   =        2.051007988298116                                                 
A2   =      106.880049342108506                                                 
R3   =        2.061954529897428                                                 
A3   =      112.316870082489487                                                 
D3   =     -118.495729594830536                                                 
D4   =      118.493588260579813                                                 
R5   =        1.809968541166248                                                 
A5   =      107.575081742130450                                                 
D5   =     -179.972549197689887                                                 
                                                                                
*CFOUR(REF=RHF                                                                  
       CALC=CCSD(T)                                                             
       BASIS=cc-pVDZ                                                            
       VIB=ANALYTIC                                                             
       ORB=SEMICANONICAL                                                        
       UNITS=BOHR                                                               
       MEMORY=7                                                                 
       MEM_UNIT=GB                                                              
       SCF_CONV=9                                                               
       CC_CONV=6                                                                
       CHARGE=0                                                                 
       MULT=1)                                                                  
                                                                                
********************************************************************************
    -------------------------------------------------------------------
                    CFOUR Control Parameters 
    -------------------------------------------------------------------
        External           Internal           Value            Units
          Name               Name
    -------------------------------------------------------------------
       ABCDTYPE             IABCDT         STANDARD     [  0]   ***   
       ANHARMONIC           IANHAR         OFF          [  0]   ***   
       ANH_ALGORIT          IANALG         STANDARD     [  0]   ***   
       ANH_DERIVAT          IANDER         SECOND       [  1]   ***   
       ANH_STEPSIZ          ICUBST             50000          x 10-6  
       ANH_SYMMETR          IANHSM         ABELIAN      [  0]   ***   
       AO_LADDERS           IAOLAD         SINGLEPASS   [  1]   ***   
       AV_SCF               IAVSCF         OFF          [  0]   ***   
       BASIS                IBASIS         PVDZ         [ 13]   ***   
       BOTHVECTORS          BOTHVC         OFF          [  0]   ***   
       BOX_POTENT           IPIAB          OFF          [  0]   ***   
       BREIT                IBREIT         OFF          [  0]   ***   
       BRUCK_CONV           IBRTOL          10D-  4             ***   
       BRUECKNER            IBRKNR             OFF      [  0]   ***   
       BUFFERSIZE           IBUFFS            600               ***   
       CACHE_RECS           ICHREC             10               ***   
       CALCLEVEL            ICLLVL           CCSD(T)    [ 22]   ***   
       CCORBOPT             ICCORB             OFF      [  0] x 0.01  
       CC_CONV              ICCCNV          10D-  6             ***   
       CC_EXPORDER          ICCEOR              5               ***   
       CC_EXTRAPOL          ICCEXT             DIIS     [  1]   ***   
       CC_GUESS             ICCGES         MP2          [  0]   ***   
       CC_MAXCYC            ICCCYC            100              cycles 
       CC_PROGRAM           ICCPRO         VCC          [  0]   ***   
       CHARGE               ICHRGE              0               ***   
       CHOLESKY             ICHOLE         OFF          [  0]   ***   
       CIS_CONV             ICISTL              5               ***   
       COMM_SIZE            IPSIZE            ***               ***   
       CONSTANT             ICONST         OLD          [  1]   ***   
       CONTINUUM            ICONTU         NONE         [  0]   ***   
       CONTRACTION          ICNTYP          GENERAL     [  1]   ***   
       COORDINATES          ICOORD         INTERNAL     [  0]   ***   
       CPHF_CONVER          ICPHFT          10D- 16             ***   
       CPHF_MAXCYC          ICPHFC             64              cycles 
       CUBIC                ICUBIC         OFF          [  0]   ***   
       CURVILINEAR          ICURVY            OFF       [  0]   ***   
       D3_ISOTRANS          D3ISOT         OFF          [  0]   ***   
       DBOC                 IDBOC          OFF          [  0]   ***   
       DCT                  IDCT           OFF          [  0]   ***   
       DERIV_LEV            IDRLVL            SECOND    [  2]   ***   
       DEVMEM_SIZE          IDVMEM         *********           MByte  
       DIAG_MRCC            IEOMST          10D-  0             ***   
       DIFF_TYPE            IDIFTY         RELAXED      [  0]   ***   
       DIRECT               IDIRCT         OFF          [  0]   ***   
       DROPMO               IDRPMO      NONE         
       ECP                  IECP           OFF          [  0]   ***   
       EIGENVECTOR          IVEC                1               ***   
       EL_ANHARM            IELANH         OFF          [  0]   ***   
       EOMFOLLOW            IEOMSR         ENERGY       [  0]   ***   
       EOMIP                IEOMIP         OFF          [  0]   ***   
       EOM_MRCC             IMRCCE         NEW          [  1]   ***   
       EOM_NONIT            EOMNON         OFF          [  0]   ***   
       EOM_NSING            IEOMSI          10D-  0             ***   
       EOM_NSTATES          IMRCCD         DAVIDSON     [  0]   ***   
       EOM_NTRIP            IEOMTR          10D-  0             ***   
       EOM_ORDER            IEXORD         ENERGY       [  0]   ***   
       EOM_PROPSTA          IEOMST              0               ***   
       ESTATE_CONV          IEXTOL          10D-  5             ***   
       ESTATE_DIAG          IEXDIG         ITERATIVE    [  0]   ***   
       ESTATE_LOCK          IESLOC         ON           [  1]   ***   
       ESTATE_MAXC          IEXMXC             40               ***   
       ESTATE_PROP          IEXPRP         OFF          [  0]   ***   
       EVAL_HESS            IRECAL              0            # of cyc.
       EXCITATION           IEXCIT              0               ***   
       EXCITE               IEXCIT         NONE         [  0]   ***   
       EXTERN_POT           IEXPOT         OFF          [  0]   ***   
       FCGRADNEW            IFCGNW         OFF          [  0]   ***   
       FC_FIELD             IFINFC              0             x 10-6  
       FD_CALTYPE           IFDCAL         GRADONLY     [  0]   ***   
       FD_PROJECT           IFDPRJ         OFF          [  1]   ***   
       FD_STEPSIZE          IDISFD              0            10-4 bohr
       FD_USEGROUP          IFDGRP         FULL         [  0]   ***   
       FILE_RECSIZ          IFLREC              4096           words  
       FINITE_PERT          IFIPER              0             x 10-6  
       FIXGEOM              IFIXGM         OFF          [  0]   ***   
       FOCK                 IFOCK          AO           [  1]   ***   
       FREQ_ALGORI          IVIALG         STANDARD     [  0]   ***   
       FROZEN_CORE          IFROCO         OFF          [  0]   ***   
       FROZEN_VIRT          IFROVI         OFF          [  0]   ***   
       GAMMA_ABCD           IGABCD         STORE        [  0]   ***   
       GAMMA_ABCI           IGABCI         STORE        [  0]   ***   
       GENBAS_1             IGNBS1              0               ***   
       GENBAS_2             IGNBS2              0               ***   
       GENBAS_3             IGNBS3              0               ***   
       GENBAS_4             IGNBS4              0               ***   
       GEO_CONV             ICONTL              5              H/bohr 
       GEO_MAXCYC           IOPTCY             50               ***   
       GEO_MAXSTEP          IMXSTP            300            millibohr
       GEO_METHOD           INR            SINGLE_POINT [  5]   ***   
       GIAO                 IGIAO          OFF          [  1]   ***   
       GIMIC                IGIMIC         OFF          [  0]   ***   
       GRID                 IGRID          OFF          [  0]   ***   
       GRID_ALGO            IGALGO         SERIAL       [  0]   ***   
       GUESS                IGUESS            MOREAD    [  0]   ***   
       HBAR                 IHBAR              OFF      [  0]   ***   
       HESS_TYPE            IHESTP         SCF          [  0]   ***   
       HF2_FILE             IHF2Fl         USE          [  1]   ***   
       HFSTABILITY          ISTABL         OFF          [  0]   ***   
       INCORE               INCORE             OFF      [  0]   ***   
       INPUT_MRCC           IMRCC          ON           [  1]   ***   
       INTEGRALS            INTTYP             VMOL     [  1]   ***   
       JODA_PRINT           IJPRNT              0               ***   
       KEYWORD_OUT          IDMPKW         NO           [  0]   ***   
       LINDEP_TOL           ILINDP              8               ***   
       LINEQ_CONV           IZTACN          10D-  7           cycles  
       LINEQ_EXPOR          ILMAXD              5               ***   
       LINEQ_MAXCY          ILMAXC            100               ***   
       LINEQ_TYPE           ILTYPE         DIIS         [  1]   ***   
       LOCK_ORBOCC          ILOCOC             OFF      [  0]   ***   
       MEMORY_SIZE          IMEMSZ         875000000           words  
       MEM_UNIT             IMEMU          GB           [  3]   ***   
       MRCC                 IMRCCC         OFF          [  0]   ***   
       MULTIPLICTY          IMULTP              1               ***   
       NACOUPLING           IVCOUP         OFF          [  0]   ***   
       NEGEVAL              IDIE             ABORT      [  0]   ***   
       NEWNORM              INEWNO         OFF          [  0]   ***   
       NON-HF               INONHF             OFF      [  0]   ***   
       NTOP_TAMP            ITOPT2             15               ***   
       NUC_MODEL            INUCMO         POINT        [  0]   ***   
       OCCUPATION           IOCCU   ESTIMATED BY SCF 
       OPEN-SHELL           IOPEN          SPIN-ORBITAL [  0]   ***   
       OPTVIB               IOPTVB         OFF          [  0]   ***   
       ORBITALS             IORBTP         SEMICANONICAL[  1]   ***   
       PARALLEL             IPARAL         ON           [  1]   ***   
       PARA_INT             IPINTS         ON           [  1]   ***   
       PARA_PRINT           IPPRIN              0               ***   
       PERT_ORB             IPTORB         CANONICAL    [  1]   ***   
       POINTS               IGRDFD              0               ***   
       PRINT                IPRNT               0               ***   
       PROPS                IPROPS             OFF      [  0]   ***   
       PROP_INTEGR          IINTYP         INTERNAL     [  0]   ***   
       PSI                  IPSI           OFF          [  0]   ***   
       QC_ALG               IQCALG         FLM          [  0]   ***   
       QC_LINALG            IQCLIN         TRIDIAG      [  2]   ***   
       QC_MAXCYC            IQCMAX          10D-100           cycles  
       QC_MAXSCFCY          IQCMSC          10D- 15           cycles  
       QC_RTRUST            IQCRTR          10D-  0           x 10-3  
       QC_SKIPSCF           IQCSKI         OFF          [  0]   ***   
       QC_START             IQCSTA          10D-  1             ***   
       QRHFGUESS            IQGUES         OFF          [  0]   ***   
       QUARTIC              IQUART         OFF          [  0]   ***   
       RAMAN_INT            IRAMIN         OFF          [  0]   ***   
       RAMAN_ORB            IRAMRE         UNRELAXED    [  0]   ***   
       RDO                  IRDOFM              ON      [  1]   ***   
       REFERENCE            IREFNC             RHF      [  0]   ***   
       RELATIVIST           IRELAT         OFF          [  0]   ***   
       RELAX_DENS           IRDENS              ON      [  1]   ***   
       RESET_FLAGS          IRESET             OFF      [  0]   ***   
       RESTART_CC           ICCRES         OFF          [  0]   ***   
       ROT_EVEC             ROTVEC              0               ***   
       SAVE_INTS            ISVINT             OFF      [  0]   ***   
       SCALE_ON             ISTCRT              0               ***   
       SCF_CONV             ISCFCV          10D-  9             ***   
       SCF_DAMPING          IDAMP               0             x 10-3  
       SCF_EXPORDE          IRPPOR              6               ***   
       SCF_EXPSTAR          IRPPLS              8               ***   
       SCF_EXTRAPO          IRPP                ON      [  1]   ***   
       SCF_MAXCYC           ISCFCY            150              cycles 
       SCF_NOSTOP           ISCFST         OFF          [  0]   ***   
       SCF_PRINT            ISCFPR              0               ***   
       SCF_PROG             ISCFPR         SCF          [  0]   ***   
       SD_FIELD             IFINSD              0             x 10-6  
       SOPERT               IPERSO         OFF          [  0]   ***   
       SPHERICAL            IDFGHI             ON       [  1]   ***   
       SPINORBIT            ISOCAL         OFF          [  0]   ***   
       SPINROTATIO          ISRCON         OFF          [  0]   ***   
       SPIN_FLIP            ISPFLP         OFF          [  0]   ***   
       SPIN_ORBIT           ISPORB         OFF          [  0]   ***   
       SPIN_SCAL            ISCSMP         OFF          [  0]   ***   
       STEEPSCALE           ISTPSC              1000          x 10-3  
       SUBGROUP             ISUBGP         DEFAULT      [  0]   ***   
       SUBGRPAXIS           ISBXYZ         X            [  0]   ***   
       SYMMETRY             ISYM             ON         [  0]   ***   
       SYM_CHECK            ISYMCK         OVERRIDE     [  1]   ***   
       T3_EXTRAPOL          IT3EXT         OFF          [  0]   ***   
       T4_EXTRAPOL          IT4EXP         OFF          [  0]   ***   
       TAMP_SUM             IEVERY              5               ***   
       TESTSUITE            ITESTS         OFF          [  0]   ***   
       THERMOCH             ITHERM         ON           [  1]   ***   
       TOL_CHOLESK          ITOLCH          10D-  4             ***   
       TRANGRAD             IRESRM         OFF          [  0]   ***   
       TRANS_INV            ITRAIN         USE          [  0]   ***   
       TREAT_PERT           ITREAT         SIMULTANEOUS [  0]   ***   
       TRIP_ALGORI          ITRALG         NORMAL       [  0]   ***   
       UIJ_THRESHO          IUIJTH              1               ***   
       UNITS                IUNITS         BOHR         [  1]   ***   
       UNOS                 IUNOS          OFF          [  0]   ***   
       UPDATE_HESS          IHUPDT         ON           [  1]   ***   
       VIBPHASE             ISETPH         STANDARD     [  0]   ***   
       VIBRATION            IVIB             ANALYTIC   [  1]   ***   
       VIB_ALGORIT          IGEALG         STANDARD     [  0]   ***   
       VNATORB              IVNORB         OFF          [  0]   ***   
       VTRAN                IVTRAN         FULL/PARTIAL [  0]   ***   
       XFIELD               IXEFLD              0             x 10-6  
       XFORM_TOL            IXFTOL          10D- 11             ***   
       YFIELD               IYEFLD              0             x 10-6  
       ZFIELD               IZEFLD              0             x 10-6  
       ZSCALE_EXP           IZEXPS         OFF          [  0]   ***   
    -------------------------------------------------------------------
   6 entries found in Z-matrix 
   Job Title : MIN4                                                                            
   There are 10 unique internal coordinates.
   Of these,  0 will be optimized.
   User supplied Z-matrix: 
--------------------------------------------------------------------------------
       SYMBOL    BOND      LENGTH    ANGLE     ANGLE     DIHED     ANGLE
                  TO      (ANGST)    WRT      (DEG)      WRT      (DEG)
--------------------------------------------------------------------------------
        C    
        O          1         R1   
        H          1         R2         2        A2   
        H          1         R3         2        A3         3        D3   
        H          1         R3         2        A3         3        D4   
        H          2         R5         1        A5         3        D5   
                  *Initial values for internal coordinates* 
                      Name             Value
                        R1              2.6767219690
                        R2              2.0510079883
                        A2            106.8800493421
                        R3              2.0619545299
                        A3            112.3168700825
                        D3           -118.4957295948
                        D4            118.4935882606
                        R5              1.8099685412
                        A5            107.5750817421
                        D5           -179.9725491977
--------------------------------------------------------------------------------
  1  C          6    12.00000
  2  O          8    15.99491
  3  H          1     1.00783
  4  H          1     1.00783
  5  H          1     1.00783
  6  H          1     1.00783
   Rotational constants (in cm-1): 
          0.8026072354             0.8318420124             4.3105211112
   Rotational constants (in MHz): 
      24061.5629630261         24937.9996506751        129226.1900215472
********************************************************************************
   The full molecular point group is C1  .
   The largest Abelian subgroup of the full molecular point group is C1  .
   The computational point group is C1  .
********************************************************************************
--------------------------------------------------------------------------------
   Analysis of internal coordinates specified by Z-matrix 
--------------------------------------------------------------------------------
   *The nuclear repulsion energy is   40.424656253598862 a.u.
   *There are  12 degrees of freedom within the tot. symm. molecular subspace.
   *Z-matrix requests optimization of   0 coordinates.
   *The optimization is constrained.
   *The following  11 parameters can have non-zero 
    derivatives within the totally symmetric subspace:
             D5   [12]  D4   [ 9]  D3   [ 6]  A2   [ 3]  A3   [ 5]  A3   [ 8]
             A5   [11]  R3   [ 4]  R2   [ 2]  R5   [10]  R1   [ 1]
   *The following   0 parameters are to be optimized:

   *The following coordinates must be varied in an  unconstrained optimization.
             D5   [12]  D4   [ 9]  D3   [ 6]  A2   [ 3]  A3   [ 5]  A3   [ 8]
             A5   [11]  R3   [ 4]  R2   [ 2]  R5   [10]  R1   [ 1]
--------------------------------------------------------------------------------
 ----------------------------------------------------------------
 Z-matrix   Atomic            Coordinates (in bohr)
  Symbol    Number           X              Y              Z
 ----------------------------------------------------------------
     C         6        -1.37093756    -0.02453364     0.00000403
     O         8         1.30184940     0.12055381     0.00000330
     H         1        -2.07199296     1.90293990    -0.00091896
     H         1        -2.10348346    -0.97490875     1.67685231
     H         1        -2.10340229    -0.97642099    -1.67602173
     H         1         1.94110263    -1.57276879    -0.00001194
 ----------------------------------------------------------------
   Interatomic distance matrix (Angstroms) 
 
                 C             O             H             H             H    
                [ 1]        [ 2]        [ 3]        [ 4]        [ 5]
  C    [ 1]     0.00000
  O    [ 2]     1.41646     0.00000
  H    [ 3]     1.08535     2.01919     0.00000
  H    [ 4]     1.09114     2.09063     1.76288     0.00000
  H    [ 5]     1.09114     2.09063     1.76286     1.77426     0.00000
  H    [ 6]     1.93469     0.95779     2.80940     2.33846     2.33814
 
                 H    
                [ 6]
  H    [ 6]     0.00000
   Rotational constants (in cm-1): 
          4.3105211112             0.8318420124             0.8026072354
   Rotational constants (in MHz): 
     129226.1900215471         24937.9996506751         24061.5629630261
  There are   48 basis functions.
  @CHECKOUT-I, Total execution time (CPU/WALL):        0.07/       0.09 seconds.
--executable xjoda finished with status     0 in        0.10 seconds (walltime).
 --invoking executable--
/opt/vulcan/opt/vulcan/linux-x86_64/intel-13.0.0/cfour-2.0-yhj426etc3g7hslvbmpgvdymp2w76rob/bin/xvmol
 Serial version of molecule started
********************************************************************************
                    Input from MOL file
********************************************************************************
INTGRL        1    0    1    0    0    0    0    0    0                         
         *** CFOUR Program System (Release V0.1) ***                            
MIN4                                                                            
    6    0            0.10E-08              0    0                              
   9999.00      3.00                                                            
          6.00000000    1    3    1    1    1                                   
C #1  -1.370937558437341  -0.024533639475000   0.000004033370671                
    9    3                                                                      
   6665.00000000000       6.920000000000000E-004 -1.460000000000000E-004        
  0.000000000000000E+000                                                        
   1000.00000000000       5.329000000000000E-003 -1.154000000000000E-003        
  0.000000000000000E+000                                                        
   228.000000000000       2.707700000000000E-002 -5.725000000000000E-003        
  0.000000000000000E+000                                                        
   64.7100000000000       0.101718000000000      -2.331200000000000E-002        
  0.000000000000000E+000                                                        
   21.0600000000000       0.274740000000000      -6.395500000000000E-002        
  0.000000000000000E+000                                                        
   7.49500000000000       0.448564000000000      -0.149981000000000             
  0.000000000000000E+000                                                        
   2.79700000000000       0.285074000000000      -0.127262000000000             
  0.000000000000000E+000                                                        
  0.521500000000000       1.520400000000000E-002  0.544529000000000             
  0.000000000000000E+000                                                        
  0.159600000000000      -3.191000000000000E-003  0.580496000000000             
   1.00000000000000                                                             
    4    2                                                                      
   9.43900000000000       3.810900000000000E-002  0.000000000000000E+000        
   2.00200000000000       0.209480000000000       0.000000000000000E+000        
  0.545600000000000       0.508557000000000       0.000000000000000E+000        
  0.151700000000000       0.468842000000000        1.00000000000000             
    1    1                                                                      
  0.550000000000000        1.00000000000000                                     
          8.00000000    1    3    1    1    1                                   
O #2   1.301849401028590   0.120553811351164   0.000003295234659                
    9    3                                                                      
   11720.0000000000       7.100000000000000E-004 -1.600000000000000E-004        
  0.000000000000000E+000                                                        
   1759.00000000000       5.470000000000000E-003 -1.263000000000000E-003        
  0.000000000000000E+000                                                        
   400.800000000000       2.783700000000000E-002 -6.267000000000000E-003        
  0.000000000000000E+000                                                        
   113.700000000000       0.104800000000000      -2.571600000000000E-002        
  0.000000000000000E+000                                                        
   37.0300000000000       0.283062000000000      -7.092400000000000E-002        
  0.000000000000000E+000                                                        
   13.2700000000000       0.448719000000000      -0.165411000000000             
  0.000000000000000E+000                                                        
   5.02500000000000       0.270952000000000      -0.116955000000000             
  0.000000000000000E+000                                                        
   1.01300000000000       1.545800000000000E-002  0.557368000000000             
  0.000000000000000E+000                                                        
  0.302300000000000      -2.585000000000000E-003  0.572759000000000             
   1.00000000000000                                                             
    4    2                                                                      
   17.7000000000000       4.301800000000000E-002  0.000000000000000E+000        
   3.85400000000000       0.228913000000000       0.000000000000000E+000        
   1.04600000000000       0.508728000000000       0.000000000000000E+000        
  0.275300000000000       0.460531000000000        1.00000000000000             
    1    1                                                                      
   1.18500000000000        1.00000000000000                                     
          1.00000000    1    2    1    1                                        
H #3  -2.071992960002612   1.902939898628497  -0.000918956133959                
    4    2                                                                      
   13.0100000000000       1.968500000000000E-002  0.000000000000000E+000        
   1.96200000000000       0.137977000000000       0.000000000000000E+000        
  0.444600000000000       0.478148000000000       0.000000000000000E+000        
  0.122000000000000       0.501240000000000        1.00000000000000             
    1    1                                                                      
  0.727000000000000        1.00000000000000                                     
          1.00000000    1    2    1    1                                        
H #4  -2.103483457264910  -0.974908747790500   1.676852310040249                
    4    2                                                                      
   13.0100000000000       1.968500000000000E-002  0.000000000000000E+000        
   1.96200000000000       0.137977000000000       0.000000000000000E+000        
  0.444600000000000       0.478148000000000       0.000000000000000E+000        
  0.122000000000000       0.501240000000000        1.00000000000000             
    1    1                                                                      
  0.727000000000000        1.00000000000000                                     
          1.00000000    1    2    1    1                                        
H #5  -2.103402294043851  -0.976420986613808  -1.676021733977328                
    4    2                                                                      
   13.0100000000000       1.968500000000000E-002  0.000000000000000E+000        
   1.96200000000000       0.137977000000000       0.000000000000000E+000        
  0.444600000000000       0.478148000000000       0.000000000000000E+000        
  0.122000000000000       0.501240000000000        1.00000000000000             
    1    1                                                                      
  0.727000000000000        1.00000000000000                                     
          1.00000000    1    2    1    1                                        
H #6   1.941102631636158  -1.572768788432197  -0.000011942347630                
    4    2                                                                      
   13.0100000000000       1.968500000000000E-002  0.000000000000000E+000        
   1.96200000000000       0.137977000000000       0.000000000000000E+000        
  0.444600000000000       0.478148000000000       0.000000000000000E+000        
  0.122000000000000       0.501240000000000        1.00000000000000             
    1    1                                                                      
  0.727000000000000        1.00000000000000                                     
FINISH                                                                          
 
********************************************************************************
 One- and two-electron integrals over symmetry-adapted AOs are calculated.

  Spherical harmonics are used.
  
  Integrals less than  0.10E-13 are neglected.

  Nuclear repulsion energy :   40.4246562536 a.u.
  required memory for a1 array                5013204  words 
  required memory for a2 array                2046060  words 
 @GETMEM-I,  Allocated      69 MB of main memory.
  @MOLECU-I, One electron integrals (CPU/WALL):        0.01/       0.01 seconds.
  @TWOEL-I,     682143 integrals of symmetry type  I I I I
  @TWOEL-I, Total number of 2-e integrals     682143.
  @MOLECU-I, Two electron integrals (CPU/WALL):        1.64/       0.41 seconds.
  @CHECKOUT-I, Total execution time (CPU/WALL):        1.68/       0.43 seconds.
--executable xvmol finished with status     0 in        0.63 seconds (walltime).
 --invoking executable--
/opt/vulcan/opt/vulcan/linux-x86_64/intel-13.0.0/cfour-2.0-yhj426etc3g7hslvbmpgvdymp2w76rob/bin/xvmol2ja
 @GETMEM-I,  Allocated    6675 MB of main memory.
  @CHECKOUT-I, Total execution time (CPU/WALL):        0.00/       0.00 seconds.
--executable xvmol2ja finished with status     0 in        0.21 seconds (walltime).
 --invoking executable--
/opt/vulcan/opt/vulcan/linux-x86_64/intel-13.0.0/cfour-2.0-yhj426etc3g7hslvbmpgvdymp2w76rob/bin/xvscf
  There are   48 functions in the AO basis.

  There are 1 irreducible representations.

       Irrep        # of functions
         1                 48


  Parameters for SCF calculation: 
        SCF reference function:  RHF  
  Maximum number of iterations:  150
     Full symmetry point group: C1  
     Computational point group: C1  
        Initial density matrix: MOREAD                 
     SCF convergence tolerance: 10**(- 9)
  DIIS convergence acceleration:  ON
          Latest start for DIIS:   8
                     DIIS order:   6

  Memory information:     143849 words required.
  Fock matrices are constructed from AO integral file.
 @GETMEM-I,  Allocated       1 MB of main memory.
  Initialization and symmetry analysis required      0.001 seconds.

  @INITGES-I, Occupancies from core Hamiltonian:

          Alpha population by irrep:   9
           Beta population by irrep:   9


 total no. of electrons in initial guess :  0.000000000000000E+000
  --------------------------------------------------------------------
  Iteration         Total Energy            Largest Density Difference
  --------------------------------------------------------------------
       0            40.424656253598869              0.0000000000D+00
       1          -100.329566060462469              0.1015263209D+02
       2           -97.204936355273020              0.2031320692D+02
       3          -101.228200688521156              0.2138379231D+02
       4           -95.255724132014933              0.9165214272D+01
       5           -94.955119504436993              0.1287369061D+02
       6           -92.361015924516607              0.1291987544D+02
       7           -90.622050972434977              0.1004648254D+02
       8           -90.733327327525046              0.1039450770D+02
       9          -113.434614267165188              0.8905805203D+01
      10          -114.535049148519391              0.8335627408D+00
      11          -114.955214418336709              0.4172521642D+00
      12          -115.045860419150614              0.2826598283D+00
      13          -115.048980476134716              0.5191456149D-01
      14          -115.049242194120865              0.2165982334D-01
      15          -115.049256452453278              0.4791094148D-02
      16          -115.049257617327726              0.1971867799D-02
      17          -115.049257638518270              0.1741897598D-03
      18          -115.049257639236004              0.2354144333D-04
      19          -115.049257639310639              0.8911988310D-05
      20          -115.049257639313112              0.1574893719D-05
      21          -115.049257639313339              0.4233945126D-06
      22          -115.049257639313538              0.9135201950D-07
      23          -115.049257639313339              0.2778701758D-07
      24          -115.049257639313367              0.7796093771D-08
      25          -115.049257639313311              0.3104009272D-08

  SCF has converged.

 Density matrix saved to file den.dat
 total electron number:   18.0000000000000     
     E(SCF)=      -115.049257639313481              0.5785094626D-09

  Eigenvector printing suppressed.

 @PUTMOS-I, Writing converged MOs to NEWMOS. 
 @PUTMOS-I, Symmetry   1 Full Blocks 12 Partial Blocksize   0
  @DMPJOB-I, Rotating orbitals to semicanonical basis.
             *** Eigenvalues correspond to new basis. ***



 
  ORBITAL EIGENVALUES (ALPHA)  (1H = 27.2113838 eV)

       MO #        E(hartree)               E(eV)           FULLSYM    COMPSYM
       ----   --------------------   --------------------   -------   ---------
    1     1         -20.5494540682        -559.1790819316       A         A (1)
    2     2         -11.2730405095        -306.7550321176       A         A (1)
    3     3          -1.3515623946         -36.7778830755       A         A (1)
    4     4          -0.9224723453         -25.1017490520       A         A (1)
    5     5          -0.6842671580         -18.6198562706       A         A (1)
    6     6          -0.6150128887         -16.7353517685       A         A (1)
    7     7          -0.5862745105         -15.9533407281       A         A (1)
    8     8          -0.4970129884         -13.5244111897       A         A (1)
    9     9          -0.4429339361         -12.0528453425       A         A (1)
  +++++++++++++++++++++++++++++++++++++++++++++++++++++++++++++++++++++++++++++
   10    10           0.1849250346           5.0320660942       A         A (1)
   11    11           0.2248985603           6.1198010458       A         A (1)
   12    12           0.2672706901           7.2728053330       A         A (1)
   13    13           0.2684738447           7.3055448335       A         A (1)
   14    14           0.3646388968           9.9223289769       A         A (1)
   15    15           0.6273474958          17.0709934971       A         A (1)
   16    16           0.6438845109          17.5209885611       A         A (1)
   17    17           0.7287347297          19.8298804323       A         A (1)
   18    18           0.8070525712          21.9610172775       A         A (1)
   19    19           0.8627059074          23.4754215691       A         A (1)
   20    20           0.9005429550          24.5050199948       A         A (1)
   21    21           0.9063035177          24.6617728766       A         A (1)
   22    22           1.1158282484          30.3632307440       A         A (1)
   23    23           1.1498829256          31.2899056366       A         A (1)
   24    24           1.1672721131          31.7630894901       A         A (1)
   25    25           1.2773567847          34.7586457428       A         A (1)
   26    26           1.3312855476          36.2261220081       A         A (1)
   27    27           1.4504268505          39.4681217306       A         A (1)
   28    28           1.5945946568          43.3911272431       A         A (1)
   29    29           1.6633545300          45.2621785449       A         A (1)
   30    30           1.6804981950          45.7286813925       A         A (1)
   31    31           1.8677741772          50.8247200236       A         A (1)
   32    32           1.9089518781          51.9452222479       A         A (1)
   33    33           1.9381809718          52.7405863358       A         A (1)
   34    34           1.9539921062          53.1708291815       A         A (1)
   35    35           2.0171100646          54.8883561728       A         A (1)
   36    36           2.1407694897          58.2533002546       A         A (1)
   37    37           2.2927915278          62.3900302812       A         A (1)
   38    38           2.3728032136          64.5672589746       A         A (1)
   39    39           2.4039700533          65.4153518108       A         A (1)
   40    40           2.5183871416          68.5287991150       A         A (1)
   41    41           2.7575970535          75.0380318439       A         A (1)
   42    42           2.7693434375          75.3576672062       A         A (1)
   43    43           2.7884506990          75.8776022314       A         A (1)
   44    44           3.3104114727          90.0808771831       A         A (1)
   45    45           3.4002587816          92.5257467913       A         A (1)
   46    46           3.4417831047          93.6556810861       A         A (1)
   47    47           3.6009632429          97.9871929219       A         A (1)
   48    48           4.0941363463         111.4071155285       A         A (1)


  VSCF finished.

  @CHECKOUT-I, Total execution time (CPU/WALL):        0.92/       0.23 seconds.
--executable xvscf finished with status     0 in        0.41 seconds (walltime).
 --invoking executable--
/opt/vulcan/opt/vulcan/linux-x86_64/intel-13.0.0/cfour-2.0-yhj426etc3g7hslvbmpgvdymp2w76rob/bin/xvtran
 @GETMEM-I,  Allocated    6675 MB of main memory.
  Full RHF integral transformation
  Transformation of IIII integrals :
  1 pass through the AO integral file was required.
      682143 AO integrals were read.
      692076 MO integrals were written to HF2.
  Summary of active molecular orbitals: 
------------------------------------------------------------------------
 
  Index      Eigenvalue    Symmetry    Index      Eigenvalue    Symmetry
------------------------------------------------------------------------
     1       -20.5494541        1        25         1.2773568        1
     2       -11.2730405        1        26         1.3312855        1
     3        -1.3515624        1        27         1.4504269        1
     4        -0.9224723        1        28         1.5945947        1
     5        -0.6842672        1        29         1.6633545        1
     6        -0.6150129        1        30         1.6804982        1
     7        -0.5862745        1        31         1.8677742        1
     8        -0.4970130        1        32         1.9089519        1
     9        -0.4429339        1        33         1.9381810        1
    10         0.1849250        1        34         1.9539921        1
    11         0.2248986        1        35         2.0171101        1
    12         0.2672707        1        36         2.1407695        1
    13         0.2684738        1        37         2.2927915        1
    14         0.3646389        1        38         2.3728032        1
    15         0.6273475        1        39         2.4039701        1
    16         0.6438845        1        40         2.5183871        1
    17         0.7287347        1        41         2.7575971        1
    18         0.8070526        1        42         2.7693434        1
    19         0.8627059        1        43         2.7884507        1
    20         0.9005430        1        44         3.3104115        1
    21         0.9063035        1        45         3.4002588        1
    22         1.1158282        1        46         3.4417831        1
    23         1.1498829        1        47         3.6009632        1
    24         1.1672721        1        48         4.0941363        1
------------------------------------------------------------------------
  @CHECKOUT-I, Total execution time (CPU/WALL):        1.08/       0.34 seconds.
--executable xvtran finished with status     0 in        0.41 seconds (walltime).
 --invoking executable--
/opt/vulcan/opt/vulcan/linux-x86_64/intel-13.0.0/cfour-2.0-yhj426etc3g7hslvbmpgvdymp2w76rob/bin/xintprc
 @GETMEM-I,  Allocated    6675 MB of main memory.
  @GMOIAA-I, Processing MO integrals for spin case AA.
  @GMOIAA-I, Generation of integral list completed.
                      TYPE                NUMBER
                      ----               --------
                      PPPP                304590
                      PPPH                273780
                      PPHH                 61776
                      PHPH                 35100
                      PHHH                 15795
                      HHHH                  1035

                     TOTAL                692076

  @FORMT2-I, Second-order MP correlation energies:
            ------------------------------------------------
            E(SCF)                  =   -115.049257639313 a.u.
            E2(AA)                  =     -0.040745240275 a.u.
            E2(AB)                  =     -0.261646826998 a.u.
            E2(TOT)                 =     -0.343137307548 a.u.
            Total MP2 energy        =   -115.392394946861 a.u.
            ------------------------------------------------
   Largest T2 amplitudes for spin case AB:
       _       _                 _       _                 _       _
   i   j   a   b             i   j   a   b             i   j   a   b
-----------------------------------------------------------------------------
[  7   7  17  17]-0.02409 [  7   7  14  14]-0.01947 [  9   9  26  26]-0.01937
[  6   6  19  19]-0.01920 [  9   9  23  23]-0.01880 [  6   6  12  12]-0.01789
[  8   8  22  22]-0.01708 [  5   5  18  18]-0.01667 [  5   5  14  14]-0.01578
[  6   6  16  16]-0.01554 [  8   8  15  15]-0.01519 [  9   9  16  16]-0.01450
[  6   6  19  12]-0.01450 [  6   6  12  19]-0.01450 [  7   7  25  25]-0.01448
-----------------------------------------------------------------------------
   Norm of T2AB vector (   123201 symmetry allowed elements):  0.2716700147.
-----------------------------------------------------------------------------
  @CHECKOUT-I, Total execution time (CPU/WALL):        0.05/       0.06 seconds.
--executable xintprc finished with status     0 in        0.07 seconds (walltime).
  calling xvcc 
 --invoking executable--
/opt/vulcan/opt/vulcan/linux-x86_64/intel-13.0.0/cfour-2.0-yhj426etc3g7hslvbmpgvdymp2w76rob/bin/xvcc
 @GETMEM-I,  Allocated    6675 MB of main memory.
   CCSD(T) energy will be calculated.
   The total correlation energy is -0.343137307548 a.u.
   The total correlation energy is -0.357690773639 a.u.
  Convergence information after     1 iterations: 
  Largest element of residual vector : -0.60440621E-02.
  Largest element of DIIS residual   : -0.60440621E-02.
   The total correlation energy is -0.365125169253 a.u.
  Convergence information after     2 iterations: 
  Largest element of residual vector : -0.16064627E-02.
  Largest element of DIIS residual   : -0.16692689E-02.
   The total correlation energy is -0.366798875490 a.u.
  Convergence information after     3 iterations: 
  Largest element of residual vector :  0.14340787E-02.
  Largest element of DIIS residual   :  0.10492697E-02.
   The total correlation energy is -0.367492312003 a.u.
  Convergence information after     4 iterations: 
  Largest element of residual vector : -0.18793840E-03.
  Largest element of DIIS residual   :  0.16501295E-03.
   The total correlation energy is -0.367555507187 a.u.
  Convergence information after     5 iterations: 
  Largest element of residual vector :  0.16471527E-03.
  Largest element of DIIS residual   :  0.88879955E-04.
   The total correlation energy is -0.367564352698 a.u.
  Convergence information after     6 iterations: 
  Largest element of residual vector :  0.44430116E-04.
  Largest element of DIIS residual   :  0.37463027E-04.
   The total correlation energy is -0.367564702976 a.u.
  Convergence information after     7 iterations: 
  Largest element of residual vector :  0.18603613E-04.
  Largest element of DIIS residual   :  0.10080239E-04.
   The total correlation energy is -0.367564127107 a.u.
  Convergence information after     8 iterations: 
  Largest element of residual vector :  0.76229467E-05.
  Largest element of DIIS residual   :  0.45268347E-05.
   The total correlation energy is -0.367564349296 a.u.
  Convergence information after     9 iterations: 
  Largest element of residual vector :  0.24314005E-05.
  Largest element of DIIS residual   :  0.15575224E-05.
   The total correlation energy is -0.367564487061 a.u.
  Convergence information after    10 iterations: 
  Largest element of residual vector :  0.92198219E-06.
  Largest element of DIIS residual   :  0.29611096E-06.
  Amplitude equations converged in    10iterations.
   The total correlation energy is -0.367564534023 a.u.
   The CC iterations have converged.

   Largest T1 amplitudes for spin case AA:
   i       a                 i       a                 i       a    
-----------------------------------------------------------------------------
[  9      12    ] 0.00794 [  7      14    ]-0.00717 [  6      16    ]-0.00715
[  6      19    ] 0.00584 [  5      14    ]-0.00583 [  6      12    ] 0.00575
[  7      17    ] 0.00571 [  9      16    ]-0.00540 [  8      11    ]-0.00535
[  7      33    ] 0.00518 [  7      13    ]-0.00511 [  8      18    ]-0.00483
[  5      40    ] 0.00474 [  8      13    ]-0.00455 [  7      15    ]-0.00447
-----------------------------------------------------------------------------
   Norm of T1AA vector (      351 symmetry allowed elements):  0.0293282300.
-----------------------------------------------------------------------------
   Largest T2 amplitudes for spin case AB:
       _       _                 _       _                 _       _
   i   j   a   b             i   j   a   b             i   j   a   b
-----------------------------------------------------------------------------
[  7   7  17  17]-0.02625 [  7   7  14  14]-0.02303 [  6   6  19  19]-0.02272
[  9   9  26  26]-0.02083 [  6   6  12  12]-0.02079 [  9   9  23  23]-0.01988
[  5   5  18  18]-0.01900 [  5   5  14  14]-0.01804 [  6   6  19  12]-0.01790
[  6   6  12  19]-0.01790 [  8   8  22  22]-0.01787 [  6   6  16  16]-0.01762
[  8   8  15  15]-0.01728 [  8   8  20  20]-0.01680 [  8   8  13  13]-0.01636
-----------------------------------------------------------------------------
   Norm of T2AB vector (   123201 symmetry allowed elements):  0.3122165395.
-----------------------------------------------------------------------------
       Summary of iterative solution of CC equations 
      -----------------------------------------------------------
                       Correlation           Total
       Iteration         Energy              Energy
      -----------------------------------------------------------
            0        -0.343137307548    -115.392394946861  DIIS 
            1        -0.357690773639    -115.406948412953  DIIS 
            2        -0.365125169253    -115.414382808566  DIIS 
            3        -0.366798875490    -115.416056514804  DIIS 
            4        -0.367492312003    -115.416749951317  DIIS 
            5        -0.367555507187    -115.416813146500  DIIS 
            6        -0.367564352698    -115.416821992011  DIIS 
            7        -0.367564702976    -115.416822342290  DIIS 
            8        -0.367564127107    -115.416821766421  DIIS 
            9        -0.367564349296    -115.416821988609  DIIS 
           10        -0.367564534023    -115.416822173336  DIIS 
      -----------------------------------------------------------
      A miracle has come to pass. The CC iterations have converged.
        E(CCSD)           =    -115.416822173336
        E(CCSD + T(CCSD)) =    -115.424872533694
        E(CCSD(T))        =    -115.424584752062
  @CHECKOUT-I, Total execution time (CPU/WALL):        8.92/       2.24 seconds.
--executable xvcc finished with status     0 in        2.42 seconds (walltime).
 --invoking executable--
/opt/vulcan/opt/vulcan/linux-x86_64/intel-13.0.0/cfour-2.0-yhj426etc3g7hslvbmpgvdymp2w76rob/bin/xlambda
 @GETMEM-I,  Allocated    6675 MB of main memory.
  The Lambda equations are solved for CCSD(T).
  Initial lambda amplitudes: 
  Convergence information after     1 iterations: 
  Largest element of residual vector :  0.39580397E-02.
  Largest element of DIIS residual   :  0.39580397E-02.
  Convergence information after     2 iterations: 
  Largest element of residual vector :  0.13880618E-02.
  Largest element of DIIS residual   :  0.88282696E-03.
  Convergence information after     3 iterations: 
  Largest element of residual vector : -0.21930022E-03.
  Largest element of DIIS residual   : -0.14795418E-03.
  Convergence information after     4 iterations: 
  Largest element of residual vector :  0.10824288E-03.
  Largest element of DIIS residual   :  0.89145792E-04.
  Convergence information after     5 iterations: 
  Largest element of residual vector :  0.37079950E-04.
  Largest element of DIIS residual   : -0.17823483E-04.
  Convergence information after     6 iterations: 
  Largest element of residual vector :  0.13891603E-04.
  Largest element of DIIS residual   :  0.78062286E-05.
  Convergence information after     7 iterations: 
  Largest element of residual vector : -0.44653879E-05.
  Largest element of DIIS residual   :  0.28088023E-05.
  Convergence information after     8 iterations: 
  Largest element of residual vector :  0.16258623E-05.
  Largest element of DIIS residual   :  0.78363138E-06.
  Convergence information after     9 iterations: 
  Largest element of residual vector :  0.61543801E-06.
  Largest element of DIIS residual   :  0.33950033E-06.
  Convergence information after    10 iterations: 
  Largest element of residual vector :  0.21028107E-06.
  Largest element of DIIS residual   :  0.10367587E-06.
  Convergence information after    11 iterations: 
  Largest element of residual vector :  0.75023854E-07.
  Largest element of DIIS residual   : -0.49463205E-07.
  Amplitude equations converged in    11 iterations.
 
  Full Fbar is constructed for CCSD second derivatives
 
      The lambda equations have converged.
  @CHECKOUT-I, Total execution time (CPU/WALL):        2.30/       0.58 seconds.
--executable xlambda finished with status     0 in        0.62 seconds (walltime).
 --invoking executable--
/opt/vulcan/opt/vulcan/linux-x86_64/intel-13.0.0/cfour-2.0-yhj426etc3g7hslvbmpgvdymp2w76rob/bin/xdens
 @GETMEM-I,  Allocated    6675 MB of main memory.
  CCSD(T) density and intermediates are calculated.
  The perturbed orbitals are chosen canonical.
  The iterative expansion of D(ai) converged after  19 iterations.
  ----------------------------------------------------------------------
                 Natural orbital occupation numbers
  ----------------------------------------------------------------------
  1.99992  1.99981  1.98377  1.97190  1.97069  1.96418  1.95724  1.95684
  1.95209  0.03683  0.02791  0.02634  0.02377  0.02001  0.01610  0.01276
  0.00874  0.00858  0.00791  0.00723  0.00693  0.00520  0.00485  0.00474
  0.00326  0.00324  0.00237  0.00218  0.00174  0.00164  0.00158  0.00122
  0.00120  0.00114  0.00086  0.00077  0.00075  0.00066  0.00062  0.00061
  0.00042  0.00039  0.00036  0.00024  0.00012  0.00011  0.00009  0.00007
  Trace of density matrix :  18.0000000000.
  ----------------------------------------------------------------------
  Density calculation successfully completed.
  @CHECKOUT-I, Total execution time (CPU/WALL):        0.59/       0.15 seconds.
--executable xdens finished with status     0 in        0.22 seconds (walltime).
 --invoking executable--
/opt/vulcan/opt/vulcan/linux-x86_64/intel-13.0.0/cfour-2.0-yhj426etc3g7hslvbmpgvdymp2w76rob/bin/xvdint
 @GETMEM-I,  Allocated    6675 MB of main memory.
 One- and two-electron integral derivatives are calculated
 for RHF-CC/MBPT hessians and dipole derivatives.
 Spherical gaussians are used.
  Evaluation of 1e integral derivatives required    0.02 seconds.
  Evaluation of 2el integral derivatives
  Evaluation of 2e integral derivatives required    3.74 seconds.
  @CHECKOUT-I, Total execution time (CPU/WALL):        3.77/       0.96 seconds.
--executable xvdint finished with status     0 in        1.03 seconds (walltime).
 --invoking executable--
/opt/vulcan/opt/vulcan/linux-x86_64/intel-13.0.0/cfour-2.0-yhj426etc3g7hslvbmpgvdymp2w76rob/bin/xcphf
 @GETMEM-I,  Allocated    6675 MB of main memory.
 Coupled-perturbed HF (CPHF) equations 
 are solved for RHF-CC/MBPT hessian and dipole derivatives.
  irreducible representation Nr.                      1
  # geometric perturbations                     18
  # electric field perturbations                      3
  relativistic perturbations from                     22 to
                    21
 number of lists relativistic                    21
  efields on                    19
  efields on                    20
  efields on                    21
 There are 21 perturbations within irrep 1.
 CPHF converged after  27 iterations.
 Calculation of total derivative of f
  range of perturbations from   0 to  21
  Tolerances in treatment of perturbed canonical orbitals:
     Tol1:    0.00001000 Tol2:    1.00000000
   Perturbed canonical restriction dropped for orbital pair   7[1] ;   8[1]
  (U[ij] element of    -0.15809D+01 is above threshold)
   Perturbed canonical restriction dropped for orbital pair   8[1] ;   7[1]
  (U[ij] element of     0.15051D+01 is above threshold)
  Tolerances in treatment of perturbed canonical orbitals:
     Tol1:    0.00001000 Tol2:    1.00000000
   Perturbed canonical restriction dropped for orbital pair   7[1] ;   8[1]
  (U[ij] element of     0.16413D+01 is above threshold)
   Perturbed canonical restriction dropped for orbital pair   8[1] ;   7[1]
  (U[ij] element of    -0.15043D+01 is above threshold)
  Tolerances in treatment of perturbed canonical orbitals:
     Tol1:    0.00001000 Tol2:    1.00000000
   Perturbed canonical restriction dropped for orbital pair   5[1] ;   6[1]
  (U[ij] element of     0.14919D+01 is above threshold)
   Perturbed canonical restriction dropped for orbital pair   6[1] ;   5[1]
  (U[ij] element of    -0.14288D+01 is above threshold)
   Perturbed canonical restriction dropped for orbital pair   8[1] ;   9[1]
  (U[ij] element of    -0.18765D+01 is above threshold)
   Perturbed canonical restriction dropped for orbital pair   9[1] ;   8[1]
  (U[ij] element of     0.17817D+01 is above threshold)
  Tolerances in treatment of perturbed canonical orbitals:
     Tol1:    0.00001000 Tol2:    1.00000000
  Tolerances in treatment of perturbed canonical orbitals:
     Tol1:    0.00001000 Tol2:    1.00000000
  Tolerances in treatment of perturbed canonical orbitals:
     Tol1:    0.00001000 Tol2:    1.00000000
   Perturbed canonical restriction dropped for orbital pair   6[1] ;   7[1]
  (U[ij] element of    -0.11482D+01 is above threshold)
   Perturbed canonical restriction dropped for orbital pair   7[1] ;   6[1]
  (U[ij] element of     0.11119D+01 is above threshold)
   Perturbed canonical restriction dropped for orbital pair   8[1] ;   9[1]
  (U[ij] element of     0.10056D+01 is above threshold)
   Perturbed canonical restriction dropped for orbital pair   9[1] ;   8[1]
  (U[ij] element of    -0.90532D+00 is above threshold)
  Tolerances in treatment of perturbed canonical orbitals:
     Tol1:    0.00001000 Tol2:    1.00000000
  Tolerances in treatment of perturbed canonical orbitals:
     Tol1:    0.00001000 Tol2:    1.00000000
  Tolerances in treatment of perturbed canonical orbitals:
     Tol1:    0.00001000 Tol2:    1.00000000
   Perturbed canonical restriction dropped for orbital pair   6[1] ;   7[1]
  (U[ij] element of     0.12800D+01 is above threshold)
   Perturbed canonical restriction dropped for orbital pair   7[1] ;   6[1]
  (U[ij] element of    -0.12207D+01 is above threshold)
  Tolerances in treatment of perturbed canonical orbitals:
     Tol1:    0.00001000 Tol2:    1.00000000
  Tolerances in treatment of perturbed canonical orbitals:
     Tol1:    0.00001000 Tol2:    1.00000000
  Tolerances in treatment of perturbed canonical orbitals:
     Tol1:    0.00001000 Tol2:    1.00000000
  Tolerances in treatment of perturbed canonical orbitals:
     Tol1:    0.00001000 Tol2:    1.00000000
  Tolerances in treatment of perturbed canonical orbitals:
     Tol1:    0.00001000 Tol2:    1.00000000
  Tolerances in treatment of perturbed canonical orbitals:
     Tol1:    0.00001000 Tol2:    1.00000000
  Tolerances in treatment of perturbed canonical orbitals:
     Tol1:    0.00001000 Tol2:    1.00000000
  Tolerances in treatment of perturbed canonical orbitals:
     Tol1:    0.00001000 Tol2:    1.00000000
  Tolerances in treatment of perturbed canonical orbitals:
     Tol1:    0.00001000 Tol2:    1.00000000
  Tolerances in treatment of perturbed canonical orbitals:
     Tol1:    0.00001000 Tol2:    1.00000000
   Perturbed canonical restriction dropped for orbital pair   3[1] ;   4[1]
  (U[ij] element of     0.11557D+01 is above threshold)
   Perturbed canonical restriction dropped for orbital pair   4[1] ;   3[1]
  (U[ij] element of    -0.11557D+01 is above threshold)
   Perturbed canonical restriction dropped for orbital pair   4[1] ;   5[1]
  (U[ij] element of     0.23146D+01 is above threshold)
   Perturbed canonical restriction dropped for orbital pair   5[1] ;   4[1]
  (U[ij] element of    -0.23146D+01 is above threshold)
   Perturbed canonical restriction dropped for orbital pair   4[1] ;   7[1]
  (U[ij] element of     0.21024D+01 is above threshold)
   Perturbed canonical restriction dropped for orbital pair   7[1] ;   4[1]
  (U[ij] element of    -0.21024D+01 is above threshold)
   Perturbed canonical restriction dropped for orbital pair   5[1] ;   7[1]
  (U[ij] element of    -0.11127D+01 is above threshold)
   Perturbed canonical restriction dropped for orbital pair   7[1] ;   5[1]
  (U[ij] element of     0.11127D+01 is above threshold)
   Perturbed canonical restriction dropped for orbital pair   5[1] ;   8[1]
  (U[ij] element of     0.37527D+01 is above threshold)
   Perturbed canonical restriction dropped for orbital pair   8[1] ;   5[1]
  (U[ij] element of    -0.37527D+01 is above threshold)
   Perturbed canonical restriction dropped for orbital pair   7[1] ;   8[1]
  (U[ij] element of    -0.76916D+01 is above threshold)
   Perturbed canonical restriction dropped for orbital pair   8[1] ;   7[1]
  (U[ij] element of     0.76916D+01 is above threshold)
   Perturbed canonical restriction dropped for orbital pair   6[1] ;   9[1]
  (U[ij] element of    -0.52522D+01 is above threshold)
   Perturbed canonical restriction dropped for orbital pair   9[1] ;   6[1]
  (U[ij] element of     0.52522D+01 is above threshold)
  Tolerances in treatment of perturbed canonical orbitals:
     Tol1:    0.00001000 Tol2:    1.00000000
   Perturbed canonical restriction dropped for orbital pair   5[1] ;   7[1]
  (U[ij] element of     0.10109D+01 is above threshold)
   Perturbed canonical restriction dropped for orbital pair   7[1] ;   5[1]
  (U[ij] element of    -0.10109D+01 is above threshold)
   Perturbed canonical restriction dropped for orbital pair   4[1] ;   8[1]
  (U[ij] element of     0.10187D+01 is above threshold)
   Perturbed canonical restriction dropped for orbital pair   8[1] ;   4[1]
  (U[ij] element of    -0.10187D+01 is above threshold)
   Perturbed canonical restriction dropped for orbital pair   7[1] ;   8[1]
  (U[ij] element of     0.15183D+01 is above threshold)
   Perturbed canonical restriction dropped for orbital pair   8[1] ;   7[1]
  (U[ij] element of    -0.15183D+01 is above threshold)
  Tolerances in treatment of perturbed canonical orbitals:
     Tol1:    0.00001000 Tol2:    1.00000000
   Perturbed canonical restriction dropped for orbital pair   4[1] ;   6[1]
  (U[ij] element of     0.13021D+01 is above threshold)
   Perturbed canonical restriction dropped for orbital pair   6[1] ;   4[1]
  (U[ij] element of    -0.13021D+01 is above threshold)
   Perturbed canonical restriction dropped for orbital pair   5[1] ;   6[1]
  (U[ij] element of     0.21326D+01 is above threshold)
   Perturbed canonical restriction dropped for orbital pair   6[1] ;   5[1]
  (U[ij] element of    -0.21326D+01 is above threshold)
   Perturbed canonical restriction dropped for orbital pair   6[1] ;   7[1]
  (U[ij] element of     0.23330D+01 is above threshold)
   Perturbed canonical restriction dropped for orbital pair   7[1] ;   6[1]
  (U[ij] element of    -0.23330D+01 is above threshold)
   Perturbed canonical restriction dropped for orbital pair   6[1] ;   8[1]
  (U[ij] element of     0.17595D+01 is above threshold)
   Perturbed canonical restriction dropped for orbital pair   8[1] ;   6[1]
  (U[ij] element of    -0.17595D+01 is above threshold)
   Perturbed canonical restriction dropped for orbital pair   8[1] ;   9[1]
  (U[ij] element of    -0.12261D+01 is above threshold)
   Perturbed canonical restriction dropped for orbital pair   9[1] ;   8[1]
  (U[ij] element of     0.12261D+01 is above threshold)

                     SCF static dipole polarizability
                     --------------------------------

                         Ex          Ey          Ez

            Ex      16.718810   -0.998537   -0.000135
            Ey      -0.998537   15.650941    0.000067
            Ez      -0.000135    0.000067   13.850184


  There are                     44  special pairs.
  @CHECKOUT-I, Total execution time (CPU/WALL):        0.16/       0.04 seconds.
--executable xcphf finished with status     0 in        0.22 seconds (walltime).
 --invoking executable--
/opt/vulcan/opt/vulcan/linux-x86_64/intel-13.0.0/cfour-2.0-yhj426etc3g7hslvbmpgvdymp2w76rob/bin/xsdcc
 @GETMEM-I,  Allocated    6675 MB of main memory.
 Vibrational frequencies and infrared intensities are calculated
 at the CCSD(T) level within the harmonic approximation.
 Perturbed canonical orbitals are used.
  soterm F
 CPHF coefficients for vrt-vrt block: U^x(a,b) = -1/2 S^x(a,b)
 Transformation of derivative integrals from AO to MO basis:
 RHF transformation
 Transformation of DIIII integral derivatives.
 1 pass through the AO integral derivative file was needed.
    508946 AO integral derivatives were read from file DIIII.
 Transformation of first index required    0.9 seconds.
 Transformation of remaining indices required    0.4 seconds.
   3251907 MO integral derivatives were written to file DERINT.
        MO basis integral derivatives are being calculated
             (Symmetry block 1, perturbation   4)
        First derivative of the wavefunction is calculated
             (Symmetry block 1, perturbation   4)
 Resorts of perturbed amplitudes and integrals required   0.0 seconds.
 Construction of <Phi|(dH_N/dx exp(T))c|0> required   0.2 seconds.
 Starting iterative solution of the perturbed CC equations.
 The DIIS procedure is used to accelerate convergence.
 Convergence criterion is 10**(-7).
 Maximum number of iterations is 100.
 Convergence information after     1 iterations: 
 Largest element of residual vector : -0.12096635E-01.
 Largest element of DIIS residual   : -0.12096635E-01.
 Convergence information after     2 iterations: 
 Largest element of residual vector : -0.30955772E-02.
 Largest element of DIIS residual   : -0.26372323E-02.
 Convergence information after     3 iterations: 
 Largest element of residual vector : -0.22332477E-02.
 Largest element of DIIS residual   : -0.15425888E-02.
 Convergence information after     4 iterations: 
 Largest element of residual vector : -0.95606011E-03.
 Largest element of DIIS residual   : -0.38651956E-03.
 Convergence information after     5 iterations: 
 Largest element of residual vector : -0.25046212E-03.
 Largest element of DIIS residual   :  0.13388610E-03.
 Convergence information after     6 iterations: 
 Largest element of residual vector : -0.79283059E-04.
 Largest element of DIIS residual   :  0.39609740E-04.
 Convergence information after     7 iterations: 
 Largest element of residual vector :  0.29814559E-04.
 Largest element of DIIS residual   :  0.22249377E-04.
 Convergence information after     8 iterations: 
 Largest element of residual vector :  0.12822101E-04.
 Largest element of DIIS residual   :  0.52488978E-05.
 Convergence information after     9 iterations: 
 Largest element of residual vector :  0.36184372E-05.
 Largest element of DIIS residual   :  0.19423916E-05.
 Convergence information after    10 iterations: 
 Largest element of residual vector :  0.11323608E-05.
 Largest element of DIIS residual   :  0.70218867E-06.
 Convergence information after    11 iterations: 
 Largest element of residual vector :  0.43387932E-06.
 Largest element of DIIS residual   :  0.30122661E-06.
 Convergence information after    12 iterations: 
 Largest element of residual vector :  0.19703151E-06.
 Largest element of DIIS residual   :  0.12158041E-06.
 Convergence information after    13 iterations: 
 Largest element of residual vector :  0.76295964E-07.
 Largest element of DIIS residual   :  0.43485956E-07.
 Perturbed amplitude equations converged in    13 iterations.
  Dominant contributions to perturbed wavefunction:
    7    7   14   14  -0.0439720997 ABAB
    7    7   17   14   0.0269914868 ABAB
    7    7   14   17   0.0269914868 ABAB
    8    7   14   14  -0.0248904984 ABAB
    7    8   14   14  -0.0248904984 ABAB
    9    9   12   12   0.0189864894 ABAB
    8    7   17   17  -0.0188544231 ABAB
    7    8   17   17  -0.0188544231 ABAB
    8    7   17   14   0.0184874045 ABAB
    7    8   14   17   0.0184874045 ABAB
    8    7   14   17   0.0174182973 ABAB
    7    8   17   14   0.0174182973 ABAB
    7    7   17   17  -0.0171329672 ABAB
    8    5   14   14  -0.0155721907 ABAB
    5    8   14   14  -0.0155721907 ABAB
    7    5   14   14  -0.0147192316 ABAB
    5    7   14   14  -0.0147192316 ABAB
    8    8   17   14   0.0143700059 ABAB
    8    8   14   17   0.0143700059 ABAB
    7    0   17    0   0.0138419717 AA  
  Total CCSD gradient is   -0.009532702287766.
  norm of converged amps   0.320926287375020     
  special occupied indices: 
   Memory requirement in dtrp1rhfd                 935545
  There are                    156  ijk combinations. 
 PARA: timing for (T) xsdcc                8.74 seconds.
 Starting iterative solution of the perturbed Lambda equations.
 The DIIS procedure is used to accelerate convergence.
 Convergence criterion is 10**(-7).
 Maximum number of iterations is 100.
 Convergence information after     1 iterations: 
 Largest element of residual vector : -0.11771545E-01.
 Largest element of DIIS residual   : -0.11771545E-01.
 Convergence information after     2 iterations: 
 Largest element of residual vector : -0.32400370E-02.
 Largest element of DIIS residual   : -0.29176618E-02.
 Convergence information after     3 iterations: 
 Largest element of residual vector : -0.21634817E-02.
 Largest element of DIIS residual   : -0.15570625E-02.
 Convergence information after     4 iterations: 
 Largest element of residual vector : -0.95309709E-03.
 Largest element of DIIS residual   : -0.42451641E-03.
 Convergence information after     5 iterations: 
 Largest element of residual vector : -0.26537276E-03.
 Largest element of DIIS residual   : -0.12435368E-03.
 Convergence information after     6 iterations: 
 Largest element of residual vector : -0.77737421E-04.
 Largest element of DIIS residual   :  0.39653262E-04.
 Convergence information after     7 iterations: 
 Largest element of residual vector :  0.28883536E-04.
 Largest element of DIIS residual   :  0.22042323E-04.
 Convergence information after     8 iterations: 
 Largest element of residual vector :  0.12991229E-04.
 Largest element of DIIS residual   :  0.56216507E-05.
 Convergence information after     9 iterations: 
 Largest element of residual vector :  0.38011160E-05.
 Largest element of DIIS residual   :  0.21275063E-05.
 Convergence information after    10 iterations: 
 Largest element of residual vector :  0.12516323E-05.
 Largest element of DIIS residual   :  0.66088467E-06.
 Convergence information after    11 iterations: 
 Largest element of residual vector :  0.40738489E-06.
 Largest element of DIIS residual   :  0.30032772E-06.
 Convergence information after    12 iterations: 
 Largest element of residual vector :  0.19569312E-06.
 Largest element of DIIS residual   :  0.12785827E-06.
 Convergence information after    13 iterations: 
 Largest element of residual vector :  0.78478587E-07.
 Largest element of DIIS residual   :  0.42978202E-07.
 Perturbed Lambda equations converged in    13 iterations.
  Dominant contributions to perturbed wavefunction:
    7    7   14   14  -0.0495150177 ABAB
    7    7   17   14   0.0303158606 ABAB
    7    7   14   17   0.0303158606 ABAB
    8    7   14   14  -0.0285577624 ABAB
    7    8   14   14  -0.0285577624 ABAB
    9    9   12   12   0.0215995228 ABAB
    8    7   17   17  -0.0213026447 ABAB
    7    8   17   17  -0.0213026447 ABAB
    8    7   17   14   0.0208807781 ABAB
    7    8   14   17   0.0208807781 ABAB
    7    7   17   17  -0.0199298286 ABAB
    8    7   14   17   0.0197138910 ABAB
    7    8   17   14   0.0197138910 ABAB
    8    5   14   14  -0.0174313570 ABAB
    5    8   14   14  -0.0174313570 ABAB
    7    5   14   14  -0.0165500189 ABAB
    5    7   14   14  -0.0165500189 ABAB
    8    8   17   14   0.0160234037 ABAB
    8    8   14   17   0.0160234037 ABAB
    8    8   13   13   0.0152646015 ABAB
  Total CCSD gradient is   -0.010939659016591.
        The first-order density matrix is being calculated 
             (Symmetry block 1, perturbation   4)
  There are                     44  special pairs.
  dD(i,j)/dB
    0.00000085367184     0.00000000000000     0.00000000000000     0.00000000000000
    0.00000000000000     0.00000000000000     0.00000000000000     0.00000000000000
    0.00000000000000     0.00000000000000     0.00001557197280     0.00000000000000
    0.00000000000000     0.00000000000000     0.00000000000000     0.00000000000000
    0.00000000000000     0.00000000000000     0.00000000000000     0.00000000000000
   -0.00100803920702    -0.00041735678116     0.00000000000000     0.00000000000000
    0.00000000000000     0.00000000000000     0.00000000000000     0.00000000000000
    0.00000000000000    -0.00041735678116    -0.00026947742138    -0.00133764018193
    0.00000000734839     0.00305543133677     0.00275563722024     0.00000000000000
    0.00000000000000     0.00000000000000     0.00000000000000    -0.00133764018193
    0.00182851966931     0.00000028948879    -0.00309868579894    -0.00577350844057
    0.00000000000000     0.00000000000000     0.00000000000000     0.00000000000000
    0.00000000734839     0.00000028948879    -0.00379483660220     0.00000051908344
    0.00000004753343     0.00046007237688     0.00000000000000     0.00000000000000
    0.00000000000000     0.00305543133677    -0.00309868579894     0.00000051908344
   -0.01609654506255    -0.00756857866999     0.00000000000000     0.00000000000000
    0.00000000000000     0.00000000000000     0.00275563722024    -0.00577350844057
    0.00000004753343    -0.00756857866999    -0.00112757723983     0.00000017359663
    0.00000000000000     0.00000000000000     0.00000000000000     0.00000000000000
    0.00000000000000     0.00046007237688     0.00000000000000     0.00000017359663
    0.00376531916363
checksum dDij   0.0005320270322     0.0768426357249    -0.0405333948314
 Calculation of the contributions of <pq||rs> to dI(i,j)/dx
 required   0.0 seconds.
 Calculation of the contributions of <pq||rs> to dI(a,b)/dx
 required   0.1 seconds.
  dD(ij)/dx contribution from formdxij
    0.00000085367184     -0.00000114697642      0.00004666471112      0.00002350932945
   -0.00005924289245     -0.00000000413872     -0.00005487195359      0.00003318633449
   -0.00000000283364     -0.00000114697642      0.00001557197280     -0.00001809709238
    0.00005779618302     -0.00004735611027      0.00000000282052     -0.00003191424359
   -0.00001377044285     -0.00000000296870      0.00004666471112     -0.00001809709238
   -0.00100803920702     -0.00040412756076     -0.00076677549008     -0.00000028372415
    0.00077360428691      0.00277266857338     -0.00000015082210      0.00002350932945
    0.00005779618302     -0.00040412756076     -0.00026947742138     -0.00136932677134
    0.00000000367257      0.00313340844956      0.00283126884097      0.00000009540904
   -0.00005924289245     -0.00004735611027     -0.00076677549008     -0.00136932677134
    0.00182851966931      0.00000029997807     -0.00319125203843     -0.00591356231337
   -0.00000005617337     -0.00000000413872      0.00000000282052     -0.00000028372415
    0.00000000367257      0.00000029997807     -0.00379483660220      0.00000053664524
    0.00000005022223      0.00048249108765     -0.00005487195359     -0.00003191424359
    0.00077360428691      0.00313340844956     -0.00319125203843      0.00000053664524
   -0.01609654506255     -0.00781758107730      0.00000038241293      0.00003318633449
   -0.00001377044285      0.00277266857338      0.00283126884097     -0.00591356231337
    0.00000005022223     -0.00781758107730     -0.00112757723983      0.00000017479108
   -0.00000000283364     -0.00000000296870     -0.00000015082210      0.00000009540904
   -0.00000005617337      0.00048249108765      0.00000038241293      0.00000017479108
    0.00376531916363
 oo  1.230361695235626E-002
 oo -5.254475394820011E-003
 oo  4.836939470025491E-007
 oo -1.035797162285224E-002
 oo  5.474591115816956E-003
 oo  5.999165836196319E-007
 oo -6.912169249644223E-004
 oo  1.434707864072098E-003
 oo -8.303861305942278E-007
 oo -1.722044510022613E-003
 oo -7.160547249542792E-004
 oo  1.716277722963496E-003
 oo -1.722795016915152E-003
 oo -7.178665849608300E-004
 oo -1.716261928313118E-003
 oo  2.190411122398093E-003
 oo -2.209022751539771E-004
 oo -2.690190503630629E-007
 Calculation of the contributions of <pq||rs> to dI(i,a)/dx
 required   0.1 seconds.
 First-order Z-vector equations are solved for 1 perturbation.
 Convergence reached after  23 iterations.
        U*G(pq,rs) contribution is being calculated
             (Symmetry block 1, perturbation   4)

 CCSD(T) contribution to force constants 

        0.0000000000        0.0000000000        0.0000000000
        0.0000000000        0.0000000000        0.0000000000
        0.0000000000        0.0000000000        0.0000000000
        0.0000000000        0.0000000000        0.0000000000
        0.0000000000        0.0000000000        0.0000000000
        0.0000000000        0.0000000000        0.0000000000
        0.0000000000        0.0000000000        0.0000000000
        0.0000000000        0.0000000000        0.0000000000
        0.0000000000        0.0000000000        0.0000000000
        0.0000000000        0.0000000000        0.0000000000
        0.0000000000        0.0000000000        0.0000000000
        0.0000000000        0.0000000000        0.0000000000
        0.0000000000        0.0000000000        0.0000000000
        0.0000000000        0.0000000000        0.0000000000
        0.0000000000        0.0000000000        0.0000000000
        0.0000000000        0.0000000000        0.0000000000
        0.0000000000        0.0000000000        0.0000000000
        0.0000000000        0.0000000000        0.0000000000
        0.0420248554        0.0054571474       -0.0000008005
       -0.0471096229        0.0071852163        0.0000008895
        0.0007852798        0.0013441686       -0.0000005801
       -0.0014719254       -0.0014813790        0.0026798844
       -0.0014716507       -0.0014840745       -0.0026784395
        0.0072430639       -0.0110210788       -0.0000009538
        0.0000000000        0.0000000000        0.0000000000
        0.0000000000        0.0000000000        0.0000000000
        0.0000000000        0.0000000000        0.0000000000
[...]

 H #4 x   -0.073613   -0.038885    0.072251   -0.031395   -0.018124    0.029879
 H #4 y   -0.042671   -0.114058    0.111775   -0.002735    0.004596   -0.000260
 H #4 z    0.075645    0.112819   -0.249615    0.003044   -0.002887    0.009054

 H #5 x   -0.073611   -0.038945   -0.072206   -0.031393   -0.018152   -0.029867
 H #5 y   -0.042738   -0.114259   -0.111900   -0.002734    0.004595    0.000262
 H #5 z   -0.075600   -0.112944   -0.249419   -0.003041    0.002890    0.009046

 H #6 x   -0.021606    0.046758   -0.000001   -0.096690    0.128602    0.000002
 H #6 y   -0.012217    0.000335    0.000001    0.189380   -0.496611   -0.000007
 H #6 z   -0.000003    0.000003   -0.001435    0.000006   -0.000011    0.001789


           H #3 x      H #3 y      H #3 z      H #4 x      H #4 y      H #4 z

 H #3 x    0.094377
 H #3 y   -0.103420    0.347337
 H #3 z    0.000047   -0.000145    0.042759

 H #4 x    0.004894    0.003945   -0.008871    0.092412
 H #4 y   -0.009630   -0.012339    0.027151    0.050011    0.112822
 H #4 z   -0.000769   -0.001601    0.001135   -0.086061   -0.122706    0.260728

 H #5 x    0.004893    0.003953    0.008868    0.005779    0.004831    0.007374
 H #5 y   -0.009629   -0.012362   -0.027138    0.004823    0.008381    0.014430
 H #5 z    0.000778    0.001614    0.001159   -0.007378   -0.014458   -0.021508

 H #6 x   -0.008460   -0.001561    0.000001    0.001923    0.000194    0.000767
 H #6 y    0.000565    0.002706   -0.000001   -0.001769    0.000597   -0.000055
 H #6 z   -0.000005    0.000001    0.000576    0.000179   -0.001503    0.000206


           H #5 x      H #5 y      H #5 z      H #6 x      H #6 y      H #6 z

 H #5 x    0.092404
 H #5 y    0.050084    0.113043
 H #5 z    0.086008    0.122843    0.260515

 H #6 x    0.001928    0.000193   -0.000768    0.122906
 H #6 y   -0.001770    0.000600    0.000055   -0.174187    0.492372
 H #6 z   -0.000177    0.001503    0.000207   -0.000001    0.000006   -0.001342




                           Total dipole moment
                           -------------------

                               au             Debye

                    x     -0.31317964     -0.79602338
                    y     -0.55119539     -1.40099919
                    z     -0.00003560     -0.00009048

  Conversion factor used: 1 a.u. =   2.54174691 Debye 



                     Total dipole moment derivatives
                     -------------------------------

                              Ex             Ey             Ez

               C #1 x     0.81434336     0.03621398    -0.00007568
               C #1 y    -0.00659651     0.29165601     0.00001980
               C #1 z    -0.00003073     0.00002088     0.41924868

               O #2 x    -0.87407213    -0.02279870     0.00004874
               O #2 y     0.03049312    -0.24900064    -0.00000321
               O #2 z    -0.00000451    -0.00004110    -0.54049610

               H #3 x    -0.01067613     0.03721778    -0.00001007
               H #3 y     0.07775167    -0.12388826     0.00008617
               H #3 z    -0.00003422     0.00009922     0.05751211

               H #4 x    -0.08804167    -0.02096971     0.05343503
               H #4 y    -0.06169387    -0.01454011     0.09439595
               H #4 z     0.08434360     0.09246664    -0.14098573

               H #5 x    -0.08802587    -0.02100383    -0.05339251
               H #5 y    -0.06176505    -0.01468571    -0.09450809
               H #5 z    -0.08427143    -0.09257897    -0.14081751

               H #6 x     0.24647244    -0.00865952    -0.00000551
               H #6 y     0.02181064     0.11045871     0.00000937
               H #6 z    -0.00000271     0.00003333     0.34553855



  @CHECKOUT-I, Total execution time (CPU/WALL):       10.03/       2.53 seconds.
--executable xvdint finished with status     0 in        2.62 seconds (walltime).
 --invoking executable--
/opt/vulcan/opt/vulcan/linux-x86_64/intel-13.0.0/cfour-2.0-yhj426etc3g7hslvbmpgvdymp2w76rob/bin/xjoda
 @GETREC: requested length of vector OCCUPYA0 is longer than actual
 Actual --                      1  Requested --                      8
 @GETREC: requested length of vector OCCUPYA0 is longer than actual
 Actual --                      1  Requested --                      8
  igrd and ihes are                      0                     0
  fetching hessian                    324
  masses used (in AMU) in vibrational analysis: 
  12.000000000     15.994914630      1.007825035
   1.007825035      1.007825035      1.007825035
                     Normal Coordinate Analysis
  ----------------------------------------------------------------
    Irreducible         Harmonic       Infrared        Type 
   Representation       Frequency      Intensity 
  ----------------------------------------------------------------
                       (cm-1)         (km/mol)
  ----------------------------------------------------------------
      ----               389.9373i       15.7059       ROTATION  
      ----               159.9572i        5.2264       ROTATION  
         A               148.1016i       23.9598       VIBRATION 
      ----               133.3607i       95.0448       ROTATION  
      ----                 0.1102i        0.0000      TRANSLATION
      ----                 0.2695         0.0000      TRANSLATION
      ----                 0.3464         0.0000      TRANSLATION
         A              1026.3337        53.5374       VIBRATION 
         A              1112.1876        52.2371       VIBRATION 
         A              1132.7960         1.4843       VIBRATION 
         A              1370.7613        25.5324       VIBRATION 
         A              1452.6793         9.3356       VIBRATION 
         A              1472.9848         1.7615       VIBRATION 
         A              1490.1557         2.7308       VIBRATION 
         A              3171.6525        56.5497       VIBRATION 
         A              3242.4935        74.0068       VIBRATION 
         A              3309.9447        33.1596       VIBRATION 
         A              3953.7410        20.2006       VIBRATION 
  ----------------------------------------------------------------
 
 
                                   Normal Coordinates 

                 A                         A                         A
               148.10i                  1026.33                   1112.19 
             VIBRATION                 VIBRATION                 VIBRATION 
 C      0.000-0.0002  0.5107    0.0824 -0.2635 -0.0000    0.6731  0.0930  0.0003
 O     -0.000 0.0002 -0.6539   -0.2157  0.0349  0.0000   -0.6576 -0.0608 -0.0001
 H     -0.000-0.0000  0.3293    0.5448  0.1175  0.0001    0.0338 -0.0306 -0.0002
 H      0.222-0.0677  0.2064   -0.2541  0.2082  0.0403    0.1989 -0.0277 -0.0196
 H     -0.222 0.0675  0.2063   -0.2545  0.2081 -0.0404    0.1996 -0.0276  0.0194
 H      0.000 0.0001  0.1009    0.5386  0.2366 -0.0001   -0.1352  0.0074 -0.0000

                 A                         A                         A
              1132.80                   1370.76                   1452.68 
             VIBRATION                 VIBRATION                 VIBRATION 
 C      0.000 0.0000 -0.4453    0.0818 -0.3875  0.0000    0.3541 -0.0354  0.0001
 O     -0.000-0.0000  0.2397    0.0731  0.2921  0.0000    0.0562 -0.0072  0.0000
 H     -0.000 0.0001  0.2486    0.3254 -0.0032  0.0001   -0.5585 -0.2365 -0.0002
 H      0.554 0.0881  0.1621   -0.1030  0.1933  0.1169   -0.4487  0.1951 -0.1073
 H     -0.553-0.0882  0.1622   -0.1032  0.1930 -0.1170   -0.4490  0.1955  0.1071
 H     -0.000-0.0000  0.0087   -0.6924 -0.2094 -0.0001    0.0106 -0.0032  0.0000

                 A                         A                         A
              1472.98                   1490.16                   3171.65 
             VIBRATION                 VIBRATION                 VIBRATION 
 C      0.000-0.0000 -0.1884    0.0912  0.1221  0.0000    0.1508  0.0812 -0.0000
 O      0.000 0.0000 -0.0396    0.0261  0.0932  0.0000    0.0054 -0.0001  0.0000
 H     -0.000 0.0003  0.7061    0.3056  0.1172 -0.0004   -0.1085  0.3180 -0.0002
 H     -0.301 0.3722  0.0549   -0.2887 -0.4359 -0.3813   -0.2183 -0.2972  0.5412
 H      0.300-0.3724  0.0557   -0.2891 -0.4352  0.3816   -0.2183 -0.2977 -0.5409
 H     -0.000-0.0000 -0.0088   -0.1464 -0.0389 -0.0000    0.0033 -0.0030 -0.0000

                 A                         A                         A
              3242.49                   3309.94                   3953.74 
             VIBRATION                 VIBRATION                 VIBRATION 
 C      0.000 0.0001  0.3109    0.0461 -0.2993  0.0001    0.0046  0.0089 -0.0000
 O     -0.000-0.0000 -0.0012   -0.0019  0.0057 -0.0000   -0.0947  0.2230  0.0000
 H     -0.000 0.0000  0.0222   -0.2989  0.8505 -0.0004    0.0018 -0.0141  0.0000
 H      0.228 0.3222 -0.5437    0.0742  0.0873 -0.1859    0.0033 -0.0005  0.0009
 H     -0.227-0.3227 -0.5435    0.0742  0.0875  0.1858    0.0033 -0.0006 -0.0009
 H     -0.000 0.0000 -0.0031   -0.0008 -0.0152  0.0000    0.3529 -0.9036 -0.0000
            Gradient vector in normal coordinate representation
         ----------------------------------------------------------
   i    W(I)     dE/dQ(i)     dE/dq      dE/dq     [dE/dQ(i)]/w(i)
                              (cm-1)      (eV)        (relative)
         ----------------------------------------------------------
    3   148.10 -0.0000011380     -0.22519     -0.00003  -0.0000000000
    8  1026.33  0.0009012615     67.74899      0.00840  -0.0000000224
    9  1112.19  0.0011757084     84.89984      0.01053  -0.0000000352
   10  1132.80  0.0000003495      0.02500      0.00000  -0.0000000000
   11  1370.76 -0.0020083901   -130.63617     -0.01620  -0.0000000833
   12  1452.68 -0.0016522834   -104.39891     -0.01294  -0.0000000532
   13  1472.98 -0.0000029689     -0.18629     -0.00002  -0.0000000000
   14  1490.16 -0.0013923605    -86.86247     -0.01077  -0.0000000368
   15  3171.65 -0.0210719638   -901.06994     -0.11172  -0.0000039613
   16  3242.49 -0.0000001548     -0.00655     -0.00000  -0.0000000000
   17  3309.94 -0.0059857883   -250.55742     -0.03107  -0.0000003063
   18  3953.74 -0.0079641437   -305.02207     -0.03782  -0.0000004539
         ----------------------------------------------------------
 
                      Normal modes in internal coordinates 
---------------------------------------------------------------------------
            389.937       159.957       148.102       133.361         0.110
---------------------------------------------------------------------------
R1        -0.000000     -0.001607     -0.000019     -0.000012     -0.000000
R2        -0.000002     -0.000309     -0.000010     -0.000005     -0.000000
A2        -0.000000      0.013402     -0.000033     -0.000037     -0.000000
R3        -0.000165      0.000292     -0.001526     -0.002279      0.000000
A3         0.000230     -0.006299     -0.047842      0.006187     -0.000000
D3         0.000592     -0.007000      0.048605      0.001370     -0.000000
R3         0.000166      0.000290      0.001539      0.002287      0.000000
A3        -0.000229     -0.006311      0.047848     -0.006161     -0.000000
D4         0.000592      0.006982      0.048593      0.001342      0.000000
R5         0.000002      0.000151      0.000007      0.000004      0.000000
A5        -0.000003      0.004840      0.000011     -0.000003      0.000000
D5        -0.040815      0.000355     -0.995336     -0.628026      0.000000
---------------------------------------------------------------------------
              0.270         0.346      1026.334      1112.188      1132.796
---------------------------------------------------------------------------
R1         0.000000      0.000000     -0.134456     -0.957885     -0.000306
R2         0.000000      0.000000      0.007600      0.002869     -0.000002
A2         0.000000      0.000000     -0.558397      0.243383      0.000332
R3         0.000000     -0.000000      0.000698      0.020817     -0.001132
A3        -0.000000      0.000000      0.281147     -0.015832     -0.505772
D3        -0.000000      0.000000      0.293742     -0.088266      0.466493
R3        -0.000000      0.000000      0.000692      0.020801      0.001141
A3         0.000000     -0.000000      0.281626     -0.017096      0.505512
D4         0.000000      0.000000     -0.293275      0.087130      0.466828
R5        -0.000000      0.000000     -0.006904     -0.028255     -0.000010
A5        -0.000000     -0.000000      0.582543      0.074992     -0.000020
D5         0.000001     -0.000001     -0.000051      0.000325     -0.230446
---------------------------------------------------------------------------
           1370.761      1452.679      1472.985      1490.156      3171.652
---------------------------------------------------------------------------
R1         0.007566     -0.162040     -0.000045     -0.039153     -0.042725
R2        -0.000928      0.024604     -0.000005     -0.035338      0.322504
A2        -0.362406      0.618596      0.000091     -0.262404      0.028049
R3        -0.001186      0.025630      0.025683      0.036428      0.668258
A3         0.145871      0.520400      0.133740      0.329509      0.006775
D3         0.317954      0.153089      0.631325     -0.583881     -0.008505
R3        -0.001184      0.025665     -0.025650      0.036473      0.668203
A3         0.146120      0.520603     -0.133338      0.329789      0.006780
D4        -0.317611     -0.153992      0.631576      0.582846      0.008510
R5         0.021653      0.000225     -0.000000      0.008073      0.003437
A5        -0.789640     -0.012944     -0.000032     -0.166363      0.008166
D5        -0.000051      0.000269     -0.406888      0.000354      0.000002
---------------------------------------------------------------------------
           3242.494      3309.945      3953.741
---------------------------------------------------------------------------
R1        -0.000003     -0.008576     -0.021482
R2         0.000028      0.936186     -0.015339
A2         0.000000     -0.043869     -0.017312
R3        -0.702283     -0.239879      0.001442
A3         0.046653      0.027878      0.008220
D3        -0.063451      0.041783      0.005936
R3         0.702324     -0.239901      0.001455
A3        -0.046651      0.027878      0.008235
D4        -0.063451     -0.041779     -0.005927
R5        -0.000008      0.014657      0.999317
A5         0.000016     -0.034671     -0.012607
D5         0.033702     -0.000011     -0.000000
---------------------------------------------------------------------------
 
  ----------------------------------------------------------------
                    Dipole Moment Function
                   (Normal Coordinate Basis)
  ----------------------------------------------------------------
    Mode     Symmetry    d(Mu(x))/dQ   d(Mu(y))/dQ   d(Mu(z))/dQ
  ----------------------------------------------------------------
     Q3           A        0.000020      0.000005      0.156772
     Q8           A        0.233741      0.016819     -0.000030
     Q9           A        0.230758      0.018292     -0.000002
     Q10          A        0.000108      0.000007     -0.039020
     Q11          A       -0.158063     -0.034737     -0.000016
     Q12          A        0.097834      0.002197     -0.000030
     Q13          A        0.000064      0.000006      0.042508
     Q14          A        0.025414     -0.046425     -0.000011
     Q15          A        0.226355      0.082287     -0.000057
     Q16          A       -0.000010      0.000112      0.275526
     Q17          A        0.025425     -0.182669      0.000084
     Q18          A        0.088977     -0.113157     -0.000015
  ----------------------------------------------------------------
---------------------------------------------------------------------------
------------------------------------------------------------
        Parameter                (MHz)                 (CM-1)
------------------------------------------------------------
 
           R6                -.266828E-04           -.890041E-09
           R5                -.201461E-02           -.672000E-07
           SI                            0.238969E+03
 
  A-reduced centrifugal distortion parameters (Ir representation) 
 
           DJ                0.473993E-01           0.158107E-05
           DK                0.106877E+01           0.356503E-04
           DJK               0.317383E+00           0.105868E-04
           DELJ              0.474526E-01           0.158285E-05
           DELK              0.106904E+01           0.356592E-04
           DELJK             0.317063E+00           0.105761E-04
           delJ              0.155212E-02           0.517730E-07
           delK              0.295347E-01           0.985171E-06
 
  S-reduced centrifugal distortion parameters (Ir representation) 
 
           DJ                0.473908E-01           0.158079E-05
           DK                0.106873E+01           0.356489E-04
           DJK               0.317433E+00           0.105884E-04
           D1                -.155212E-02           -.517730E-07
           D2                -.308980E-04           -.103065E-08
------------------------------------------------------------
  ierr and ierr2                      1                     1
   Vibrational frequencies after rotational projection  of 
   Cartesian force constants: 
            1             137.1166i
            2               0.4036i
            3               0.3830i
            4               0.1137i
            5               0.1208 
            6               0.2238 
            7               0.2792 
            8            1026.0721 
            9            1112.1431 
           10            1132.0201 
           11            1370.3966 
           12            1452.6793 
           13            1472.9815 
           14            1490.1401 
           15            3171.6523 
           16            3242.4926 
           17            3309.9443 
           18            3953.7405 
  Zero-point energy:   32.5011 kcal/mol =  135.9849 kJ/mol =   11367.443 cm-1 
 
  Finite temperature thermodynamic corrections:
=======================================================
Temperature     Entropy       Enthalpy     Gibbs Energy
    (K)        (J/(mol K))    (kJ/mol)      (kJ/mol) 
=======================================================
    298.15      232.5286       10.1890      -59.1394
    100.00      195.1157        3.3258      -16.1858
    200.00      218.2709        6.6698      -36.9844
    300.00      232.7668       10.2602      -59.5698
    400.00      244.8747       14.4875      -83.4624
    500.00      256.0782       19.5234     -108.5157
    600.00      266.6632       25.3403     -134.6576
    700.00      276.6828       31.8485     -161.8295
    800.00      286.1700       38.9596     -189.9764
    900.00      295.1635       46.6002     -219.0470
   1000.00      303.7034       54.7094     -248.9940
   1100.00      311.8266       63.2355     -279.7738
   1200.00      319.5660       72.1327     -311.3465
   1300.00      326.9507       81.3607     -343.6752
   1400.00      334.0063       90.8832     -376.7257
   1500.00      340.7560      100.6677     -410.4663
   1600.00      347.2207      110.6857     -444.8674
   1700.00      353.4194      120.9115     -479.9015
   1800.00      359.3699      131.3228     -515.5430
   1900.00      365.0882      141.8997     -551.7678
   2000.00      370.5891      152.6249     -588.5534
=======================================================
  @CHECKOUT-I, Total execution time (CPU/WALL):        0.05/       0.02 seconds.
--executable xjoda finished with status     0 in        0.22 seconds (walltime).
  The final electronic energy is      -115.424584752062472 a.u. 
  This computation required                          104.28 seconds (walltime).
