
 Primary working directories    : /tmp/795519.135.gen4.q
 Secondary working directories  : /tmp/795519.135.gen4.q
 Wavefunction directory         : /home/vulcan/mel64643/wfu/
 Main file repository           : /tmp/795519.135.gen4.q/

 ARCHNAME  : Linux/x86_64
 FC        : /opt/intel/compilers_and_libraries_2016.1.150/linux/bin/intel64/ifort
 FCVERSION : 16.0.1
 BLASLIB   : -mkl
 id        : ccgc

 Nodes     nprocs
 n056         1
 ga_uses_ma=false, calling ma_init with nominal heap.
 GA-space will be limited to   8.0 MW (determined by -G option)

 Using customized tuning parameters: mindgm=10; mindgv=16; mindgc=4; mindgr=1; noblas=0; mincuda=1000; minvec=7
 default implementation of scratch files=df  

 ***,Optimization of min3
 memory,1000,m
 gthresh,energy=1.0d-12,orbital=1.0d-10,oneint=1.0d-16,twoint=1.0d-16,optgrad=1.0d-6,compress=1.0d-13
 geomtyp=xyz
 
  bohr
  geometry = {
  6
  arbitrary comment
  C   -1.3742987316   -0.0266490034    0.0000003203
  O    1.3029067724    0.1208813371    0.0000002831
  H   -2.0700723664    1.9138597408   -0.0000801383
  H   -2.1110058627   -0.9829799497    1.6771189682
  H   -2.1109991355   -0.9831107743   -1.6770464824
  H    1.9397451638   -1.5721334704   -0.0000013608
 }
 
 basis=cc-pvdz
 {rhf;maxit,200}
 {ccsd(t);maxit,200}

 Variables initialized (661), CPU time= 0.01 sec
 Commands  initialized (458), CPU time= 0.00 sec, 486 directives.
 Default parameters read. Elapsed time= 0.05 sec

 Checking input...
 Passed
1


                                         ***  PROGRAM SYSTEM MOLPRO  ***
                         Copyright, University College Cardiff Consultants Limited, 2008

                                    Version 2010.1 linked May 16 2016 07:17:05


 **********************************************************************************************************************************
 LABEL *   Optimization of min3                                                          
 Linux-4.4.3/n056(x86_64) 64 bit mpp version                                             DATE: 24-Oct-22          TIME: 15:43:51  
 **********************************************************************************************************************************

 SHA1:             9e8077add272b0f3cad6f7df79ec5211205f459d
 **********************************************************************************************************************************

 THRESHOLDS:

 ZERO    =  1.00D-12  ONEINT  =  1.00D-16  TWOINT  =  1.00D-16  PREFAC  =  1.00D-14  LOCALI  =  1.00D-09  EORDER  =  1.00D-04
 ENERGY  =  1.00D-12  ETEST   =  0.00D+00  EDENS   =  0.00D+00  THRDEDEF=  1.00D-06  GRADIENT=  1.00D-02  STEP    =  1.00D-03
 ORBITAL =  1.00D-10  CIVEC   =  1.00D-05  COEFF   =  1.00D-04  PRINTCI =  5.00D-02  PUNCHCI =  9.90D+01  OPTGRAD =  1.00D-06
 OPTENERG=  1.00D-06  OPTSTEP =  3.00D-04  THRGRAD =  1.00D-10  COMPRESS=  1.00D-13  VARMIN  =  1.00D-07  VARMAX  =  1.00D-03
 THRDOUB =  0.00D+00  THRDIV  =  1.00D-05  THRRED  =  1.00D-07  THRPSP  =  1.00D+00  THRDC   =  1.00D-10  THRCS   =  1.00D-10
 THRNRM  =  1.00D-08  THREQ   =  0.00D+00  THRDE   =  1.00D+00  THRREF  =  1.00D-05  SPARFAC =  1.00D+00  THRDLP  =  1.00D-07
 THRDIA  =  1.00D-10  THRDLS  =  1.00D-07  THRGPS  =  0.00D+00  THRKEX  =  0.00D+00  THRDIS  =  2.00D-01  THRVAR  =  1.00D-10
 THRLOC  =  1.00D-06  THRGAP  =  1.00D-06  THRLOCT = -1.00D+00  THRGAPT = -1.00D+00  THRORB  =  1.00D-06  THRMLTP =  0.00D+00
 THRCPQCI=  1.00D-10  KEXTA   =  0.00D+00  THRCOARS=  0.00D+00  SYMTOL  =  1.00D-06  GRADTOL =  1.00D-06  THROVL  =  1.00D-08
 THRORTH =  1.00D-08  GRID    =  1.00D-06  GRIDMAX =  1.00D-03  DTMAX   =  0.00D+00

 SETTING GEOMTYP        =    XYZ
 ZUNIT=BOHR
 

 Variable memory set to 1000000000 words,  buffer space   230000 words

 SETTING BASIS          =    CC-PVDZ


 Recomputing integrals since basis changed


 Using spherical harmonics

 Library entry C      S cc-pVDZ              selected for orbital group  1
 Library entry C      P cc-pVDZ              selected for orbital group  1
 Library entry C      D cc-pVDZ              selected for orbital group  1
 Library entry O      S cc-pVDZ              selected for orbital group  2
 Library entry O      P cc-pVDZ              selected for orbital group  2
 Library entry O      D cc-pVDZ              selected for orbital group  2
 Library entry H      S cc-pVDZ              selected for orbital group  3
 Library entry H      P cc-pVDZ              selected for orbital group  3

1PROGRAM * SEWARD (Integral evaluation for generally contracted gaussian basis sets)     Author: Roland Lindh, 1990

 Geometry written to block  1 of record 700


 Point group  C1  



 ATOMIC COORDINATES

 NR  ATOM    CHARGE       X              Y              Z

   1  C       6.00   -1.374298732   -0.026649003    0.000000320
   2  O       8.00    1.302906772    0.120881337    0.000000283
   3  H       1.00   -2.070072366    1.913859741   -0.000080138
   4  H       1.00   -2.111005863   -0.982979950    1.677118968
   5  H       1.00   -2.110999136   -0.983110774   -1.677046482
   6  H       1.00    1.939745164   -1.572133470   -0.000001361

 Bond lengths in Bohr (Angstrom)

 1-2  2.681267333  1-3  2.061474022  1-4  2.066405874  1-5  2.066405716  2-6  1.808828979
     ( 1.418865564)     ( 1.090885069)     ( 1.093494893)     ( 1.093494809)     ( 0.957191071)

 Bond angles

  1-2-6  107.45995587   2-1-3  106.57124922   2-1-4  112.42294101   2-1-5  112.42295585

  3-1-4  108.38167384   3-1-5  108.38151479   4-1-5  108.50394359

 NUCLEAR CHARGE:                   18
 NUMBER OF PRIMITIVE AOS:          82
 NUMBER OF SYMMETRY AOS:           80
 NUMBER OF CONTRACTIONS:           48   (  48A   )
 NUMBER OF CORE ORBITALS:           2   (   2A   )
 NUMBER OF VALENCE ORBITALS:       12   (  12A   )


 NUCLEAR REPULSION ENERGY   40.35331344


 Eigenvalues of metric

         1 0.965E-02 0.176E-01 0.369E-01 0.372E-01 0.380E-01 0.474E-01 0.476E-01 0.518E-01


 Contracted 2-electron integrals neglected if value below      1.0D-16
 AO integral compression algorithm  1   Integral accuracy      1.0D-16

     6.291 MB (compressed) written to integral file ( 98.2%)

     Node minimum: 6.291 MB, node maximum: 6.291 MB


 NUMBER OF SORTED TWO-ELECTRON INTEGRALS:     692076.     BUFFER LENGTH:  32768
 NUMBER OF SEGMENTS:   1  SEGMENT LENGTH:     692076      RECORD LENGTH: 524288

 Memory used in sort:       1.25 MW

 SORT1 READ      832256. AND WROTE      682148. INTEGRALS IN      2 RECORDS. CPU TIME:     0.01 SEC, REAL TIME:     0.01 SEC
 SORT2 READ      682148. AND WROTE      692076. INTEGRALS IN     24 RECORDS. CPU TIME:     0.01 SEC, REAL TIME:     0.02 SEC

 FILE SIZES:   FILE 1:     8.0 MBYTE,  FILE 4:     8.4 MBYTE,   TOTAL:     16.4 MBYTE

 OPERATOR DM      FOR CENTER  0  COORDINATES:    0.000000    0.000000    0.000000


 **********************************************************************************************************************************
 DATASETS  * FILE   NREC   LENGTH (MB)   RECORD NAMES
              1      19        8.03       500      610      700      900      950      970     1000      129      960     1100   
                                          VAR    BASINP    GEOM    SYMINP    ZMAT    AOBASIS   BASIS     P2S    ABASIS      S 
                                         1400     1410     1200     1210     1080     1600     1650     1300     1700   
                                           T        V       H0       H01     AOSYM     SMH    MOLCAS    ERIS     OPER   

 PROGRAMS   *        TOTAL       INT
 CPU TIMES  *         0.22      0.18
 REAL TIME  *         0.42 SEC
 DISK USED  *        23.34 MB      
 GA USED    *         0.00 MB       (max)       0.00 MB       (current)
 **********************************************************************************************************************************

1PROGRAM * RHF-SCF (CLOSED SHELL)       Authors: W. Meyer, H.-J. Werner


 NUMBER OF ELECTRONS:       9+    9-    SPACE SYMMETRY=1    SPIN SYMMETRY: Singlet 
 CONVERGENCE THRESHOLDS:    1.00E-10 (Density)    1.00E-13 (Energy)
 MAX. NUMBER OF ITERATIONS:      200
 INTERPOLATION TYPE:            DIIS
 INTERPOLATION STEPS:              2 (START)      1 (STEP)
 LEVEL SHIFTS:                  0.00 (CLOSED)  0.00 (OPEN) 



 Orbital guess generated from atomic densities. Full valence occupancy:   14

 Molecular orbital dump at record        2100.2

 ITERATION    DDIFF          GRAD             ENERGY        2-EL.EN.            DIPOLE MOMENTS         DIIS
    1      0.000D+00      0.000D+00      -115.01439359    164.468279   -0.49085   -0.89890   -0.00000    0
    2      0.000D+00      0.110D-01      -115.04272536    162.252316   -0.31307   -0.53597   -0.00000    1
    3      0.205D-01      0.528D-02      -115.04872440    163.275014   -0.39634   -0.61128   -0.00000    2
    4      0.637D-02      0.112D-02      -115.04918628    163.119044   -0.38618   -0.60046   -0.00000    3
    5      0.204D-02      0.201D-03      -115.04920707    163.125441   -0.38898   -0.59628   -0.00000    4
    6      0.431D-03      0.352D-04      -115.04920786    163.125594   -0.38927   -0.59610   -0.00000    5
    7      0.925D-04      0.731D-05      -115.04920789    163.124409   -0.38940   -0.59594   -0.00000    6
    8      0.149D-04      0.236D-05      -115.04920789    163.124787   -0.38944   -0.59592   -0.00000    7
    9      0.501D-05      0.486D-06      -115.04920789    163.124746   -0.38945   -0.59592   -0.00000    6
   10      0.140D-05      0.859D-07      -115.04920789    163.124745   -0.38945   -0.59592   -0.00000    6
   11      0.232D-06      0.322D-07      -115.04920789    163.124750   -0.38945   -0.59592   -0.00000    6
   12      0.583D-07      0.133D-07      -115.04920789    163.124748   -0.38945   -0.59592   -0.00000    7
   13      0.246D-07      0.297D-08      -115.04920789    163.124749   -0.38945   -0.59592   -0.00000    7
   14      0.738D-08      0.638D-09      -115.04920789    163.124749   -0.38945   -0.59592   -0.00000    7
   15      0.163D-08      0.146D-09      -115.04920789    163.124749   -0.38945   -0.59592   -0.00000    7
   16      0.325D-09      0.437D-10      -115.04920789    163.124749   -0.38945   -0.59592   -0.00000    7
   17      0.842D-10      0.157D-10      -115.04920789    163.124749   -0.38945   -0.59592   -0.00000    7
   18      0.403D-10      0.288D-11      -115.04920789    163.124749   -0.38945   -0.59592   -0.00000    7
   19      0.673D-11      0.638D-12      -115.04920789    163.124749   -0.38945   -0.59592   -0.00000    7
   20      0.159D-11      0.259D-12      -115.04920789    163.124749   -0.38945   -0.59592   -0.00000    0

 Final occupancy:   9

 !RHF STATE 1.1 Energy               -115.049207892776
 Nuclear energy                        40.35331344
 One-electron energy                 -236.96489567
 Two-electron energy                   81.56237435
 Virial quotient                       -1.00084537
 !RHF STATE 1.1 Dipole moment          -0.38945321    -0.59591742    -0.00000278
 Dipole moment /Debye                  -0.98982648    -1.51457180    -0.00000707

 Orbital energies:

         1.1          2.1          3.1          4.1          5.1          6.1          7.1          8.1          9.1         10.1
    -20.549762   -11.274461    -1.351124    -0.921456    -0.684176    -0.613918    -0.584791    -0.497360    -0.443024     0.184714

        11.1
      0.224770


 **********************************************************************************************************************************
 DATASETS  * FILE   NREC   LENGTH (MB)   RECORD NAMES
              1      19        8.03       500      610      700      900      950      970     1000      129      960     1100   
                                          VAR    BASINP    GEOM    SYMINP    ZMAT    AOBASIS   BASIS     P2S    ABASIS      S 
                                         1400     1410     1200     1210     1080     1600     1650     1300     1700   
                                           T        V       H0       H01     AOSYM     SMH    MOLCAS    ERIS     OPER   

              2       3        0.39       700     1000     2100   
                                         GEOM     BASIS     RHF  

 PROGRAMS   *        TOTAL       RHF       INT
 CPU TIMES  *         0.32      0.10      0.18
 REAL TIME  *         0.55 SEC
 DISK USED  *        23.34 MB      
 GA USED    *         0.00 MB       (max)       0.00 MB       (current)
 **********************************************************************************************************************************


1PROGRAM * CCSD (Closed-shell coupled cluster)     Authors: C. Hampel, H.-J. Werner, 1991, M. Deegan, P.J. Knowles, 1992


 Convergence thresholds:  THRVAR = 1.00D-08  THRDEN = 1.00D-12

 CCSD(T)     terms to be evaluated (factor= 1.000)


 Number of core orbitals:           2 (   2 )
 Number of closed-shell orbitals:   7 (   7 )
 Number of external orbitals:      39 (  39 )

 Molecular orbitals read from record     2100.2  Type=RHF/CANONICAL (state 1.1)

 Number of N-1 electron functions:               7
 Number of N-2 electron functions:              28
 Number of singly external CSFs:               273
 Number of doubly external CSFs:             37401
 Total number of CSFs:                       37675

 Length of J-op  integral file:               0.00 MB
 Length of K-op  integral file:               0.19 MB
 Length of 3-ext integral record:             0.00 MB

 Memory could be reduced to 0.96 Mwords without degradation in triples

 Integral transformation finished. Total CPU:   0.02 sec, npass=  1  Memory used:   0.66 MW

 Reference energy:                   -115.04920789

 MP2 singlet pair energy:              -0.21853917
 MP2 triplet pair energy:              -0.11981055
 MP2 correlation energy:               -0.33834973
 MP2 total energy:                   -115.38755762

 SCS-MP2 correlation energy:           -0.33679580   (PS=  1.200000  PT=  0.333333)
 SCS-MP2 total energy:               -115.38600369

 ITER.      SQ.NORM     CORR.ENERGY   TOTAL ENERGY   ENERGY CHANGE        DEN1      VAR(S)    VAR(P)  DIIS     TIME
   1      1.10721012    -0.36115328  -115.41036118    -0.02280356    -0.01414036  0.91D-03  0.17D-02  1  1     0.05
   2      1.11571349    -0.36309333  -115.41230122    -0.00194004    -0.00923507  0.20D-04  0.16D-03  2  2     0.09
   3      1.11758439    -0.36322000  -115.41242789    -0.00012667    -0.00119829  0.94D-05  0.85D-05  3  3     0.13
   4      1.11809641    -0.36321857  -115.41242646     0.00000143    -0.00025368  0.33D-06  0.67D-06  4  4     0.17
   5      1.11819378    -0.36321896  -115.41242685    -0.00000039    -0.00003580  0.98D-07  0.48D-07  5  5     0.20
   6      1.11821262    -0.36321762  -115.41242551     0.00000135    -0.00000433  0.16D-07  0.40D-08  6  6     0.24
   7      1.11821731    -0.36321720  -115.41242509     0.00000042    -0.00000035  0.20D-08  0.70D-09  6  1     0.28
   8      1.11821856    -0.36321730  -115.41242519    -0.00000010     0.00000074  0.25D-09  0.70D-10  6  3     0.32
   9      1.11821961    -0.36321718  -115.41242507     0.00000012    -0.00000038  0.12D-10  0.10D-10  6  2     0.36
  10      1.11821953    -0.36321718  -115.41242507    -0.00000000     0.00000007  0.11D-11  0.86D-12  6  5     0.40
  11      1.11821956    -0.36321718  -115.41242507     0.00000000    -0.00000000  0.19D-12  0.49D-13  6  4     0.44
  12      1.11821955    -0.36321718  -115.41242507    -0.00000000     0.00000001  0.18D-13  0.98D-14  6  1     0.47
  13      1.11821955    -0.36321718  -115.41242507    -0.00000000    -0.00000000  0.23D-14  0.92D-15  6  6     0.51
  14      1.11821955    -0.36321718  -115.41242507     0.00000000    -0.00000000  0.22D-15  0.12D-15  6  3     0.55
  15      1.11821955    -0.36321718  -115.41242507    -0.00000000    -0.00000000  0.24D-16  0.16D-16  6  2     0.59
  16      1.11821955    -0.36321718  -115.41242507    -0.00000000    -0.00000000  0.54D-17  0.16D-17  6  5     0.62
  17      1.11821955    -0.36321718  -115.41242507    -0.00000000    -0.00000000  0.52D-18  0.24D-18  6  4     0.66
  18      1.11821955    -0.36321718  -115.41242507     0.00000000    -0.00000000  0.80D-19  0.41D-19  6  1     0.70
  19      1.11821955    -0.36321718  -115.41242507    -0.00000000    -0.00000000  0.89D-20  0.41D-20  6  6     0.74
  20      1.11821955    -0.36321718  -115.41242507     0.00000000     0.00000000  0.13D-20  0.53D-21  6  3     0.78

 Norm of t1 vector:      0.04156983      S-energy:    -0.00000000      T1 diagnostic:  0.00785596
                                                                       D1 diagnostic:  0.01742367


 Total CPU time for triples:      0.20 sec


 RESULTS
 =======

  Reference energy                   -115.049207892776
  CCSD singlet pair energy             -0.254456826625
  CCSD triplet pair energy             -0.108760352530
  CCSD correlation energy              -0.363217179155

  Triples (T) contribution             -0.007723839648
  Total correlation energy             -0.370941018803

  CCSD total energy                  -115.412425071931
  CCSD[T] energy                     -115.420437910090
  CCSD-T energy                      -115.419999523877
 !CCSD(T) total energy               -115.420148911579

 Timing summary (sec):

 STEP                 CPU(USER)    SYS     CPU(TOT)    WALL
 Transformation          0.02      0.00      0.02      0.03
 CCSD iterations         0.76      0.05      0.81      0.84
 Triples                 0.20      0.00      0.20      0.21

 Program statistics:

 Available memory in ccsd:               999999704
 Min. memory needed in ccsd:                136801
 Max. memory used in ccsd:                  163198
 Max. memory used in cckext:                182024 (20 integral passes)



 **********************************************************************************************************************************
 DATASETS  * FILE   NREC   LENGTH (MB)   RECORD NAMES
              1      20       10.56       500      610      700      900      950      970     1000      129      960     1100   
                                          VAR    BASINP    GEOM    SYMINP    ZMAT    AOBASIS   BASIS     P2S    ABASIS      S 
                                         1400     1410     1200     1210     1080     1600     1650     1300     1700     1380   
                                           T        V       H0       H01     AOSYM     SMH    MOLCAS    ERIS     OPER     JKOP   

              2       3        0.39       700     1000     2100   
                                         GEOM     BASIS     RHF  

 PROGRAMS   *        TOTAL   CCSD(T)       RHF       INT
 CPU TIMES  *         1.31      0.99      0.10      0.18
 REAL TIME  *         1.64 SEC
 DISK USED  *        24.76 MB      
 GA USED    *         0.00 MB       (max)       0.00 MB       (current)
 **********************************************************************************************************************************

        CCSD(T)         RHF-SCF 
   -115.42014891   -115.04920789
 **********************************************************************************************************************************
 Variable memory released
