
    -----------------------------------------------------------------------
          Psi4: An Open-Source Ab Initio Electronic Structure Package
                               Psi4 1.4a2.dev629 

                         Git: Rev {master} 2938fc2 dirty


    D. G. A. Smith, L. A. Burns, A. C. Simmonett, R. M. Parrish,
    M. C. Schieber, R. Galvelis, P. Kraus, H. Kruse, R. Di Remigio,
    A. Alenaizan, A. M. James, S. Lehtola, J. P. Misiewicz, M. Scheurer,
    R. A. Shaw, J. B. Schriber, Y. Xie, Z. L. Glick, D. A. Sirianni,
    J. S. O'Brien, J. M. Waldrop, A. Kumar, E. G. Hohenstein,
    B. P. Pritchard, B. R. Brooks, H. F. Schaefer III, A. Yu. Sokolov,
    K. Patkowski, A. E. DePrince III, U. Bozkaya, R. A. King,
    F. A. Evangelista, J. M. Turney, T. D. Crawford, C. D. Sherrill,
    J. Chem. Phys. 152(18) 184108 (2020). https://doi.org/10.1063/5.0006002

                            Additional Code Authors
    E. T. Seidl, C. L. Janssen, E. F. Valeev, M. L. Leininger,
    J. F. Gonthier, R. M. Richard, H. R. McAlexander, M. Saitow, X. Wang,
    P. Verma, and M. H. Lechner

             Previous Authors, Complete List of Code Contributors,
                       and Citations for Specific Modules
    https://github.com/psi4/psi4/blob/master/codemeta.json
    https://github.com/psi4/psi4/graphs/contributors
    http://psicode.org/psi4manual/master/introduction.html#citing-psifour

    -----------------------------------------------------------------------


    Psi4 started on: Friday, 18 September 2020 06:22PM

    Process ID: 17308
    Host:       n009
    PSIDATADIR: /opt/psi/4/master/share/psi4
    Memory:     500.0 MiB
    Threads:    1
    
  ==> Input File <==

--------------------------------------------------------------------------
# o-Benzyne preliminary computations

memory 14 gb

molecule {
  0 1
  C   -1.3709365084   -0.0245335223    0.0048909543
  O    1.3018488561    0.1205542031    0.0020337089
  H   -2.0719942296    1.9029393358    0.0033949142
  H   -2.0986209470   -0.9694050698    1.6705356757
  H   -2.1082638279   -0.9819254249   -1.6823387488
  H    1.9411024169   -1.5727679818    0.0013905057
  units bohr
}

set {
  basis=cc-pVTZ
  reference rhf
  e_convergence 10 
  d_convergence 10
  r_convergence 8
  maxiter 300
}

energy('ccsd(t)')
--------------------------------------------------------------------------

  Memory set to  13.039 GiB by Python driver.

Scratch directory: /tmp/

*** tstart() called on n009
*** at Fri Sep 18 18:22:15 2020

   => Loading Basis Set <=

    Name: CC-PVTZ
    Role: ORBITAL
    Keyword: BASIS
    atoms 1   entry C          line   186 file /opt/psi/4/master/share/psi4/basis/cc-pvtz.gbs 
    atoms 2   entry O          line   262 file /opt/psi/4/master/share/psi4/basis/cc-pvtz.gbs 
    atoms 3-6 entry H          line    23 file /opt/psi/4/master/share/psi4/basis/cc-pvtz.gbs 


         ---------------------------------------------------------
                                   SCF
               by Justin Turney, Rob Parrish, Andy Simmonett
                          and Daniel G. A. Smith
                              RHF Reference
                        1 Threads,  13351 MiB Core
         ---------------------------------------------------------

  ==> Geometry <==

    Molecular point group: c1
    Full point group: C1

    Geometry (in Bohr), charge = 0, multiplicity = 1:

       Center              X                  Y                   Z               Mass       
    ------------   -----------------  -----------------  -----------------  -----------------
         C           -1.370936613654    -0.024533745704     0.002263485337    12.000000000000
         O            1.301848750846     0.120553979696    -0.000593760063    15.994914619570
         H           -2.071994334854     1.902939112396     0.000767445237     1.007825032230
         H           -2.098621052254    -0.969405293204     1.667908206737     1.007825032230
         H           -2.108263933154    -0.981925648304    -1.684966217763     1.007825032230
         H            1.941102311646    -1.572768205204    -0.001236963263     1.007825032230

  Running in c1 symmetry.

  Rotational constants: A =      4.31043  B =      0.83185  C =      0.80260 [cm^-1]
  Rotational constants: A = 129223.39883  B =  24938.11585  C =  24061.33481 [MHz]
  Nuclear repulsion =   40.424918741022523

  Charge       = 0
  Multiplicity = 1
  Electrons    = 18
  Nalpha       = 9
  Nbeta        = 9

  ==> Algorithm <==

  SCF Algorithm Type is PK.
  DIIS enabled.
  MOM disabled.
  Fractional occupation disabled.
  Guess Type is SAD.
  Energy threshold   = 1.00e-10
  Density threshold  = 1.00e-10
  Integral threshold = 0.00e+00

  ==> Primary Basis <==

  Basis Set: CC-PVTZ
    Blend: CC-PVTZ
    Number of shells: 44
    Number of basis function: 116
    Number of Cartesian functions: 130
    Spherical Harmonics?: true
    Max angular momentum: 3

  ==> Integral Setup <==

  Using in-core PK algorithm.
   Calculation information:
      Number of atoms:                   6
      Number of AO shells:              44
      Number of primitives:             84
      Number of atomic orbitals:       130
      Number of basis functions:       116

      Integral cutoff                 1.00e-12
      Number of threads:                 1

  Performing in-core PK
  Using 46056582 doubles for integral storage.
  We computed 490497 shell quartets total.
  Whereas there are 490545 unique shell quartets.

  ==> DiskJK: Disk-Based J/K Matrices <==

    J tasked:                  Yes
    K tasked:                  Yes
    wK tasked:                  No
    Memory [MiB]:            10013
    Schwarz Cutoff:          1E-12

    OpenMP threads:              1

  Minimum eigenvalue in the overlap matrix is 1.8251706984E-03.
  Reciprocal condition number of the overlap matrix is 2.7517298578E-04.
    Using symmetric orthogonalization.

  ==> Pre-Iterations <==

  SCF Guess: Superposition of Atomic Densities via on-the-fly atomic UHF (no occupation information).

   -------------------------
    Irrep   Nso     Nmo    
   -------------------------
     A        116     116 
   -------------------------
    Total     116     116
   -------------------------

  ==> Iterations <==

                        Total Energy        Delta E     RMS |[F,P]|

   @RHF iter SAD:  -114.42806139139664   -1.14428e+02   0.00000e+00 
   @RHF iter   1:  -115.01454857624749   -5.86487e-01   3.41867e-03 DIIS
   @RHF iter   2:  -115.07163725617752   -5.70887e-02   1.94990e-03 DIIS
   @RHF iter   3:  -115.08839164095836   -1.67544e-02   3.01131e-04 DIIS
   @RHF iter   4:  -115.08927398349840   -8.82343e-04   8.77707e-05 DIIS
   @RHF iter   5:  -115.08934720290193   -7.32194e-05   2.13444e-05 DIIS
   @RHF iter   6:  -115.08935202325983   -4.82036e-06   4.71583e-06 DIIS
   @RHF iter   7:  -115.08935238774235   -3.64483e-07   1.09358e-06 DIIS
   @RHF iter   8:  -115.08935240911073   -2.13684e-08   2.26188e-07 DIIS
   @RHF iter   9:  -115.08935241001555   -9.04819e-10   4.20197e-08 DIIS
   @RHF iter  10:  -115.08935241004519   -2.96438e-11   1.07711e-08 DIIS
   @RHF iter  11:  -115.08935241004681   -1.62004e-12   2.19477e-09 DIIS
   @RHF iter  12:  -115.08935241004713   -3.12639e-13   3.94083e-10 DIIS
   @RHF iter  13:  -115.08935241004694    1.84741e-13   7.39684e-11 DIIS
  Energy and wave function converged.


  ==> Post-Iterations <==

    Orbital Energies [Eh]
    ---------------------

    Doubly Occupied:                                                      

       1A    -20.552189     2A    -11.267947     3A     -1.355811  
       4A     -0.924289     5A     -0.689389     6A     -0.618983  
       7A     -0.591448     8A     -0.502009     9A     -0.448997  

    Virtual:                                                              

      10A      0.138589    11A      0.178901    12A      0.220528  
      13A      0.224211    14A      0.291045    15A      0.386451  
      16A      0.404436    17A      0.546352    18A      0.584613  
      19A      0.624076    20A      0.625617    21A      0.640096  
      22A      0.690810    23A      0.704925    24A      0.722066  
      25A      0.833181    26A      0.865431    27A      0.872372  
      28A      0.927833    29A      1.069876    30A      1.101784  
      31A      1.178081    32A      1.190233    33A      1.263350  
      34A      1.271857    35A      1.284107    36A      1.365708  
      37A      1.447587    38A      1.492585    39A      1.523777  
      40A      1.546526    41A      1.584124    42A      1.622005  
      43A      1.778560    44A      2.093222    45A      2.180700  
      46A      2.200053    47A      2.301663    48A      2.323693  
      49A      2.488634    50A      2.510124    51A      2.576429  
      52A      2.805501    53A      2.952034    54A      3.057064  
      55A      3.110746    56A      3.118667    57A      3.144085  
      58A      3.225061    59A      3.244697    60A      3.312706  
      61A      3.318182    62A      3.344298    63A      3.385682  
      64A      3.502070    65A      3.615598    66A      3.635312  
      67A      3.701658    68A      3.710978    69A      3.747290  
      70A      3.762415    71A      3.817081    72A      3.844076  
      73A      3.907116    74A      4.011842    75A      4.028950  
      76A      4.119547    77A      4.162420    78A      4.173653  
      79A      4.249985    80A      4.257933    81A      4.291080  
      82A      4.403976    83A      4.441179    84A      4.470068  
      85A      4.563104    86A      4.584524    87A      4.715753  
      88A      4.789241    89A      4.999421    90A      5.038443  
      91A      5.059726    92A      5.204894    93A      5.273851  
      94A      5.320111    95A      5.375735    96A      5.442602  
      97A      5.543206    98A      5.561228    99A      5.570769  
     100A      5.793466   101A      5.946463   102A      6.193932  
     103A      6.213441   104A      6.251620   105A      6.436515  
     106A      6.644618   107A      7.000556   108A      7.127292  
     109A      7.185748   110A      7.236584   111A      7.356718  
     112A      7.436725   113A      7.594976   114A      7.916004  
     115A     12.158188   116A     13.765746  

    Final Occupation by Irrep:
              A 
    DOCC [     9 ]

  @RHF Final Energy:  -115.08935241004694

   => Energetics <=

    Nuclear Repulsion Energy =             40.4249187410225232
    One-Electron Energy =                -237.1264183672947752
    Two-Electron Energy =                  81.6121472162253241
    Total Energy =                       -115.0893524100469421

Computation Completed


Properties will be evaluated at   0.000000,   0.000000,   0.000000 [a0]

Properties computed using the SCF density matrix

  Nuclear Dipole Moment: [e a0]
     X:    -2.1486      Y:    -0.8039      Z:    -0.0087

  Electronic Dipole Moment: [e a0]
     X:     1.7667      Y:     0.2163      Z:     0.0139

  Dipole Moment: [e a0]
     X:    -0.3820      Y:    -0.5876      Z:     0.0052     Total:     0.7008

  Dipole Moment: [D]
     X:    -0.9708      Y:    -1.4935      Z:     0.0133     Total:     1.7813


*** tstop() called on n009 at Fri Sep 18 18:22:21 2020
Module time:
	user time   =       6.16 seconds =       0.10 minutes
	system time =       0.07 seconds =       0.00 minutes
	total time  =          6 seconds =       0.10 minutes
Total time:
	user time   =       6.16 seconds =       0.10 minutes
	system time =       0.07 seconds =       0.00 minutes
	total time  =          6 seconds =       0.10 minutes
 MINTS: Wrapper to libmints.
   by Justin Turney

   Calculation information:
      Number of threads:                 1
      Number of atoms:                   6
      Number of AO shells:              44
      Number of SO shells:              44
      Number of primitives:             84
      Number of atomic orbitals:       130
      Number of basis functions:       116

      Number of irreps:                  1
      Integral cutoff                 0.00e+00
      Number of functions per irrep: [ 116 ]

 OEINTS: Overlap, kinetic, potential, dipole, and quadrupole integrals
         stored in file 35.

      Computing two-electron integrals...done
      Computed 22874299 non-zero two-electron integrals.
        Stored in file 33.


*** tstart() called on n009
*** at Fri Sep 18 18:22:25 2020


	Wfn Parameters:
	--------------------
	Wavefunction         = CCSD_T
	Number of irreps     = 1
	Number of MOs        = 116
	Number of active MOs = 116
	AO-Basis             = NONE
	Semicanonical        = false
	Reference            = RHF
	Print Level          = 1

	IRREP	# MOs	# FZDC	# DOCC	# SOCC	# VIRT	# FZVR
	-----	-----	------	------	------	------	------
	 A	   116	    0	    9	    0	    107	    0
	Transforming integrals...
	IWL integrals will be deleted.
	(OO|OO)...
	Presorting SO-basis two-electron integrals.
	Sorting File: SO Ints (nn|nn) nbuckets = 1
	Transforming the one-electron integrals and constructing Fock matrices
	Starting first half-transformation.
	Sorting half-transformed integrals.
	First half integral transformation complete.
	Starting second half-transformation.
	Two-electron integral transformation complete.
	(OO|OV)...
	Starting second half-transformation.
	Two-electron integral transformation complete.
	(OO|VV)...
	Starting second half-transformation.
	Two-electron integral transformation complete.
	(OV|OO)...
	Starting first half-transformation.
	Sorting half-transformed integrals.
	First half integral transformation complete.
	Starting second half-transformation.
	Two-electron integral transformation complete.
	(OV|OV)...
	Starting second half-transformation.
	Two-electron integral transformation complete.
	(OV|VV)...
	Starting second half-transformation.
	Two-electron integral transformation complete.
	(VV|OO)...
	Starting first half-transformation.
	Sorting half-transformed integrals.
	First half integral transformation complete.
	Starting second half-transformation.
	Two-electron integral transformation complete.
	(VV|OV)...
	Starting second half-transformation.
	Two-electron integral transformation complete.
	(VV|VV)...
	Starting second half-transformation.
	Two-electron integral transformation complete.
	Frozen core energy     =      0.00000000000000

	Size of irrep 0 of <ab|cd> integrals:    131.080 (MW) /   1048.637 (MB)
	Total:                                   131.080 (MW) /   1048.637 (MB)

	Size of irrep 0 of <ia|bc> integrals:     11.025 (MW) /     88.203 (MB)
	Total:                                    11.025 (MW) /     88.203 (MB)

	Size of irrep 0 of tijab amplitudes:       0.927 (MW) /      7.419 (MB)
	Total:                                     0.927 (MW) /      7.419 (MB)

	Nuclear Rep. energy          =     40.42491874102252
	SCF energy                   =   -115.08935241004694
	One-electron energy          =   -237.12641839938453
	Two-electron energy          =     81.61214724831500
	Reference energy             =   -115.08935241004700

*** tstop() called on n009 at Fri Sep 18 18:22:55 2020
Module time:
	user time   =      23.77 seconds =       0.40 minutes
	system time =       5.62 seconds =       0.09 minutes
	total time  =         30 seconds =       0.50 minutes
Total time:
	user time   =      32.98 seconds =       0.55 minutes
	system time =       6.02 seconds =       0.10 minutes
	total time  =         40 seconds =       0.67 minutes
            **************************
            *                        *
            *        CCENERGY        *
            *                        *
            **************************

    Nuclear Rep. energy (wfn)     =   40.424918741022523
    SCF energy          (wfn)     = -115.089352410046942
    Reference energy    (file100) = -115.089352410046999

    Input parameters:
    -----------------
    Wave function   =     CCSD_T
    Reference wfn   =     RHF
    Brueckner       =     No
    Memory (Mbytes) =     14000.0
    Maxiter         =    300
    R_Convergence   =     1.0e-08
    E_Convergence   =     1.0e-10
    Restart         =     Yes
    DIIS            =     Yes
    AO Basis        =     NONE
    ABCD            =     NEW
    Cache Level     =     2
    Cache Type      =     LOW
    Print Level     =     1
    Num. of threads =     1
    # Amps to Print =     10
    Print MP2 Amps? =     No
    Analyze T2 Amps =     No
    Print Pair Ener =     No
    Local CC        =     No
    SCS-MP2         =     False
    SCSN-MP2        =     False
    SCS-CCSD        =     False

MP2 correlation energy -0.4574297402465969
                Solving CC Amplitude Equations
                ------------------------------
  Iter             Energy              RMS        T1Diag      D1Diag    New D1Diag    D2Diag
  ----     ---------------------    ---------   ----------  ----------  ----------   --------
     0        -0.457429740246597    0.000e+00    0.000000    0.000000    0.000000    0.128070
     1        -0.464957801014800    4.762e-02    0.006483    0.014787    0.014787    0.129194
     2        -0.474910496277379    1.562e-02    0.006592    0.014746    0.014746    0.134904
     3        -0.476381967061965    5.474e-03    0.007386    0.016813    0.016813    0.136329
     4        -0.476278778905144    1.202e-03    0.007439    0.016954    0.016954    0.136556
     5        -0.476318544474439    4.340e-04    0.007471    0.017086    0.017086    0.136652
     6        -0.476327115648651    1.223e-04    0.007480    0.017137    0.017137    0.136660
     7        -0.476324944329041    4.532e-05    0.007482    0.017151    0.017151    0.136657
     8        -0.476324809324322    1.683e-05    0.007484    0.017160    0.017160    0.136657
     9        -0.476324916248935    4.884e-06    0.007484    0.017162    0.017162    0.136657
    10        -0.476324671316362    1.558e-06    0.007484    0.017162    0.017162    0.136657
    11        -0.476324738464591    4.786e-07    0.007484    0.017162    0.017162    0.136657
    12        -0.476324724135173    1.172e-07    0.007484    0.017162    0.017162    0.136657
    13        -0.476324727198684    4.200e-08    0.007484    0.017162    0.017162    0.136657
    14        -0.476324728351019    1.214e-08    0.007484    0.017162    0.017162    0.136657
    15        -0.476324728393708    5.091e-09    0.007484    0.017162    0.017162    0.136657
    16        -0.476324728421790    1.699e-09    0.007484    0.017162    0.017162    0.136657

    Iterations converged.


    Largest TIA Amplitudes:
              5   6        -0.0079950981
              5  14        -0.0076314929
              5   9         0.0069738505
              8  14         0.0063564831
              6   7         0.0059727604
              6   3        -0.0059092103
              7   8         0.0058108829
              5   2        -0.0057053344
              8   6         0.0053150490
              6   5        -0.0050943600

    Largest TIjAb Amplitudes:
      5   5   9   9        -0.0227442802
      8   8  14  14        -0.0211673880
      6   6   7   7        -0.0210262718
      7   7  12  12        -0.0204968261
      4   4   7   7        -0.0190976358
      6   6   8   8        -0.0162444218
      5   5  14  14        -0.0151649240
      7   7   7   7        -0.0151065281
      5   5   2   9         0.0148063325
      5   5   9   2         0.0148063325

    SCF energy       (wfn)                    = -115.089352410046942
    Reference energy (file100)                = -115.089352410046999

    Opposite-spin MP2 correlation energy      =   -0.353851376834805
    Same-spin MP2 correlation energy          =   -0.103578363411792
    Singles MP2 correlation energy            =   -0.000000000000000
    MP2 correlation energy                    =   -0.457429740246597
      * MP2 total energy                      = -115.546782150293595

    Opposite-spin CCSD correlation energy     =   -0.381810101900992
    Same-spin CCSD correlation energy         =   -0.094514626520799
    Singles CCSD correlation energy           =    0.000000000000000
    CCSD correlation energy                   =   -0.476324728421790
      * CCSD total energy                     = -115.565677138468786

            **************************
            *                        *
            *        CCTRIPLES       *
            *                        *
            **************************


    Wave function   =    CCSD_T
    Reference wfn   =      RHF

    Nuclear Rep. energy (wfn)                =   40.424918741022523
    SCF energy          (wfn)                = -115.089352410046942
    Reference energy    (file100)            = -115.089352410046999
    CCSD energy         (file100)            =   -0.476324728421790
    Total CCSD energy   (file100)            = -115.565677138468786

    Number of ijk index combinations:              165
    Memory available in words        :      1750000000
    ~Words needed per explicit thread:         4900172
    Number of threads for explicit ijk threading:    1

    MKL num_threads set to 1 for explicit threading.

    (T) energy                                =   -0.015046738915924
      * CCSD(T) total energy                  = -115.580723877384713


    Psi4 stopped on: Friday, 18 September 2020 06:25PM
    Psi4 wall time for execution: 0:02:52.62

*** Psi4 exiting successfully. Buy a developer a beer!
