
 Primary working directories    : /tmp/795519.16.gen4.q
 Secondary working directories  : /tmp/795519.16.gen4.q
 Wavefunction directory         : /home/vulcan/mel64643/wfu/
 Main file repository           : /tmp/795519.16.gen4.q/

 ARCHNAME  : Linux/x86_64
 FC        : /opt/intel/compilers_and_libraries_2016.1.150/linux/bin/intel64/ifort
 FCVERSION : 16.0.1
 BLASLIB   : -mkl
 id        : ccgc

 Nodes     nprocs
 n062         1
 ga_uses_ma=false, calling ma_init with nominal heap.
 GA-space will be limited to   8.0 MW (determined by -G option)

 Using customized tuning parameters: mindgm=10; mindgv=16; mindgc=4; mindgr=1; noblas=0; mincuda=1000; minvec=7
 default implementation of scratch files=df  

 ***,Optimization of min3
 memory,1000,m
 gthresh,energy=1.0d-12,orbital=1.0d-10,oneint=1.0d-16,twoint=1.0d-16,optgrad=1.0d-6,compress=1.0d-13
 geomtyp=xyz
 
  bohr
  geometry = {
  6
  arbitrary comment
  C   -1.3745083567   -0.0252642163    0.0000004405
  O    1.3069894385    0.1218456362    0.0000002682
  H   -2.0775217166    1.9038184422   -0.0000796606
  H   -2.1098586496   -0.9764183029    1.6860642074
  H   -2.1098516406   -0.9765499225   -1.6859923576
  H    1.9410267650   -1.5775637568   -0.0000013079
 }
 
 basis=cc-pvdz
 {rhf;maxit,200}
 {ccsd(t);maxit,200}

 Variables initialized (661), CPU time= 0.01 sec
 Commands  initialized (458), CPU time= 0.00 sec, 486 directives.
 Default parameters read. Elapsed time= 0.05 sec

 Checking input...
 Passed
1


                                         ***  PROGRAM SYSTEM MOLPRO  ***
                         Copyright, University College Cardiff Consultants Limited, 2008

                                    Version 2010.1 linked May 16 2016 07:17:05


 **********************************************************************************************************************************
 LABEL *   Optimization of min3                                                          
 Linux-4.4.3/n062(x86_64) 64 bit mpp version                                             DATE: 24-Oct-22          TIME: 15:40:51  
 **********************************************************************************************************************************

 SHA1:             9e8077add272b0f3cad6f7df79ec5211205f459d
 **********************************************************************************************************************************

 THRESHOLDS:

 ZERO    =  1.00D-12  ONEINT  =  1.00D-16  TWOINT  =  1.00D-16  PREFAC  =  1.00D-14  LOCALI  =  1.00D-09  EORDER  =  1.00D-04
 ENERGY  =  1.00D-12  ETEST   =  0.00D+00  EDENS   =  0.00D+00  THRDEDEF=  1.00D-06  GRADIENT=  1.00D-02  STEP    =  1.00D-03
 ORBITAL =  1.00D-10  CIVEC   =  1.00D-05  COEFF   =  1.00D-04  PRINTCI =  5.00D-02  PUNCHCI =  9.90D+01  OPTGRAD =  1.00D-06
 OPTENERG=  1.00D-06  OPTSTEP =  3.00D-04  THRGRAD =  1.00D-10  COMPRESS=  1.00D-13  VARMIN  =  1.00D-07  VARMAX  =  1.00D-03
 THRDOUB =  0.00D+00  THRDIV  =  1.00D-05  THRRED  =  1.00D-07  THRPSP  =  1.00D+00  THRDC   =  1.00D-10  THRCS   =  1.00D-10
 THRNRM  =  1.00D-08  THREQ   =  0.00D+00  THRDE   =  1.00D+00  THRREF  =  1.00D-05  SPARFAC =  1.00D+00  THRDLP  =  1.00D-07
 THRDIA  =  1.00D-10  THRDLS  =  1.00D-07  THRGPS  =  0.00D+00  THRKEX  =  0.00D+00  THRDIS  =  2.00D-01  THRVAR  =  1.00D-10
 THRLOC  =  1.00D-06  THRGAP  =  1.00D-06  THRLOCT = -1.00D+00  THRGAPT = -1.00D+00  THRORB  =  1.00D-06  THRMLTP =  0.00D+00
 THRCPQCI=  1.00D-10  KEXTA   =  0.00D+00  THRCOARS=  0.00D+00  SYMTOL  =  1.00D-06  GRADTOL =  1.00D-06  THROVL  =  1.00D-08
 THRORTH =  1.00D-08  GRID    =  1.00D-06  GRIDMAX =  1.00D-03  DTMAX   =  0.00D+00

 SETTING GEOMTYP        =    XYZ
 ZUNIT=BOHR
 

 Variable memory set to 1000000000 words,  buffer space   230000 words

 SETTING BASIS          =    CC-PVDZ


 Recomputing integrals since basis changed


 Using spherical harmonics

 Library entry C      S cc-pVDZ              selected for orbital group  1
 Library entry C      P cc-pVDZ              selected for orbital group  1
 Library entry C      D cc-pVDZ              selected for orbital group  1
 Library entry O      S cc-pVDZ              selected for orbital group  2
 Library entry O      P cc-pVDZ              selected for orbital group  2
 Library entry O      D cc-pVDZ              selected for orbital group  2
 Library entry H      S cc-pVDZ              selected for orbital group  3
 Library entry H      P cc-pVDZ              selected for orbital group  3

1PROGRAM * SEWARD (Integral evaluation for generally contracted gaussian basis sets)     Author: Roland Lindh, 1990

 Geometry written to block  1 of record 700


 Point group  C1  



 ATOMIC COORDINATES

 NR  ATOM    CHARGE       X              Y              Z

   1  C       6.00   -1.374508357   -0.025264216    0.000000441
   2  O       8.00    1.306989439    0.121845636    0.000000268
   3  H       1.00   -2.077521717    1.903818442   -0.000079661
   4  H       1.00   -2.109858650   -0.976418303    1.686064207
   5  H       1.00   -2.109851641   -0.976549922   -1.685992358
   6  H       1.00    1.941026765   -1.577563757   -0.000001308

 Bond lengths in Bohr (Angstrom)

 1-2  2.685530066  1-3  2.053189639  1-4  2.070807856  1-5  2.070808044  2-6  1.813834506
     ( 1.421121305)     ( 1.086501163)     ( 1.095824322)     ( 1.095824421)     ( 0.959839882)

 Bond angles

  1-2-6  107.32002021   2-1-3  106.88303888   2-1-4  112.31700131   2-1-5  112.31699903

  3-1-4  108.05898736   3-1-5  108.05882588   4-1-5  109.01442820

 NUCLEAR CHARGE:                   18
 NUMBER OF PRIMITIVE AOS:          82
 NUMBER OF SYMMETRY AOS:           80
 NUMBER OF CONTRACTIONS:           48   (  48A   )
 NUMBER OF CORE ORBITALS:           2   (   2A   )
 NUMBER OF VALENCE ORBITALS:       12   (  12A   )


 NUCLEAR REPULSION ENERGY   40.30211645


 Eigenvalues of metric

         1 0.966E-02 0.176E-01 0.367E-01 0.376E-01 0.381E-01 0.474E-01 0.479E-01 0.516E-01


 Contracted 2-electron integrals neglected if value below      1.0D-16
 AO integral compression algorithm  1   Integral accuracy      1.0D-16

     6.554 MB (compressed) written to integral file ( 94.6%)

     Node minimum: 6.554 MB, node maximum: 6.554 MB


 NUMBER OF SORTED TWO-ELECTRON INTEGRALS:     692076.     BUFFER LENGTH:  32768
 NUMBER OF SEGMENTS:   1  SEGMENT LENGTH:     692076      RECORD LENGTH: 524288

 Memory used in sort:       1.25 MW

 SORT1 READ      832256. AND WROTE      682148. INTEGRALS IN      2 RECORDS. CPU TIME:     0.01 SEC, REAL TIME:     0.01 SEC
 SORT2 READ      682148. AND WROTE      692076. INTEGRALS IN     25 RECORDS. CPU TIME:     0.02 SEC, REAL TIME:     0.02 SEC

 FILE SIZES:   FILE 1:     8.0 MBYTE,  FILE 4:     8.4 MBYTE,   TOTAL:     16.4 MBYTE

 OPERATOR DM      FOR CENTER  0  COORDINATES:    0.000000    0.000000    0.000000


 **********************************************************************************************************************************
 DATASETS  * FILE   NREC   LENGTH (MB)   RECORD NAMES
              1      19        8.03       500      610      700      900      950      970     1000      129      960     1100   
                                          VAR    BASINP    GEOM    SYMINP    ZMAT    AOBASIS   BASIS     P2S    ABASIS      S 
                                         1400     1410     1200     1210     1080     1600     1650     1300     1700   
                                           T        V       H0       H01     AOSYM     SMH    MOLCAS    ERIS     OPER   

 PROGRAMS   *        TOTAL       INT
 CPU TIMES  *         0.22      0.18
 REAL TIME  *         0.42 SEC
 DISK USED  *        23.61 MB      
 GA USED    *         0.00 MB       (max)       0.00 MB       (current)
 **********************************************************************************************************************************

1PROGRAM * RHF-SCF (CLOSED SHELL)       Authors: W. Meyer, H.-J. Werner


 NUMBER OF ELECTRONS:       9+    9-    SPACE SYMMETRY=1    SPIN SYMMETRY: Singlet 
 CONVERGENCE THRESHOLDS:    1.00E-10 (Density)    1.00E-13 (Energy)
 MAX. NUMBER OF ITERATIONS:      200
 INTERPOLATION TYPE:            DIIS
 INTERPOLATION STEPS:              2 (START)      1 (STEP)
 LEVEL SHIFTS:                  0.00 (CLOSED)  0.00 (OPEN) 



 Orbital guess generated from atomic densities. Full valence occupancy:   14

 Molecular orbital dump at record        2100.2

 ITERATION    DDIFF          GRAD             ENERGY        2-EL.EN.            DIPOLE MOMENTS         DIIS
    1      0.000D+00      0.000D+00      -115.01418381    164.376021   -0.49567   -0.90153   -0.00000    0
    2      0.000D+00      0.110D-01      -115.04254748    162.158475   -0.31685   -0.53493   -0.00000    1
    3      0.205D-01      0.530D-02      -115.04858284    163.182969   -0.40065   -0.61015   -0.00000    2
    4      0.639D-02      0.112D-02      -115.04904682    163.026793   -0.39047   -0.59887   -0.00000    3
    5      0.204D-02      0.202D-03      -115.04906789    163.033226   -0.39330   -0.59453   -0.00000    4
    6      0.434D-03      0.355D-04      -115.04906868    163.033372   -0.39361   -0.59432   -0.00000    5
    7      0.931D-04      0.736D-05      -115.04906871    163.032185   -0.39375   -0.59415   -0.00000    6
    8      0.150D-04      0.237D-05      -115.04906872    163.032567   -0.39378   -0.59412   -0.00000    7
    9      0.503D-05      0.490D-06      -115.04906872    163.032526   -0.39379   -0.59412   -0.00000    6
   10      0.141D-05      0.870D-07      -115.04906872    163.032525   -0.39380   -0.59412   -0.00000    6
   11      0.234D-06      0.325D-07      -115.04906872    163.032531   -0.39380   -0.59412   -0.00000    6
   12      0.587D-07      0.135D-07      -115.04906872    163.032529   -0.39380   -0.59412   -0.00000    7
   13      0.252D-07      0.301D-08      -115.04906872    163.032529   -0.39380   -0.59412   -0.00000    7
   14      0.750D-08      0.647D-09      -115.04906872    163.032529   -0.39380   -0.59412   -0.00000    7
   15      0.166D-08      0.149D-09      -115.04906872    163.032529   -0.39380   -0.59412   -0.00000    7
   16      0.331D-09      0.447D-10      -115.04906872    163.032529   -0.39380   -0.59412   -0.00000    7
   17      0.865D-10      0.160D-10      -115.04906872    163.032529   -0.39380   -0.59412   -0.00000    7
   18      0.411D-10      0.290D-11      -115.04906872    163.032529   -0.39380   -0.59412   -0.00000    7
   19      0.677D-11      0.591D-12      -115.04906872    163.032529   -0.39380   -0.59412   -0.00000    0

 Final occupancy:   9

 !RHF STATE 1.1 Energy               -115.049068716907
 Nuclear energy                        40.30211645
 One-electron energy                 -236.86744962
 Two-electron energy                   81.51626445
 Virial quotient                       -1.00093443
 !RHF STATE 1.1 Dipole moment          -0.39379836    -0.59412010    -0.00000276
 Dipole moment /Debye                  -1.00087003    -1.51000377    -0.00000702

 Orbital energies:

         1.1          2.1          3.1          4.1          5.1          6.1          7.1          8.1          9.1         10.1
    -20.550104   -11.274693    -1.349800    -0.921344    -0.682445    -0.613703    -0.585091    -0.497039    -0.443242     0.184579

        11.1
      0.224356


 **********************************************************************************************************************************
 DATASETS  * FILE   NREC   LENGTH (MB)   RECORD NAMES
              1      19        8.03       500      610      700      900      950      970     1000      129      960     1100   
                                          VAR    BASINP    GEOM    SYMINP    ZMAT    AOBASIS   BASIS     P2S    ABASIS      S 
                                         1400     1410     1200     1210     1080     1600     1650     1300     1700   
                                           T        V       H0       H01     AOSYM     SMH    MOLCAS    ERIS     OPER   

              2       3        0.39       700     1000     2100   
                                         GEOM     BASIS     RHF  

 PROGRAMS   *        TOTAL       RHF       INT
 CPU TIMES  *         0.31      0.09      0.18
 REAL TIME  *         0.55 SEC
 DISK USED  *        23.61 MB      
 GA USED    *         0.00 MB       (max)       0.00 MB       (current)
 **********************************************************************************************************************************


1PROGRAM * CCSD (Closed-shell coupled cluster)     Authors: C. Hampel, H.-J. Werner, 1991, M. Deegan, P.J. Knowles, 1992


 Convergence thresholds:  THRVAR = 1.00D-08  THRDEN = 1.00D-12

 CCSD(T)     terms to be evaluated (factor= 1.000)


 Number of core orbitals:           2 (   2 )
 Number of closed-shell orbitals:   7 (   7 )
 Number of external orbitals:      39 (  39 )

 Molecular orbitals read from record     2100.2  Type=RHF/CANONICAL (state 1.1)

 Number of N-1 electron functions:               7
 Number of N-2 electron functions:              28
 Number of singly external CSFs:               273
 Number of doubly external CSFs:             37401
 Total number of CSFs:                       37675

 Length of J-op  integral file:               0.00 MB
 Length of K-op  integral file:               0.19 MB
 Length of 3-ext integral record:             0.00 MB

 Memory could be reduced to 0.96 Mwords without degradation in triples

 Integral transformation finished. Total CPU:   0.01 sec, npass=  1  Memory used:   0.66 MW

 Reference energy:                   -115.04906872

 MP2 singlet pair energy:              -0.21867521
 MP2 triplet pair energy:              -0.11985544
 MP2 correlation energy:               -0.33853065
 MP2 total energy:                   -115.38759937

 SCS-MP2 correlation energy:           -0.33698697   (PS=  1.200000  PT=  0.333333)
 SCS-MP2 total energy:               -115.38605569

 ITER.      SQ.NORM     CORR.ENERGY   TOTAL ENERGY   ENERGY CHANGE        DEN1      VAR(S)    VAR(P)  DIIS     TIME
   1      1.10736435    -0.36132447  -115.41039318    -0.02279381    -0.01410800  0.91D-03  0.17D-02  1  1     0.06
   2      1.11589599    -0.36327017  -115.41233888    -0.00194570    -0.00925414  0.20D-04  0.16D-03  2  2     0.10
   3      1.11778133    -0.36339770  -115.41246642    -0.00012753    -0.00120619  0.95D-05  0.86D-05  3  3     0.14
   4      1.11829775    -0.36339632  -115.41246504     0.00000138    -0.00025547  0.34D-06  0.68D-06  4  4     0.17
   5      1.11839625    -0.36339672  -115.41246544    -0.00000040    -0.00003618  0.10D-06  0.49D-07  5  5     0.21
   6      1.11841541    -0.36339536  -115.41246408     0.00000136    -0.00000438  0.16D-07  0.41D-08  6  6     0.25
   7      1.11842018    -0.36339494  -115.41246366     0.00000042    -0.00000035  0.20D-08  0.72D-09  6  1     0.29
   8      1.11842146    -0.36339504  -115.41246376    -0.00000010     0.00000075  0.26D-09  0.73D-10  6  3     0.33
   9      1.11842253    -0.36339492  -115.41246363     0.00000012    -0.00000038  0.13D-10  0.10D-10  6  2     0.37
  10      1.11842245    -0.36339492  -115.41246364    -0.00000000     0.00000007  0.11D-11  0.88D-12  6  5     0.41
  11      1.11842248    -0.36339492  -115.41246363     0.00000000    -0.00000000  0.19D-12  0.51D-13  6  4     0.45
  12      1.11842247    -0.36339492  -115.41246364    -0.00000000     0.00000001  0.19D-13  0.10D-13  6  1     0.49
  13      1.11842247    -0.36339492  -115.41246364    -0.00000000    -0.00000000  0.24D-14  0.94D-15  6  6     0.53
  14      1.11842247    -0.36339492  -115.41246364     0.00000000    -0.00000000  0.22D-15  0.12D-15  6  3     0.57
  15      1.11842247    -0.36339492  -115.41246364    -0.00000000    -0.00000000  0.25D-16  0.17D-16  6  2     0.61
  16      1.11842247    -0.36339492  -115.41246364    -0.00000000    -0.00000000  0.56D-17  0.16D-17  6  5     0.64
  17      1.11842247    -0.36339492  -115.41246364    -0.00000000    -0.00000000  0.53D-18  0.25D-18  6  4     0.68
  18      1.11842247    -0.36339492  -115.41246364     0.00000000    -0.00000000  0.82D-19  0.43D-19  6  1     0.72
  19      1.11842247    -0.36339492  -115.41246364    -0.00000000    -0.00000000  0.94D-20  0.43D-20  6  6     0.76
  20      1.11842247    -0.36339492  -115.41246364     0.00000000     0.00000000  0.13D-20  0.55D-21  6  3     0.80

 Norm of t1 vector:      0.04170693      S-energy:    -0.00000000      T1 diagnostic:  0.00788187
                                                                       D1 diagnostic:  0.01752418


 Total CPU time for triples:      0.21 sec


 RESULTS
 =======

  Reference energy                   -115.049068716907
  CCSD singlet pair energy             -0.254634717533
  CCSD triplet pair energy             -0.108760202440
  CCSD correlation energy              -0.363394919973

  Triples (T) contribution             -0.007743472749
  Total correlation energy             -0.371138392723

  CCSD total energy                  -115.412463636880
  CCSD[T] energy                     -115.420497621839
  CCSD-T energy                      -115.420056900349
 !CCSD(T) total energy               -115.420207109630

 Timing summary (sec):

 STEP                 CPU(USER)    SYS     CPU(TOT)    WALL
 Transformation          0.02      0.00      0.02      0.02
 CCSD iterations         0.78      0.04      0.82      0.87
 Triples                 0.21      0.00      0.21      0.21

 Program statistics:

 Available memory in ccsd:               999999704
 Min. memory needed in ccsd:                136801
 Max. memory used in ccsd:                  163198
 Max. memory used in cckext:                182024 (20 integral passes)



 **********************************************************************************************************************************
 DATASETS  * FILE   NREC   LENGTH (MB)   RECORD NAMES
              1      20       10.57       500      610      700      900      950      970     1000      129      960     1100   
                                          VAR    BASINP    GEOM    SYMINP    ZMAT    AOBASIS   BASIS     P2S    ABASIS      S 
                                         1400     1410     1200     1210     1080     1600     1650     1300     1700     1380   
                                           T        V       H0       H01     AOSYM     SMH    MOLCAS    ERIS     OPER     JKOP   

              2       3        0.39       700     1000     2100   
                                         GEOM     BASIS     RHF  

 PROGRAMS   *        TOTAL   CCSD(T)       RHF       INT
 CPU TIMES  *         1.33      1.02      0.09      0.18
 REAL TIME  *         1.68 SEC
 DISK USED  *        25.03 MB      
 GA USED    *         0.00 MB       (max)       0.00 MB       (current)
 **********************************************************************************************************************************

        CCSD(T)         RHF-SCF 
   -115.42020711   -115.04906872
 **********************************************************************************************************************************
 Variable memory released
