
 Working directory              : /scratch/mel64643/tmp/40073345/
 Global scratch directory       : /scratch/mel64643/tmp/40073345/
 Wavefunction directory         : /home/mel64643/wfu/
 Main file repository           : /scratch/mel64643/tmp/40073345/

 id        : ccgc

 Nodes     nprocs
 a1-8         3
 Distribution of processes:   nprocs(total)=    4   nprocs(compute)=    3   nprocs(helper)=    1
 GA implementation: MPI file
 GA implementation (serial work in mppx): MPI file

 Using customized tuning parameters: mindgm=1; mindgv=20; mindgc=4; mindgr=1; noblas=0; minvec=7
 default implementation of scratch files=sf  


 Variables initialized (1015), CPU time= 0.00 sec
 ***,Optimization of min3
 memory,1000,m
 gthresh,energy=1.0d-12,orbital=1.0d-10,oneint=1.0d-16,twoint=1.0d-16,optgrad=1.0d-6,compress=1.0d-13
 geomtyp=xyz
 
  bohr
  geometry = {
  6
  arbitrary comment
  C   -1.3750807493   -0.0265502026    0.0017391157
  O    1.3097123371    0.1115038262   -0.0034659532
  H   -2.0803441838    1.9105368557    0.0034898051
  H   -2.1221309599   -0.9738808134    1.6853068256
  H   -2.0949127751   -0.9819648962   -1.6783569551
  H    1.9390321711   -1.5697768896   -0.0087212481
 }
 
 basis=cc-pvdz
 {rhf;maxit,200}
 {ccsd(t);maxit,200}
 Commands initialized (818), CPU time= 0.00 sec, 672 directives.
 Default parameters read. Elapsed time= 0.09 sec

 Checking input...
 Passed
1


                                         ***  PROGRAM SYSTEM MOLPRO  ***
                                       Copyright, TTI GmbH Stuttgart, 2015
                                    Version 2022.1 linked Mar  4 2022 00:40:14


 **********************************************************************************************************************************
 LABEL *   Optimization of min3                                                          
  64 bit mpp version                                                                     DATE: 07-Aug-25          TIME: 21:26:04  
 **********************************************************************************************************************************

 SHA1:             31073afc4d8441e10870424e0d77336a33bc4286
 **********************************************************************************************************************************

 Memory per process:      1000 MW
 Total memory per node:   3000 MW

 GA preallocation disabled
 GA check disabled

 Variable memory set to 1000.0 MW


 THRESHOLDS:

 ZERO    =  1.00D-12  ONEINT  =  1.00D-16  TWOINT  =  1.00D-16  PREFAC  =  1.00D-14  XXXXXX  =  1.00D-09  EORDER  =  1.00D-04
 ENERGY  =  1.00D-12  ETEST   =  0.00D+00  EDENS   =  0.00D+00  THRDEDEF=  1.00D-06  GRADIENT=  1.00D-05  STEP    =  1.00D-03
 ORBITAL =  1.00D-10  CIVEC   =  1.00D-05  COEFF   =  1.00D-04  PRINTCI =  5.00D-02  PUNCHCI =  9.90D+01  OPTGRAD =  1.00D-06
 OPTENERG=  1.00D-06  OPTSTEP =  3.00D-04  THRGRAD =  1.00D-10  COMPRESS=  1.00D-13  VARMIN  =  1.00D-07  VARMAX  =  1.00D-03
 THRDOUB =  0.00D+00  THRDIV  =  1.00D-05  THRRED  =  1.00D-07  THRPSP  =  1.00D+00  THRDC   =  1.00D-10  THRCS   =  1.00D-10
 THRNRM  =  1.00D-08  THREQ   =  0.00D+00  THRDE   =  1.00D+00  THRREF  =  1.00D-05  SPARFAC =  1.00D+00  THRDLP  =  1.00D-07
 THRDIA  =  1.00D-10  THRDLS  =  1.00D-07  THRGPS  =  0.00D+00  THRKEX  =  0.00D+00  THRDIS  =  2.00D-01  THRVAR  =  1.00D-10
 THRLOC  =  1.00D-06  THRGAP  =  1.00D-06  THRLOCT = -1.00D+00  THRGAPT = -1.00D+00  THRORB  =  1.00D-06  THRMLTP =  0.00D+00
 THRCPQCI=  1.00D-10  KEXTA   =  0.00D+00  THRCOARS=  0.00D+00  SYMTOL  =  1.00D-06  GRADTOL =  1.00D-06  THROVL  =  1.00D-08
 THRORTH =  1.00D-08  THRDLOVL= -1.00D+00  GRID    =  1.00D-06  GRIDMAX =  1.00D-03  DTMAX   =  0.00D+00  THROCCDE=  1.00D-01
 THROCCDE=  1.00D-01  THRPRINT=  2.50D-01

 SETTING GEOMTYP        =    XYZ
 ZUNIT=BOHR

 SETTING BASIS          =    CC-PVDZ


 Recomputing integrals since basis changed


 Using spherical harmonics

 Library entry C      S cc-pVDZ              selected for orbital group  1
 Library entry C      P cc-pVDZ              selected for orbital group  1
 Library entry C      D cc-pVDZ              selected for orbital group  1
 Library entry O      S cc-pVDZ              selected for orbital group  2
 Library entry O      P cc-pVDZ              selected for orbital group  2
 Library entry O      D cc-pVDZ              selected for orbital group  2
 Library entry H      S cc-pVDZ              selected for orbital group  3
 Library entry H      P cc-pVDZ              selected for orbital group  3


 PROGRAM * SEWARD (Integral evaluation for generally contracted gaussian basis sets)     Author: Roland Lindh, 1990

 Geometry written to block  1 of record 700


 Point group  C1  



 ATOMIC COORDINATES

 NR  ATOM    CHARGE       X              Y              Z

   1  C       6.00   -1.375080749   -0.026550203    0.001739116
   2  O       8.00    1.309712337    0.111503826   -0.003465953
   3  H       1.00   -2.080344184    1.910536856    0.003489805
   4  H       1.00   -2.122130960   -0.973880813    1.685306826
   5  H       1.00   -2.094912775   -0.981964896   -1.678356955
   6  H       1.00    1.939032171   -1.569776890   -0.008721248

 Bond lengths in Bohr (Angstrom)

 1-2  2.688345202  1-3  2.061481469  1-4  2.071212094  1-5  2.062449560  2-6  1.795209157
     ( 1.422611016)     ( 1.090889014)     ( 1.096038239)     ( 1.091401306)     ( 0.949983775)

 Bond angles

  1-2-6  107.57799728   2-1-3  107.06224330   2-1-4  112.66035264   2-1-5  111.76301614

  3-1-4  107.80000062   3-1-5  108.45605116   4-1-5  108.92850359

 NUCLEAR CHARGE:                   18
 NUMBER OF PRIMITIVE AOS:          82
 NUMBER OF SYMMETRY AOS:           80
 NUMBER OF CONTRACTIONS:           48   (   48A   )
 NUMBER OF INNER CORE ORBITALS:     0   (    0A   )
 NUMBER OF OUTER CORE ORBITALS:     2   (    2A   )
 NUMBER OF VALENCE ORBITALS:       12   (   12A   )


 NUCLEAR REPULSION ENERGY   40.32744800

 Eigenvalues of metric

         1 0.967E-02 0.176E-01 0.367E-01 0.373E-01 0.377E-01 0.472E-01 0.478E-01 0.515E-01


 Contracted 2-electron integrals neglected if value below      1.0D-16
 AO integral compression algorithm  1   Integral accuracy      1.0D-16

     7.340 MB (compressed) written to integral file (100.0%)

     Node minimum: 2.359 MB, node maximum: 2.621 MB


 NUMBER OF SORTED TWO-ELECTRON INTEGRALS:     231084.     BUFFER LENGTH:  32768
 NUMBER OF SEGMENTS:   1  SEGMENT LENGTH:     231084      RECORD LENGTH: 524288

 Memory used in sort:       0.79 MW

 SORT1 READ      832256. AND WROTE      227683. INTEGRALS IN      1 RECORDS. CPU TIME:     0.01 SEC, REAL TIME:     0.02 SEC
 SORT2 READ      682150. AND WROTE      692076. INTEGRALS IN     30 RECORDS. CPU TIME:     0.01 SEC, REAL TIME:     0.01 SEC

 Node minimum:      230300.  Node maximum:      231084. integrals

 OPERATOR DM      FOR CENTER  0  COORDINATES:    0.000000    0.000000    0.000000


 **********************************************************************************************************************************
 DATASETS  * FILE   NREC   LENGTH (MB)   RECORD NAMES
              1      18       28.73       500      610      700      900      950      970     1000      129      960     1100   
                                          VAR    BASINP    GEOM    SYMINP    ZMAT    AOBASIS   BASIS     P2S    ABASIS      S 
                                         1400     1410     1200     1210     1080     1600     1650     1700   
                                           T        V       H0       H01     AOSYM     SMH    MOLCAS    OPER   

 PROGRAMS   *        TOTAL       INT
 CPU TIMES  *         0.36      0.24
 REAL TIME  *         0.98 SEC
 DISK USED  *        29.07 MB (local),      104.71 MB (total)
 GA USED    *         0.00 MB       (max)       0.00 MB       (current)
 **********************************************************************************************************************************


 Program * Restricted Hartree-Fock

 Orbital guess generated from atomic densities. Full valence occupancy:   14

 Initial occupancy:   9

 NELEC=   18   SYM=1   MS2= 0   THRE=1.0D-12   THRD=1.0D-10   THRG=1.0D-10  HFMA2=F  DIIS_START=2   DIIS_MAX=10   DIIS_INCORE=F

 Level shifts:    0.00 (CLOSED)    0.00 (OPEN)    0.30 (GAP_MIN)

 ITER           ETOT              DE          GRAD        DDIFF     DIIS  NEXP   TIME(IT)  TIME(TOT)  DIAG
   1     -115.01451946    -115.01451946     0.00D+00     0.16D+00     0     0       0.00      0.00    start
   2     -115.04276811      -0.02824865     0.10D-01     0.21D-01     1     0       0.01      0.01    diag
   3     -115.04875467      -0.00598657     0.48D-02     0.64D-02     2     0       0.00      0.01    diag
   4     -115.04921123      -0.00045656     0.10D-02     0.20D-02     3     0       0.00      0.01    diag
   5     -115.04923136      -0.00002013     0.18D-03     0.43D-03     4     0       0.00      0.01    diag
   6     -115.04923210      -0.00000074     0.31D-04     0.91D-04     5     0       0.01      0.02    diag
   7     -115.04923213      -0.00000003     0.64D-05     0.14D-04     6     0       0.01      0.03    diag
   8     -115.04923213      -0.00000000     0.21D-05     0.48D-05     7     0       0.00      0.03    fixocc
   9     -115.04923213      -0.00000000     0.43D-06     0.13D-05     8     0       0.00      0.03    diag
  10     -115.04923213      -0.00000000     0.64D-07     0.22D-06     9     0       0.00      0.03    diag/orth
  11     -115.04923213       0.00000000     0.14D-07     0.39D-07     9     0       0.00      0.03    diag
  12     -115.04923213      -0.00000000     0.38D-08     0.11D-07     9     0       0.01      0.04    diag
  13     -115.04923213       0.00000000     0.66D-09     0.18D-08     9     0       0.00      0.04    diag
  14     -115.04923213      -0.00000000     0.15D-09     0.40D-09     9     0       0.00      0.04    diag
  15     -115.04923213       0.00000000     0.63D-10     0.12D-09     9     0       0.00      0.04    diag
  16     -115.04923213      -0.00000000     0.18D-10     0.41D-10     9     0       0.00      0.04    diag
  17     -115.04923213       0.00000000     0.42D-11     0.68D-11     0     0       0.00      0.04    diag

 Final occupancy:   9

 !RHF STATE 1.1 Energy               -115.049232132334
  RHF One-electron energy            -236.910538274982
  RHF Two-electron energy              81.533858143114
  RHF Kinetic energy                  114.956791837456
  RHF Nuclear energy                   40.327447999534
  RHF Virial quotient                  -1.000804130782

 !RHF STATE 1.1 Dipole moment          -0.39799000    -0.59132858    -0.00161274
 Dipole moment /Debye                  -1.01158967    -1.50300732    -0.00409917

 Orbital energies:

           1.1          2.1          3.1          4.1          5.1          6.1          7.1          8.1          9.1         10.1
    -20.548932   -11.274986    -1.351269    -0.922340    -0.684094    -0.614025    -0.584822    -0.497321    -0.443621     0.185225

          11.1
      0.225093


 HOMO      9.1    -0.443621 =     -12.0715eV
 LUMO     10.1     0.185225 =       5.0402eV
 LUMO-HOMO         0.628846 =      17.1118eV

 Orbitals saved in record  2100.2


 **********************************************************************************************************************************
 DATASETS  * FILE   NREC   LENGTH (MB)   RECORD NAMES
              1      18       28.73       500      610      700      900      950      970     1000      129      960     1100   
                                          VAR    BASINP    GEOM    SYMINP    ZMAT    AOBASIS   BASIS     P2S    ABASIS      S 
                                         1400     1410     1200     1210     1080     1600     1650     1700   
                                           T        V       H0       H01     AOSYM     SMH    MOLCAS    OPER   

              2       4        0.47       700     1000      520     2100   
                                         GEOM     BASIS   MCVARS     RHF  

 PROGRAMS   *        TOTAL   RHF-SCF       INT
 CPU TIMES  *         0.40      0.04      0.24
 REAL TIME  *         1.22 SEC
 DISK USED  *        29.40 MB (local),      105.70 MB (total)
 GA USED    *         0.00 MB       (max)       0.00 MB       (current)
 **********************************************************************************************************************************


 PROGRAM * CCSD (Closed-shell coupled cluster)     Authors: C. Hampel, H.-J. Werner, 1991, M. Deegan, P.J. Knowles, 1992


 Convergence thresholds:  THRVAR = 1.00D-08  THRDEN = 1.00D-12

 CCSD(T)     terms to be evaluated (factor= 1.000)


 Number of core orbitals:           2 (   2 )
 Number of closed-shell orbitals:   7 (   7 )
 Number of external orbitals:      39 (  39 )

 Molecular orbitals read from record     2100.2  Type=RHF/CANONICAL  

 Number of N-1 electron functions:               7
 Number of N-2 electron functions:              28
 Number of singly external CSFs:               273
 Number of doubly external CSFs:             37401
 Total number of CSFs:                       37675

 Length of J-op  integral file:               0.00 MB
 Length of K-op  integral file:               0.16 MB
 Length of 3-ext integral record:             0.00 MB

 Memory could be reduced to 0.73 Mwords without degradation in triples

 Integral transformation finished. Total CPU:   0.02 sec, npass=  1  Memory used:   0.66 MW

 Reference energy:                   -115.04923213

 MP2 singlet pair energy:              -0.21840271
 MP2 triplet pair energy:              -0.11971138
 MP2 correlation energy:               -0.33811409
 MP2 total energy:                   -115.38734623

 SCS-MP2 correlation energy:           -0.33657034   (PS=  1.200000  PT=  0.333333)
 SCS-MP2 total energy:               -115.38580247

 ITER.      SQ.NORM     CORR.ENERGY   TOTAL ENERGY   ENERGY CHANGE        DEN1      VAR(S)    VAR(P)  DIIS     TIME  TIME/IT
   1      1.10709840    -0.36094687  -115.41017900    -0.02283277    -0.01418591  0.91D-03  0.17D-02  1  1     0.05     0.05
   2      1.11558319    -0.36288168  -115.41211381    -0.00193481    -0.00922037  0.20D-04  0.16D-03  2  2     0.07     0.05
   3      1.11744375    -0.36300819  -115.41224032    -0.00012651    -0.00119234  0.94D-05  0.85D-05  3  3     0.08     0.04
   4      1.11795295    -0.36300659  -115.41223872     0.00000160    -0.00025257  0.32D-06  0.67D-06  4  4     0.10     0.04
   5      1.11804976    -0.36300695  -115.41223909    -0.00000037    -0.00003571  0.96D-07  0.48D-07  5  5     0.12     0.04
   6      1.11806837    -0.36300563  -115.41223776     0.00000133    -0.00000429  0.15D-07  0.40D-08  6  6     0.13     0.04
   7      1.11807295    -0.36300521  -115.41223734     0.00000041    -0.00000034  0.19D-08  0.69D-09  6  1     0.15     0.03
   8      1.11807417    -0.36300531  -115.41223745    -0.00000010     0.00000073  0.25D-09  0.69D-10  6  3     0.17     0.03
   9      1.11807520    -0.36300519  -115.41223732     0.00000012    -0.00000037  0.12D-10  0.10D-10  6  2     0.19     0.03
  10      1.11807513    -0.36300519  -115.41223733    -0.00000000     0.00000007  0.11D-11  0.84D-12  6  5     0.20     0.03
  11      1.11807516    -0.36300519  -115.41223732     0.00000000    -0.00000000  0.18D-12  0.48D-13  6  4     0.22     0.04
  12      1.11807515    -0.36300519  -115.41223733    -0.00000000     0.00000001  0.18D-13  0.95D-14  6  1     0.24     0.04
  13      1.11807515    -0.36300519  -115.41223733    -0.00000000    -0.00000000  0.23D-14  0.89D-15  6  6     0.26     0.04
  14      1.11807515    -0.36300519  -115.41223733     0.00000000    -0.00000000  0.23D-15  0.12D-15  6  3     0.27     0.04
  15      1.11807515    -0.36300519  -115.41223733    -0.00000000    -0.00000000  0.26D-16  0.16D-16  6  2     0.29     0.04
  16      1.11807515    -0.36300519  -115.41223733    -0.00000000    -0.00000000  0.60D-17  0.16D-17  6  5     0.31     0.04
  17      1.11807515    -0.36300519  -115.41223733    -0.00000000    -0.00000000  0.69D-18  0.26D-18  6  4     0.33     0.04
  18      1.11807515    -0.36300519  -115.41223733     0.00000000    -0.00000000  0.12D-18  0.48D-19  6  1     0.34     0.04
  19      1.11807515    -0.36300519  -115.41223733    -0.00000000    -0.00000000  0.18D-19  0.53D-20  6  6     0.36     0.04
  20      1.11807515    -0.36300519  -115.41223733     0.00000000     0.00000000  0.34D-20  0.89D-21  6  3     0.37     0.04

 Norm of t1 vector:      0.04145993      S-energy:    -0.00000000      T1 diagnostic:  0.00783519
                                                                       D1 diagnostic:  0.01751819
                                                                       D2 diagnostic:  0.13425096 (internal)


 Total CPU time for triples:      0.07 sec


 RESULTS
 =======

  Reference energy                   -115.049232132334
  CCSD singlet pair energy             -0.254298440328
  CCSD triplet pair energy             -0.108706753429
  CCSD correlation energy              -0.363005193757

  Triples (T) contribution             -0.007711870328
  Total correlation energy             -0.370717064085

  CCSD total energy                  -115.412237326091
  CCSD[T] energy                     -115.420237743703
  CCSD-T energy                      -115.419799851854
 !CCSD(T) total energy               -115.419949196419

 Timing summary (sec):

 STEP                 CPU(USER)    SYS     CPU(TOT)    WALL
 Transformation          0.02      0.01      0.03      0.04
 CCSD iterations         0.36      0.06      0.42      0.80
 Triples                 0.07      0.00      0.07      0.08

 Program statistics:

 Available memory in ccsd:               999999795
 Min. memory needed in ccsd:                136177
 Max. memory used in ccsd:                  162910
 Max. memory used in cckext:                178997 (20 integral passes)



 **********************************************************************************************************************************
 DATASETS  * FILE   NREC   LENGTH (MB)   RECORD NAMES
              1      19       31.13       500      610      700      900      950      970     1000      129      960     1100   
                                          VAR    BASINP    GEOM    SYMINP    ZMAT    AOBASIS   BASIS     P2S    ABASIS      S 
                                         1400     1410     1200     1210     1080     1600     1650     1700     1380   
                                           T        V       H0       H01     AOSYM     SMH    MOLCAS    OPER     JKOP   

              2       4        0.47       700     1000      520     2100   
                                         GEOM     BASIS   MCVARS     RHF  

 PROGRAMS   *        TOTAL   CCSD(T)   RHF-SCF       INT
 CPU TIMES  *         0.89      0.48      0.04      0.24
 REAL TIME  *         2.29 SEC
 DISK USED  *        35.56 MB (local),      116.35 MB (total)
 SF USED    *         5.97 MB
 GA USED    *         0.00 MB       (max)       0.00 MB       (current)
 **********************************************************************************************************************************

 CCSD(T)/cc-pVDZ energy=   -115.419949196419

         CCSD(T)         RHF-SCF
   -115.41994920   -115.04923213
 **********************************************************************************************************************************
 Molpro calculation terminated
