
 Primary working directories    : /tmp/601555.140.gen4.q
 Secondary working directories  : /tmp/601555.140.gen4.q
 Wavefunction directory         : /home/vulcan/mel64643/wfu/
 Main file repository           : /tmp/601555.140.gen4.q/

 ARCHNAME  : Linux/x86_64
 FC        : /opt/intel/compilers_and_libraries_2016.1.150/linux/bin/intel64/ifort
 FCVERSION : 16.0.1
 BLASLIB   : -mkl
 id        : ccgc

 Nodes     nprocs
 n022         1
 ga_uses_ma=false, calling ma_init with nominal heap.
 GA-space will be limited to   8.0 MW (determined by -G option)

 Using customized tuning parameters: mindgm=10; mindgv=16; mindgc=4; mindgr=1; noblas=0; mincuda=1000; minvec=7
 default implementation of scratch files=df  

 ***,Optimization of min3
 memory,1000,m
 gthresh,energy=1.0d-12,orbital=1.0d-10,oneint=1.0d-16,twoint=1.0d-16,optgrad=1.0d-6,compress=1.0d-13
 geomtyp=xyz
 
  bohr
  geometry = {
  6
  arbitrary comment
  C   -1.3759668497   -0.0243229163    0.0008222637
  O    1.3045756724    0.1202112290   -0.0015410502
  H   -2.0781567485    1.9048057971    0.0008396075
  H   -2.1148055043   -0.9750605480    1.6791241316
  H   -2.1015019070   -0.9777860689   -1.6748739378
  H    1.9421311771   -1.5779796129   -0.0043794248
 }
 
 basis=cc-pvdz
 {rhf;maxit,200}
 {ccsd(t);maxit,200}

 Variables initialized (661), CPU time= 0.00 sec
 Commands  initialized (458), CPU time= 0.00 sec, 486 directives.
 Default parameters read. Elapsed time= 0.07 sec

 Checking input...
 Passed
1


                                         ***  PROGRAM SYSTEM MOLPRO  ***
                         Copyright, University College Cardiff Consultants Limited, 2008

                                    Version 2010.1 linked May 16 2016 07:17:05


 **********************************************************************************************************************************
 LABEL *   Optimization of min3                                                          
 Linux-4.4.3/n022(x86_64) 64 bit mpp version                                             DATE: 06-Nov-21          TIME: 15:40:31  
 **********************************************************************************************************************************

 SHA1:             9e8077add272b0f3cad6f7df79ec5211205f459d
 **********************************************************************************************************************************

 THRESHOLDS:

 ZERO    =  1.00D-12  ONEINT  =  1.00D-16  TWOINT  =  1.00D-16  PREFAC  =  1.00D-14  LOCALI  =  1.00D-09  EORDER  =  1.00D-04
 ENERGY  =  1.00D-12  ETEST   =  0.00D+00  EDENS   =  0.00D+00  THRDEDEF=  1.00D-06  GRADIENT=  1.00D-02  STEP    =  1.00D-03
 ORBITAL =  1.00D-10  CIVEC   =  1.00D-05  COEFF   =  1.00D-04  PRINTCI =  5.00D-02  PUNCHCI =  9.90D+01  OPTGRAD =  1.00D-06
 OPTENERG=  1.00D-06  OPTSTEP =  3.00D-04  THRGRAD =  1.00D-10  COMPRESS=  1.00D-13  VARMIN  =  1.00D-07  VARMAX  =  1.00D-03
 THRDOUB =  0.00D+00  THRDIV  =  1.00D-05  THRRED  =  1.00D-07  THRPSP  =  1.00D+00  THRDC   =  1.00D-10  THRCS   =  1.00D-10
 THRNRM  =  1.00D-08  THREQ   =  0.00D+00  THRDE   =  1.00D+00  THRREF  =  1.00D-05  SPARFAC =  1.00D+00  THRDLP  =  1.00D-07
 THRDIA  =  1.00D-10  THRDLS  =  1.00D-07  THRGPS  =  0.00D+00  THRKEX  =  0.00D+00  THRDIS  =  2.00D-01  THRVAR  =  1.00D-10
 THRLOC  =  1.00D-06  THRGAP  =  1.00D-06  THRLOCT = -1.00D+00  THRGAPT = -1.00D+00  THRORB  =  1.00D-06  THRMLTP =  0.00D+00
 THRCPQCI=  1.00D-10  KEXTA   =  0.00D+00  THRCOARS=  0.00D+00  SYMTOL  =  1.00D-06  GRADTOL =  1.00D-06  THROVL  =  1.00D-08
 THRORTH =  1.00D-08  GRID    =  1.00D-06  GRIDMAX =  1.00D-03  DTMAX   =  0.00D+00

 SETTING GEOMTYP        =    XYZ
 ZUNIT=BOHR
 

 Variable memory set to 1000000000 words,  buffer space   230000 words

 SETTING BASIS          =    CC-PVDZ


 Recomputing integrals since basis changed


 Using spherical harmonics

 Library entry C      S cc-pVDZ              selected for orbital group  1
 Library entry C      P cc-pVDZ              selected for orbital group  1
 Library entry C      D cc-pVDZ              selected for orbital group  1
 Library entry O      S cc-pVDZ              selected for orbital group  2
 Library entry O      P cc-pVDZ              selected for orbital group  2
 Library entry O      D cc-pVDZ              selected for orbital group  2
 Library entry H      S cc-pVDZ              selected for orbital group  3
 Library entry H      P cc-pVDZ              selected for orbital group  3

1PROGRAM * SEWARD (Integral evaluation for generally contracted gaussian basis sets)     Author: Roland Lindh, 1990

 Geometry written to block  1 of record 700


 Point group  C1  



 ATOMIC COORDINATES

 NR  ATOM    CHARGE       X              Y              Z

   1  C       6.00   -1.375966850   -0.024322916    0.000822264
   2  O       8.00    1.304575672    0.120211229   -0.001541050
   3  H       1.00   -2.078156749    1.904805797    0.000839607
   4  H       1.00   -2.114805504   -0.975060548    1.679124132
   5  H       1.00   -2.101501907   -0.977786069   -1.674873938
   6  H       1.00    1.942131177   -1.577979613   -0.004379425

 Bond lengths in Bohr (Angstrom)

 1-2  2.684437356  1-3  2.052951107  1-4  2.065546359  1-5  2.059963801  2-6  1.813928668
     ( 1.420543068)     ( 1.086374937)     ( 1.093040057)     ( 1.090085895)     ( 0.959889710)

 Bond angles

  1-2-6  107.49142089   2-1-3  106.91477536   2-1-4  112.49948924   2-1-5  112.08002843

  3-1-4  108.06941714   3-1-5  108.32915837   4-1-5  108.77941497

 NUCLEAR CHARGE:                   18
 NUMBER OF PRIMITIVE AOS:          82
 NUMBER OF SYMMETRY AOS:           80
 NUMBER OF CONTRACTIONS:           48   (  48A   )
 NUMBER OF CORE ORBITALS:           2   (   2A   )
 NUMBER OF VALENCE ORBITALS:       12   (  12A   )


 NUCLEAR REPULSION ENERGY   40.34163731


 Eigenvalues of metric

         1 0.964E-02 0.176E-01 0.365E-01 0.371E-01 0.381E-01 0.470E-01 0.473E-01 0.515E-01


 Contracted 2-electron integrals neglected if value below      1.0D-16
 AO integral compression algorithm  1   Integral accuracy      1.0D-16

     6.816 MB (compressed) written to integral file (100.0%)

     Node minimum: 6.816 MB, node maximum: 6.816 MB


 NUMBER OF SORTED TWO-ELECTRON INTEGRALS:     692076.     BUFFER LENGTH:  32768
 NUMBER OF SEGMENTS:   1  SEGMENT LENGTH:     692076      RECORD LENGTH: 524288

 Memory used in sort:       1.25 MW

 SORT1 READ      832256. AND WROTE      682150. INTEGRALS IN      2 RECORDS. CPU TIME:     0.01 SEC, REAL TIME:     0.01 SEC
 SORT2 READ      682150. AND WROTE      692076. INTEGRALS IN     26 RECORDS. CPU TIME:     0.02 SEC, REAL TIME:     0.03 SEC

 FILE SIZES:   FILE 1:     8.4 MBYTE,  FILE 4:     8.4 MBYTE,   TOTAL:     16.8 MBYTE

 OPERATOR DM      FOR CENTER  0  COORDINATES:    0.000000    0.000000    0.000000


 **********************************************************************************************************************************
 DATASETS  * FILE   NREC   LENGTH (MB)   RECORD NAMES
              1      19        8.40       500      610      700      900      950      970     1000      129      960     1100   
                                          VAR    BASINP    GEOM    SYMINP    ZMAT    AOBASIS   BASIS     P2S    ABASIS      S 
                                         1400     1410     1200     1210     1080     1600     1650     1300     1700   
                                           T        V       H0       H01     AOSYM     SMH    MOLCAS    ERIS     OPER   

 PROGRAMS   *        TOTAL       INT
 CPU TIMES  *         0.35      0.28
 REAL TIME  *         0.53 SEC
 DISK USED  *        24.24 MB      
 GA USED    *         0.00 MB       (max)       0.00 MB       (current)
 **********************************************************************************************************************************

1PROGRAM * RHF-SCF (CLOSED SHELL)       Authors: W. Meyer, H.-J. Werner


 NUMBER OF ELECTRONS:       9+    9-    SPACE SYMMETRY=1    SPIN SYMMETRY: Singlet 
 CONVERGENCE THRESHOLDS:    1.00E-10 (Density)    1.00E-13 (Energy)
 MAX. NUMBER OF ITERATIONS:      200
 INTERPOLATION TYPE:            DIIS
 INTERPOLATION STEPS:              2 (START)      1 (STEP)
 LEVEL SHIFTS:                  0.00 (CLOSED)  0.00 (OPEN) 



 Orbital guess generated from atomic densities. Full valence occupancy:   14

 Molecular orbital dump at record        2100.2

 ITERATION    DDIFF          GRAD             ENERGY        2-EL.EN.            DIPOLE MOMENTS         DIIS
    1      0.000D+00      0.000D+00      -115.01425483    164.457954   -0.49340   -0.90070    0.00039    0
    2      0.000D+00      0.109D-01      -115.04260514    162.232950   -0.31715   -0.53620   -0.00110    1
    3      0.205D-01      0.528D-02      -115.04860638    163.259621   -0.40053   -0.61123   -0.00103    2
    4      0.638D-02      0.112D-02      -115.04907028    163.103171   -0.39062   -0.60008   -0.00118    3
    5      0.204D-02      0.202D-03      -115.04909130    163.109372   -0.39353   -0.59579   -0.00123    4
    6      0.432D-03      0.356D-04      -115.04909210    163.109673   -0.39386   -0.59559   -0.00124    5
    7      0.934D-04      0.751D-05      -115.04909213    163.108431   -0.39400   -0.59542   -0.00124    6
    8      0.152D-04      0.243D-05      -115.04909214    163.108814   -0.39404   -0.59539   -0.00124    7
    9      0.520D-05      0.494D-06      -115.04909214    163.108776   -0.39405   -0.59539   -0.00124    6
   10      0.142D-05      0.894D-07      -115.04909214    163.108774   -0.39406   -0.59539   -0.00124    6
   11      0.239D-06      0.333D-07      -115.04909214    163.108780   -0.39406   -0.59539   -0.00124    6
   12      0.601D-07      0.141D-07      -115.04909214    163.108778   -0.39406   -0.59539   -0.00124    7
   13      0.263D-07      0.310D-08      -115.04909214    163.108778   -0.39406   -0.59539   -0.00124    7
   14      0.771D-08      0.655D-09      -115.04909214    163.108778   -0.39406   -0.59539   -0.00124    7
   15      0.167D-08      0.153D-09      -115.04909214    163.108778   -0.39406   -0.59539   -0.00124    7
   16      0.341D-09      0.466D-10      -115.04909214    163.108778   -0.39406   -0.59539   -0.00124    7
   17      0.891D-10      0.169D-10      -115.04909214    163.108778   -0.39406   -0.59539   -0.00124    7
   18      0.432D-10      0.314D-11      -115.04909214    163.108778   -0.39406   -0.59539   -0.00124    7
   19      0.731D-11      0.703D-12      -115.04909214    163.108778   -0.39406   -0.59539   -0.00124    0

 Final occupancy:   9

 !RHF STATE 1.1 Energy               -115.049092136617
 Nuclear energy                        40.34163731
 One-electron energy                 -236.94511850
 Two-electron energy                   81.55438906
 Virial quotient                       -1.00081848
 !RHF STATE 1.1 Dipole moment          -0.39405743    -0.59538860    -0.00124058
 Dipole moment /Debye                  -1.00152848    -1.51322775    -0.00315303

 Orbital energies:

         1.1          2.1          3.1          4.1          5.1          6.1          7.1          8.1          9.1         10.1
    -20.549738   -11.273640    -1.349683    -0.922229    -0.682920    -0.614305    -0.585185    -0.497239    -0.443231     0.184745

        11.1
      0.224515


 **********************************************************************************************************************************
 DATASETS  * FILE   NREC   LENGTH (MB)   RECORD NAMES
              1      19        8.40       500      610      700      900      950      970     1000      129      960     1100   
                                          VAR    BASINP    GEOM    SYMINP    ZMAT    AOBASIS   BASIS     P2S    ABASIS      S 
                                         1400     1410     1200     1210     1080     1600     1650     1300     1700   
                                           T        V       H0       H01     AOSYM     SMH    MOLCAS    ERIS     OPER   

              2       3        0.39       700     1000     2100   
                                         GEOM     BASIS     RHF  

 PROGRAMS   *        TOTAL       RHF       INT
 CPU TIMES  *         0.45      0.10      0.28
 REAL TIME  *         0.67 SEC
 DISK USED  *        24.24 MB      
 GA USED    *         0.00 MB       (max)       0.00 MB       (current)
 **********************************************************************************************************************************


1PROGRAM * CCSD (Closed-shell coupled cluster)     Authors: C. Hampel, H.-J. Werner, 1991, M. Deegan, P.J. Knowles, 1992


 Convergence thresholds:  THRVAR = 1.00D-08  THRDEN = 1.00D-12

 CCSD(T)     terms to be evaluated (factor= 1.000)


 Number of core orbitals:           2 (   2 )
 Number of closed-shell orbitals:   7 (   7 )
 Number of external orbitals:      39 (  39 )

 Molecular orbitals read from record     2100.2  Type=RHF/CANONICAL (state 1.1)

 Number of N-1 electron functions:               7
 Number of N-2 electron functions:              28
 Number of singly external CSFs:               273
 Number of doubly external CSFs:             37401
 Total number of CSFs:                       37675

 Length of J-op  integral file:               0.00 MB
 Length of K-op  integral file:               0.19 MB
 Length of 3-ext integral record:             0.00 MB

 Memory could be reduced to 0.96 Mwords without degradation in triples

 Integral transformation finished. Total CPU:   0.02 sec, npass=  1  Memory used:   0.66 MW

 Reference energy:                   -115.04909214

 MP2 singlet pair energy:              -0.21852871
 MP2 triplet pair energy:              -0.11981980
 MP2 correlation energy:               -0.33834851
 MP2 total energy:                   -115.38744065

 SCS-MP2 correlation energy:           -0.33678899   (PS=  1.200000  PT=  0.333333)
 SCS-MP2 total energy:               -115.38588113

 ITER.      SQ.NORM     CORR.ENERGY   TOTAL ENERGY   ENERGY CHANGE        DEN1      VAR(S)    VAR(P)  DIIS     TIME
   1      1.10715998    -0.36112960  -115.41022174    -0.02278109    -0.01412003  0.91D-03  0.17D-02  1  1     0.07
   2      1.11565162    -0.36306828  -115.41216041    -0.00193868    -0.00923155  0.20D-04  0.16D-03  2  2     0.11
   3      1.11752016    -0.36319444  -115.41228658    -0.00012616    -0.00119810  0.94D-05  0.85D-05  3  3     0.16
   4      1.11803166    -0.36319307  -115.41228520     0.00000137    -0.00025340  0.34D-06  0.67D-06  4  4     0.21
   5      1.11812909    -0.36319345  -115.41228559    -0.00000039    -0.00003585  0.99D-07  0.48D-07  5  5     0.26
   6      1.11814802    -0.36319210  -115.41228423     0.00000136    -0.00000432  0.16D-07  0.41D-08  6  6     0.31
   7      1.11815279    -0.36319168  -115.41228382     0.00000042    -0.00000035  0.20D-08  0.72D-09  6  1     0.36
   8      1.11815406    -0.36319178  -115.41228392    -0.00000010     0.00000075  0.25D-09  0.72D-10  6  3     0.41
   9      1.11815512    -0.36319166  -115.41228380     0.00000012    -0.00000038  0.13D-10  0.10D-10  6  2     0.46
  10      1.11815518    -0.36319166  -115.41228379     0.00000000     0.00000000  0.13D-11  0.12D-11  6  4     0.51
  11      1.11815513    -0.36319166  -115.41228379     0.00000000     0.00000003  0.33D-12  0.84D-13  6  5     0.56
  12      1.11815508    -0.36319166  -115.41228380    -0.00000000     0.00000003  0.33D-13  0.13D-13  6  6     0.61
  13      1.11815507    -0.36319166  -115.41228380    -0.00000000     0.00000001  0.37D-14  0.15D-14  6  3     0.66
  14      1.11815506    -0.36319166  -115.41228380    -0.00000000     0.00000000  0.28D-15  0.14D-15  6  1     0.70
  15      1.11815506    -0.36319166  -115.41228380     0.00000000    -0.00000000  0.35D-16  0.31D-16  6  2     0.76
  16      1.11815506    -0.36319166  -115.41228380     0.00000000    -0.00000000  0.31D-17  0.16D-17  6  5     0.80
  17      1.11815506    -0.36319166  -115.41228380    -0.00000000     0.00000000  0.15D-18  0.12D-18  6  4     0.85
  18      1.11815506    -0.36319166  -115.41228380     0.00000000    -0.00000000  0.34D-19  0.13D-19  6  3     0.90
  19      1.11815506    -0.36319166  -115.41228380     0.00000000    -0.00000000  0.46D-20  0.13D-20  6  6     0.95

 Norm of t1 vector:      0.04160077      S-energy:    -0.00000000      T1 diagnostic:  0.00786181
                                                                       D1 diagnostic:  0.01753109


 Total CPU time for triples:      0.25 sec


 RESULTS
 =======

  Reference energy                   -115.049092136617
  CCSD singlet pair energy             -0.254429380980
  CCSD triplet pair energy             -0.108762280834
  CCSD correlation energy              -0.363191661814

  Triples (T) contribution             -0.007721349668
  Total correlation energy             -0.370913011481

  CCSD total energy                  -115.412283798431
  CCSD[T] energy                     -115.420293570724
  CCSD-T energy                      -115.419856006527
 !CCSD(T) total energy               -115.420005148098

 Timing summary (sec):

 STEP                 CPU(USER)    SYS     CPU(TOT)    WALL
 Transformation          0.02      0.00      0.02      0.03
 CCSD iterations         0.93      0.06      0.99      1.02
 Triples                 0.25      0.00      0.25      0.25

 Program statistics:

 Available memory in ccsd:               999999704
 Min. memory needed in ccsd:                136801
 Max. memory used in ccsd:                  163198
 Max. memory used in cckext:                182024 (19 integral passes)



 **********************************************************************************************************************************
 DATASETS  * FILE   NREC   LENGTH (MB)   RECORD NAMES
              1      20       10.94       500      610      700      900      950      970     1000      129      960     1100   
                                          VAR    BASINP    GEOM    SYMINP    ZMAT    AOBASIS   BASIS     P2S    ABASIS      S 
                                         1400     1410     1200     1210     1080     1600     1650     1300     1700     1380   
                                           T        V       H0       H01     AOSYM     SMH    MOLCAS    ERIS     OPER     JKOP   

              2       3        0.39       700     1000     2100   
                                         GEOM     BASIS     RHF  

 PROGRAMS   *        TOTAL   CCSD(T)       RHF       INT
 CPU TIMES  *         1.67      1.22      0.10      0.28
 REAL TIME  *         2.00 SEC
 DISK USED  *        25.67 MB      
 GA USED    *         0.00 MB       (max)       0.00 MB       (current)
 **********************************************************************************************************************************

        CCSD(T)         RHF-SCF 
   -115.42000515   -115.04909214
 **********************************************************************************************************************************
 Variable memory released
