
 Primary working directories    : /tmp/333988.4.gen4.q
 Secondary working directories  : /tmp/333988.4.gen4.q
 Wavefunction directory         : /home/vulcan/mel64643/wfu/
 Main file repository           : /tmp/333988.4.gen4.q/

 ARCHNAME  : Linux/x86_64
 FC        : /opt/intel/compilers_and_libraries_2016.1.150/linux/bin/intel64/ifort
 FCVERSION : 16.0.1
 BLASLIB   : -mkl
 id        : ccgc

 Nodes     nprocs
 n024         3
 Number of processes for MPI-2 version of Molpro:   nprocs(total)=    4   nprocs(compute)=    3   nprocs(helper)=    1
 ga_uses_ma=false, calling ma_init with nominal heap.
 GA-space will be limited to   8.0 MW (determined by -G option)

 Using customized tuning parameters: mindgm=10; mindgv=16; mindgc=4; mindgr=1; noblas=0; mincuda=1000; minvec=7
 default implementation of scratch files=sf  

 ***,Optimization of min3
 memory,1000,m
 gthresh,energy=1.0d-10,orbital=1.0d-10,oneint=1.0d-16,twoint=1.0d-16,optgrad=1.0d-6,compress=1.0d-13
 geomtyp=xyz
 
  bohr
  geometry = {
  12
  arbitrary comment
  C         -3.1010872079          1.5864241527          0.0205965036
  C         -0.8640676928         -0.0710648855         -0.6563800450
  C         -1.1184833962         -2.7800533024          0.2455213180
  O          1.3114116215          1.1048329674          0.5890143869
  O          3.4494248346          0.1202384516         -0.2514913338
  H         -4.8070151196          0.8412238684         -0.8662349319
  H         -2.8111353787          3.5208241675         -0.6275514817
  H         -3.3843470977          1.6057809411          2.0642747977
  H         -0.4599628291         -0.0044421007         -2.6775296554
  H         -2.6942969565         -3.6940546272         -0.7231646332
  H         -1.4780225366         -2.8245005119          2.2774333301
  H          0.6068607991         -3.8291089488         -0.1571777880
 }
 
 basis=cc-pvtz
 {rhf;maxit,200}
 {uccsd(t);maxit,200}

 Variables initialized (661), CPU time= 0.00 sec
 Commands  initialized (458), CPU time= 0.01 sec, 486 directives.
 Default parameters read. Elapsed time= 0.07 sec

 Checking input...
 Passed
1


                                         ***  PROGRAM SYSTEM MOLPRO  ***
                         Copyright, University College Cardiff Consultants Limited, 2008

                                    Version 2010.1 linked May 16 2016 07:17:05


 **********************************************************************************************************************************
 LABEL *   Optimization of min3                                                          
 Linux-4.4.3/n024(x86_64) 64 bit mpp version                                             DATE: 15-Jul-20          TIME: 01:49:23  
 **********************************************************************************************************************************

 SHA1:             9e8077add272b0f3cad6f7df79ec5211205f459d
 **********************************************************************************************************************************

 THRESHOLDS:

 ZERO    =  1.00D-12  ONEINT  =  1.00D-16  TWOINT  =  1.00D-16  PREFAC  =  1.00D-14  LOCALI  =  1.00D-09  EORDER  =  1.00D-04
 ENERGY  =  1.00D-10  ETEST   =  0.00D+00  EDENS   =  0.00D+00  THRDEDEF=  1.00D-06  GRADIENT=  1.00D-02  STEP    =  1.00D-03
 ORBITAL =  1.00D-10  CIVEC   =  1.00D-05  COEFF   =  1.00D-04  PRINTCI =  5.00D-02  PUNCHCI =  9.90D+01  OPTGRAD =  1.00D-06
 OPTENERG=  1.00D-06  OPTSTEP =  3.00D-04  THRGRAD =  1.00D-10  COMPRESS=  1.00D-13  VARMIN  =  1.00D-07  VARMAX  =  1.00D-03
 THRDOUB =  0.00D+00  THRDIV  =  1.00D-05  THRRED  =  1.00D-07  THRPSP  =  1.00D+00  THRDC   =  1.00D-10  THRCS   =  1.00D-10
 THRNRM  =  1.00D-08  THREQ   =  0.00D+00  THRDE   =  1.00D+00  THRREF  =  1.00D-05  SPARFAC =  1.00D+00  THRDLP  =  1.00D-07
 THRDIA  =  1.00D-10  THRDLS  =  1.00D-07  THRGPS  =  0.00D+00  THRKEX  =  0.00D+00  THRDIS  =  2.00D-01  THRVAR  =  1.00D-10
 THRLOC  =  1.00D-06  THRGAP  =  1.00D-06  THRLOCT = -1.00D+00  THRGAPT = -1.00D+00  THRORB  =  1.00D-06  THRMLTP =  0.00D+00
 THRCPQCI=  1.00D-10  KEXTA   =  0.00D+00  THRCOARS=  0.00D+00  SYMTOL  =  1.00D-06  GRADTOL =  1.00D-06  THROVL  =  1.00D-08
 THRORTH =  1.00D-08  GRID    =  1.00D-06  GRIDMAX =  1.00D-03  DTMAX   =  0.00D+00

 SETTING GEOMTYP        =    XYZ
 ZUNIT=BOHR
 

 Variable memory set to 1000000000 words,  buffer space   230000 words

 SETTING BASIS          =    CC-PVTZ


 Recomputing integrals since basis changed


 Using spherical harmonics

 Library entry C      S cc-pVTZ              selected for orbital group  1
 Library entry C      P cc-pVTZ              selected for orbital group  1
 Library entry C      D cc-pVTZ              selected for orbital group  1
 Library entry C      F cc-pVTZ              selected for orbital group  1
 Library entry O      S cc-pVTZ              selected for orbital group  2
 Library entry O      P cc-pVTZ              selected for orbital group  2
 Library entry O      D cc-pVTZ              selected for orbital group  2
 Library entry O      F cc-pVTZ              selected for orbital group  2
 Library entry H      S cc-pVTZ              selected for orbital group  3
 Library entry H      P cc-pVTZ              selected for orbital group  3
 Library entry H      D cc-pVTZ              selected for orbital group  3

1PROGRAM * SEWARD (Integral evaluation for generally contracted gaussian basis sets)     Author: Roland Lindh, 1990

 Geometry written to block  1 of record 700


 Point group  C1  



 ATOMIC COORDINATES

 NR  ATOM    CHARGE       X              Y              Z

   1  C       6.00   -3.101087208    1.586424153    0.020596504
   2  C       6.00   -0.864067693   -0.071064885   -0.656380045
   3  C       6.00   -1.118483396   -2.780053302    0.245521318
   4  O       8.00    1.311411622    1.104832967    0.589014387
   5  O       8.00    3.449424835    0.120238452   -0.251491334
   6  H       1.00   -4.807015120    0.841223868   -0.866234932
   7  H       1.00   -2.811135379    3.520824167   -0.627551482
   8  H       1.00   -3.384347098    1.605780941    2.064274798
   9  H       1.00   -0.459962829   -0.004442101   -2.677529655
  10  H       1.00   -2.694296957   -3.694054627   -0.723164633
  11  H       1.00   -1.478022537   -2.824500512    2.277433330
  12  H       1.00    0.606860799   -3.829108949   -0.157177788

 Bond lengths in Bohr (Angstrom)

 1-2  2.865278952  1-6  2.062033826  1-7  2.060599741  1-8  2.063306041  2-3  2.866491176
     ( 1.516240319)     ( 1.091181305)     ( 1.090422420)     ( 1.091854532)     ( 1.516881800)

  2- 4  2.768836091   2- 9  2.062228184   3-10  2.063235147   3-11  2.063955032   3-12  2.059003864
       ( 1.465204955)       ( 1.091284155)       ( 1.091817016)       ( 1.092197963)       ( 1.089577918)

 4-5  2.499395272
     ( 1.322623014)

 Bond angles

  1-2-3  113.76937151   1-2-4  105.15790328   1-2-9  111.46072300   2-1-6  109.58681833

  2- 1- 7  111.03081682   2- 1- 8  110.28138593   2- 3-10  109.79889180   2- 3-11  110.21623058

  2- 3-12  110.21799837   2- 4- 5  110.70413232   3- 2- 4  109.24268656   3- 2- 9  110.87263519

  4-2-9  105.85165369   6-1-7  108.68663724   6-1-8  108.40907386   7-1-8  108.78766751

 10- 3-11  108.64016575  10- 3-12  108.81198926  11- 3-12  109.11962277

 NUCLEAR CHARGE:                   41
 NUMBER OF PRIMITIVE AOS:         354
 NUMBER OF SYMMETRY AOS:          322
 NUMBER OF CONTRACTIONS:          248   ( 248A   )
 NUMBER OF CORE ORBITALS:           5   (   5A   )
 NUMBER OF VALENCE ORBITALS:       27   (  27A   )


 NUCLEAR REPULSION ENERGY  186.62638949


 Eigenvalues of metric

         1 0.808E-03 0.957E-03 0.110E-02 0.124E-02 0.136E-02 0.150E-02 0.160E-02 0.164E-02


 Contracted 2-electron integrals neglected if value below      1.0D-16
 AO integral compression algorithm  1   Integral accuracy      1.0D-16

     3372.220 MB (compressed) written to integral file ( 82.1%)

     Node minimum: 905.183 MB, node maximum: 1542.717 MB


 NUMBER OF SORTED TWO-ELECTRON INTEGRALS:  158903334.     BUFFER LENGTH:  32768
 NUMBER OF SEGMENTS:  10  SEGMENT LENGTH:   15997437      RECORD LENGTH: 524288

 Memory used in sort:      16.55 MW

 SORT1 READ   513523522. AND WROTE   152631594. INTEGRALS IN    442 RECORDS. CPU TIME:    18.55 SEC, REAL TIME:    25.18 SEC
 SORT2 READ   459390718. AND WROTE   476679126. INTEGRALS IN  17655 RECORDS. CPU TIME:     1.44 SEC, REAL TIME:    15.27 SEC

 Node minimum:   158882750.  Node maximum:   158903334. integrals

 OPERATOR DM      FOR CENTER  0  COORDINATES:    0.000000    0.000000    0.000000


 **********************************************************************************************************************************
 DATASETS  * FILE   NREC   LENGTH (MB)   RECORD NAMES
              1      18        5.04       500      610      700      900      950      970     1000      129      960     1100   
                                          VAR    BASINP    GEOM    SYMINP    ZMAT    AOBASIS   BASIS     P2S    ABASIS      S 
                                         1400     1410     1200     1210     1080     1600     1650     1700   
                                           T        V       H0       H01     AOSYM     SMH    MOLCAS    OPER   

 PROGRAMS   *        TOTAL       INT
 CPU TIMES  *        29.21     29.12
 REAL TIME  *        51.20 SEC
 DISK USED  *         9.18 GB      
 GA USED    *         0.01 MB       (max)       0.00 MB       (current)
 **********************************************************************************************************************************

1PROGRAM * RHF-SCF (OPEN SHELL)       Authors: W. Meyer, H.-J. Werner


 NUMBER OF ELECTRONS:      21+   20-    SPACE SYMMETRY=1    SPIN SYMMETRY: Doublet 
 CONVERGENCE THRESHOLDS:    1.00E-10 (Density)    1.00E-11 (Energy)
 MAX. NUMBER OF ITERATIONS:      200
 INTERPOLATION TYPE:            DIIS
 INTERPOLATION STEPS:              2 (START)      1 (STEP)
 LEVEL SHIFTS:                 -0.30 (CLOSED)  0.00 (OPEN) 



 Orbital guess generated from atomic densities. Full valence occupancy:   32

 Molecular orbital dump at record        2100.2

 ITERATION    DDIFF          GRAD             ENERGY        2-EL.EN.            DIPOLE MOMENTS         DIIS
    1      0.000D+00      0.000D+00      -267.26104713    559.798277   -1.77419   -0.06879   -0.09704    0
    2      0.000D+00      0.326D-02      -267.33461938    562.647088   -1.01523   -0.43112   -0.35891    1
    3      0.471D-02      0.230D-02      -267.36115693    561.599926   -1.18874   -0.24279   -0.21670    2
    4      0.211D-02      0.546D-03      -267.36939783    561.786785   -0.97732   -0.31582   -0.29768    3
    5      0.926D-03      0.485D-03      -267.37362239    561.829182   -0.92181   -0.31797   -0.30190    4
    6      0.583D-03      0.272D-03      -267.37554625    561.796340   -0.88055   -0.31138   -0.29980    5
    7      0.485D-03      0.133D-03      -267.37588217    561.782153   -0.89050   -0.29983   -0.29170    6
    8      0.258D-03      0.356D-04      -267.37590404    561.779431   -0.89008   -0.29657   -0.29022    7
    9      0.847D-04      0.189D-04      -267.37591497    561.779652   -0.89261   -0.29710   -0.29027    8
   10      0.448D-04      0.821D-05      -267.37591679    561.779549   -0.89378   -0.29647   -0.28998    9
   11      0.199D-04      0.321D-05      -267.37591704    561.779495   -0.89441   -0.29631   -0.28981    9
   12      0.784D-05      0.148D-05      -267.37591710    561.779721   -0.89455   -0.29640   -0.28985    9
   13      0.370D-05      0.526D-06      -267.37591710    561.779773   -0.89456   -0.29646   -0.28988    9
   14      0.148D-05      0.297D-06      -267.37591711    561.779772   -0.89455   -0.29648   -0.28989    9
   15      0.809D-06      0.144D-06      -267.37591711    561.779779   -0.89454   -0.29648   -0.28989    9
   16      0.407D-06      0.713D-07      -267.37591711    561.779782   -0.89454   -0.29649   -0.28989    9
   17      0.166D-06      0.322D-07      -267.37591711    561.779777   -0.89454   -0.29649   -0.28989    9
   18      0.101D-06      0.176D-07      -267.37591711    561.779774   -0.89454   -0.29649   -0.28989    9
   19      0.518D-07      0.816D-08      -267.37591711    561.779776   -0.89454   -0.29649   -0.28989    9
   20      0.283D-07      0.452D-08      -267.37591711    561.779776   -0.89454   -0.29648   -0.28989    9
   21      0.193D-07      0.369D-08      -267.37591711    561.779776   -0.89454   -0.29648   -0.28989    9
   22      0.193D-07      0.316D-08      -267.37591711    561.779776   -0.89454   -0.29648   -0.28989    9
   23      0.268D-07      0.249D-08      -267.37591711    561.779776   -0.89454   -0.29648   -0.28989    9
   24      0.366D-07      0.181D-08      -267.37591711    561.779776   -0.89454   -0.29648   -0.28989    9
   25      0.363D-07      0.963D-09      -267.37591711    561.779776   -0.89454   -0.29648   -0.28989    9
   26      0.214D-07      0.400D-09      -267.37591711    561.779776   -0.89454   -0.29648   -0.28989    9
   27      0.435D-08      0.193D-09      -267.37591711    561.779776   -0.89454   -0.29648   -0.28989    9
   28      0.141D-08      0.895D-10      -267.37591711    561.779776   -0.89454   -0.29648   -0.28989    9
   29      0.616D-09      0.440D-10      -267.37591711    561.779776   -0.89454   -0.29648   -0.28989    9
   30      0.121D-09      0.208D-10      -267.37591711    561.779776   -0.89454   -0.29648   -0.28989    9
   31      0.596D-10      0.159D-10      -267.37591711    561.779776   -0.89454   -0.29648   -0.28989    0

 Final alpha occupancy:  21
 Final beta  occupancy:  20

 !RHF STATE 1.1 Energy               -267.375917107574
 Nuclear energy                       186.62638949
 One-electron energy                 -734.89219484
 Two-electron energy                  280.88988825
 Virial quotient                       -1.00116699
 !RHF STATE 1.1 Dipole moment          -0.89453690    -0.29648491    -0.28988968
 Dipole moment /Debye                  -2.27353710    -0.75354012    -0.73677781

 Orbital energies:

         1.1          2.1          3.1          4.1          5.1          6.1          7.1          8.1          9.1         10.1
    -20.648689   -20.640393   -11.297468   -11.229092   -11.225464    -1.523561    -1.170887    -1.034539    -0.952857    -0.819451

        11.1         12.1         13.1         14.1         15.1         16.1         17.1         18.1         19.1         20.1
     -0.695279    -0.668020    -0.652460    -0.595370    -0.562906    -0.557661    -0.544429    -0.501315    -0.489703    -0.465217

        21.1         22.1         23.1
     -0.562899     0.137670     0.174801


 **********************************************************************************************************************************
 DATASETS  * FILE   NREC   LENGTH (MB)   RECORD NAMES
              1      18        5.04       500      610      700      900      950      970     1000      129      960     1100   
                                          VAR    BASINP    GEOM    SYMINP    ZMAT    AOBASIS   BASIS     P2S    ABASIS      S 
                                         1400     1410     1200     1210     1080     1600     1650     1700   
                                           T        V       H0       H01     AOSYM     SMH    MOLCAS    OPER   

              2       3        2.21       700     1000     2100   
                                         GEOM     BASIS     RHF  

 PROGRAMS   *        TOTAL       RHF       INT
 CPU TIMES  *        97.61     68.40     29.12
 REAL TIME  *       125.01 SEC
 DISK USED  *         9.22 GB      
 SF USED    *         0.25 MB      
 GA USED    *         0.01 MB       (max)       0.00 MB       (current)
 **********************************************************************************************************************************


1PROGRAM * CCSD (Unrestricted open-shell coupled cluster)     Authors: C. Hampel, H.-J. Werner, 1991, M. Deegan, P.J. Knowles, 1992


 Convergence thresholds:  THRVAR = 1.00D-08  THRDEN = 1.00D-10

 CCSD(T)     terms to be evaluated (factor= 1.000)


 Number of core orbitals:           5 (   5 )
 Number of closed-shell orbitals:  15 (  15 )
 Number of active  orbitals:        1 (   1 )
 Number of external orbitals:     227 ( 227 )

 Memory could be reduced to 332.02 Mwords without degradation in triples

 Number of N-1 electron functions:              31
 Number of N-2 electron functions:             465
 Number of singly external CSFs:              7068
 Number of doubly external CSFs:          18353430
 Total number of CSFs:                    18360498

 Molecular orbitals read from record     2100.2  Type=RHF/CANONICAL (state 1.1)

 Integral transformation finished. Total CPU:  47.63 sec, npass=  1  Memory used: 145.25 MW

 Starting RMP2 calculation

 ITER.      SQ.NORM     CORR.ENERGY   TOTAL ENERGY   ENERGY CHANGE        DEN1      VAR(S)    VAR(P)  DIIS     TIME
   1      1.26537433    -0.96761694  -268.34353404    -0.96761694    -0.00323688  0.26D-04  0.11D-02  1  1    54.09
   2      1.26815970    -0.97110705  -268.34702416    -0.00349012    -0.00000666  0.10D-05  0.23D-05  2  2    58.58
   3      1.26823965    -0.97115997  -268.34707707    -0.00005291    -0.00000008  0.54D-07  0.11D-07  3  3    62.87
   4      1.26824136    -0.97115978  -268.34707688     0.00000019    -0.00000000  0.16D-08  0.12D-09  4  4    67.61
   5      1.26824162    -0.97115986  -268.34707697    -0.00000009    -0.00000000  0.19D-10  0.46D-11  5  5    74.87
   6      1.26824167    -0.97115990  -268.34707700    -0.00000003    -0.00000000  0.50D-13  0.56D-13  6  6    79.65
   7      1.26824167    -0.97115989  -268.34707700     0.00000000    -0.00000000  0.15D-14  0.85D-15  6  1    84.06
   8      1.26824167    -0.97115989  -268.34707700     0.00000000    -0.00000000  0.16D-16  0.79D-17  6  2    88.45
   9      1.26824167    -0.97115989  -268.34707700    -0.00000000    -0.00000000  0.31D-18  0.10D-18  6  3    92.87

 Norm of t1 vector:      0.04589196      S-energy:    -0.00446759      T1 diagnostic:  0.00074405
 Norm of t2 vector:      0.51588332      P-energy:    -0.96669230
                                         Alpha-Beta:  -0.73709125
                                         Alpha-Alpha: -0.11899157
                                         Beta-Beta:   -0.11060948

 Spin contamination <S**2-Sz**2-Sz>     0.00145403
  Reference energy                   -267.375917107572
  RHF-RMP2 correlation energy          -0.971159894737
 !RHF-RMP2 energy                    -268.347077002309

 Starting UCCSD calculation

 ITER.      SQ.NORM     CORR.ENERGY   TOTAL ENERGY   ENERGY CHANGE        DEN1      VAR(S)    VAR(P)  DIIS     TIME
   1      1.27984527    -0.97927373  -268.35519083    -0.97927373    -0.02933351  0.65D-02  0.54D-02  1  1   202.75
   2      1.30625138    -1.00589953  -268.38181664    -0.02662581    -0.00363522  0.62D-03  0.97D-03  2  2   320.83
   3      1.32290181    -1.01272373  -268.38864083    -0.00682419    -0.00091214  0.75D-03  0.76D-04  3  3   470.60
   4      1.33414071    -1.01538294  -268.39130004    -0.00265921    -0.00038524  0.31D-03  0.33D-04  4  4   609.42
   5      1.34921494    -1.01738015  -268.39329726    -0.00199722    -0.00011798  0.10D-03  0.90D-05  5  5   771.17
   6      1.36074837    -1.01840321  -268.39432031    -0.00102305    -0.00001814  0.93D-05  0.32D-05  6  6   908.85
   7      1.36444138    -1.01864397  -268.39456108    -0.00024077    -0.00000316  0.16D-05  0.61D-06  6  1  1018.46
   8      1.36504629    -1.01868616  -268.39460327    -0.00004219    -0.00000067  0.27D-06  0.15D-06  6  2  1127.84
   9      1.36536731    -1.01870465  -268.39462176    -0.00001849    -0.00000015  0.66D-07  0.32D-07  6  4  1237.10
  10      1.36535369    -1.01870338  -268.39462048     0.00000128    -0.00000002  0.11D-07  0.43D-08  6  3  1346.48
  11      1.36541628    -1.01870848  -268.39462558    -0.00000510    -0.00000000  0.25D-08  0.95D-09  6  5  1455.83
  12      1.36540876    -1.01870599  -268.39462309     0.00000249    -0.00000000  0.11D-08  0.22D-09  6  6  1614.72
  13      1.36540438    -1.01870483  -268.39462194     0.00000116    -0.00000000  0.67D-09  0.57D-10  6  1  1788.45
  14      1.36539152    -1.01870333  -268.39462044     0.00000150    -0.00000000  0.45D-09  0.23D-10  6  2  1962.59
  15      1.36538544    -1.01870260  -268.39461971     0.00000073    -0.00000000  0.37D-09  0.18D-10  6  3  2136.57
  16      1.36538237    -1.01870244  -268.39461955     0.00000017    -0.00000000  0.27D-09  0.14D-10  6  4  2310.50
  17      1.36538183    -1.01870245  -268.39461956    -0.00000002    -0.00000000  0.13D-09  0.14D-10  6  5  2466.54
  18      1.36538469    -1.01870264  -268.39461975    -0.00000019    -0.00000000  0.28D-10  0.57D-11  6  6  2591.01
  19      1.36538791    -1.01870296  -268.39462007    -0.00000032    -0.00000000  0.26D-11  0.17D-11  6  2  2736.26
  20      1.36538734    -1.01870283  -268.39461994     0.00000013    -0.00000000  0.61D-12  0.17D-12  6  1  2888.93
  21      1.36538764    -1.01870287  -268.39461998    -0.00000004    -0.00000000  0.21D-12  0.60D-13  6  4  3043.74
  22      1.36538757    -1.01870286  -268.39461997     0.00000001    -0.00000000  0.73D-13  0.19D-13  6  2  3206.95
  23      1.36538766    -1.01870288  -268.39461998    -0.00000001    -0.00000000  0.21D-13  0.39D-14  6  3  3353.48
  24      1.36538760    -1.01870287  -268.39461998     0.00000001    -0.00000000  0.23D-14  0.71D-15  6  5  3499.58
  25      1.36538759    -1.01870286  -268.39461997     0.00000000    -0.00000000  0.63D-15  0.20D-15  6  6  3654.79
  26      1.36538758    -1.01870286  -268.39461997     0.00000000    -0.00000000  0.28D-15  0.73D-16  6  1  3783.52
  27      1.36538758    -1.01870286  -268.39461997    -0.00000000    -0.00000000  0.16D-15  0.16D-16  6  4  3937.11
  28      1.36538758    -1.01870286  -268.39461997    -0.00000000    -0.00000000  0.12D-15  0.71D-17  6  2  4099.35
  29      1.36538758    -1.01870286  -268.39461997    -0.00000000    -0.00000000  0.91D-16  0.49D-17  6  3  4239.63
  30      1.36538758    -1.01870286  -268.39461997     0.00000000    -0.00000000  0.55D-16  0.42D-17  6  5  4375.51

 Norm of t1 vector:      0.23121629      S-energy:    -0.00501484      T1 diagnostic:  0.02849174
                                                                       D1 diagnostic:  0.14601026
 Norm of t2 vector:      0.55850390      P-energy:    -1.01368802
                                         Alpha-Beta:  -0.80138539
                                         Alpha-Alpha: -0.10868422
                                         Beta-Beta:   -0.10361841

 Singles amplitudes (print threshold =  0.500E-01):

         I         SYM. A    A   T(IA) [Beta-Beta]

         8         1         1     -0.09615803
         9         1         1      0.09927056
        11         1         1     -0.05415941
        12         1         1     -0.07471665
        14         1         1     -0.11149924

 Spin contamination <S**2-Sz**2-Sz>     0.00176104

 Memory could be reduced to 360.52 Mwords without degradation in triples
 

 RESULTS
 =======

  Reference energy                   -267.375917107572
  UCCSD singles energy                 -0.005014842919
  UCCSD pair energy                    -1.013688021219
  UCCSD correlation energy             -1.018702864138
  Triples (T) contribution             -0.040837029166
  Total correlation energy             -1.059539893304
 
  RHF-UCCSD energy                   -268.394619971709
  RHF-UCCSD[T] energy                -268.438779151624
  RHF-UCCSD-T energy                 -268.434959287972
 !RHF-UCCSD(T) energy                -268.435457000875

 Program statistics:

 Available memory in ccsd:               999997692
 Min. memory needed in ccsd:              51505734
 Max. memory used in ccsd:                74803578
 Max. memory used in cckext:              59475747 (30 integral passes)
 Max. memory used in cckint:             145249478 ( 1 integral passes)



 **********************************************************************************************************************************
 DATASETS  * FILE   NREC   LENGTH (MB)   RECORD NAMES
              1      18        5.04       500      610      700      900      950      970     1000      129      960     1100   
                                          VAR    BASINP    GEOM    SYMINP    ZMAT    AOBASIS   BASIS     P2S    ABASIS      S 
                                         1400     1410     1200     1210     1080     1600     1650     1700   
                                           T        V       H0       H01     AOSYM     SMH    MOLCAS    OPER   

              2       3        2.21       700     1000     2100   
                                         GEOM     BASIS     RHF  

 PROGRAMS   *        TOTAL  UCCSD(T)       RHF       INT
 CPU TIMES  *      6981.44   6883.83     68.40     29.12
 REAL TIME  *      7123.24 SEC
 DISK USED  *        16.19 GB      
 SF USED    *         6.57 GB      
 GA USED    *         0.01 MB       (max)       0.00 MB       (current)
 **********************************************************************************************************************************

        UCCSD(T)        RHF-SCF 
   -268.43545700   -267.37591711
 **********************************************************************************************************************************
 Variable memory released
