
    -----------------------------------------------------------------------
          Psi4: An Open-Source Ab Initio Electronic Structure Package
                               Psi4 1.4a2.dev629 

                         Git: Rev {master} 2938fc2 dirty


    D. G. A. Smith, L. A. Burns, A. C. Simmonett, R. M. Parrish,
    M. C. Schieber, R. Galvelis, P. Kraus, H. Kruse, R. Di Remigio,
    A. Alenaizan, A. M. James, S. Lehtola, J. P. Misiewicz, M. Scheurer,
    R. A. Shaw, J. B. Schriber, Y. Xie, Z. L. Glick, D. A. Sirianni,
    J. S. O'Brien, J. M. Waldrop, A. Kumar, E. G. Hohenstein,
    B. P. Pritchard, B. R. Brooks, H. F. Schaefer III, A. Yu. Sokolov,
    K. Patkowski, A. E. DePrince III, U. Bozkaya, R. A. King,
    F. A. Evangelista, J. M. Turney, T. D. Crawford, C. D. Sherrill,
    J. Chem. Phys. 152(18) 184108 (2020). https://doi.org/10.1063/5.0006002

                            Additional Code Authors
    E. T. Seidl, C. L. Janssen, E. F. Valeev, M. L. Leininger,
    J. F. Gonthier, R. M. Richard, H. R. McAlexander, M. Saitow, X. Wang,
    P. Verma, and M. H. Lechner

             Previous Authors, Complete List of Code Contributors,
                       and Citations for Specific Modules
    https://github.com/psi4/psi4/blob/master/codemeta.json
    https://github.com/psi4/psi4/graphs/contributors
    http://psicode.org/psi4manual/master/introduction.html#citing-psifour

    -----------------------------------------------------------------------


    Psi4 started on: Wednesday, 21 September 2022 04:34PM

    Process ID: 117462
    Host:       n073
    PSIDATADIR: /opt/psi/4/master/share/psi4
    Memory:     500.0 MiB
    Threads:    1
    
  ==> Input File <==

--------------------------------------------------------------------------
# o-Benzyne preliminary computations

memory 14 gb

molecule {
  0 1
  units bohr
 C   -1.3747114734   -0.0266847004    0.0000006138
 O    1.3061959037    0.1197522015    0.0000006094
 H   -2.0809835053    1.9161319823   -0.0000808819
 H   -2.1079788350   -0.9803648300    1.6804772792
 H   -2.1079724816   -0.9804949725   -1.6804047769
 H    1.9417262317   -1.5784718009   -0.0000012537
}

set {
  basis cc-pvtz
  reference rhf
  e_convergence 10 
  d_convergence 10
  r_convergence 8
  maxiter 300
  freeze_core True
}

e, wfn = energy('ccsd(t)', return_wfn = True)
psi4.print_out('Giraffe The Energy is %.12f \n'%(e))
--------------------------------------------------------------------------

  Memory set to  13.039 GiB by Python driver.

Scratch directory: /tmp/

*** tstart() called on n073
*** at Wed Sep 21 16:34:07 2022

   => Loading Basis Set <=

    Name: CC-PVTZ
    Role: ORBITAL
    Keyword: BASIS
    atoms 1   entry C          line   186 file /opt/psi/4/master/share/psi4/basis/cc-pvtz.gbs 
    atoms 2   entry O          line   262 file /opt/psi/4/master/share/psi4/basis/cc-pvtz.gbs 
    atoms 3-6 entry H          line    23 file /opt/psi/4/master/share/psi4/basis/cc-pvtz.gbs 


         ---------------------------------------------------------
                                   SCF
               by Justin Turney, Rob Parrish, Andy Simmonett
                          and Daniel G. A. Smith
                              RHF Reference
                        1 Threads,  13351 MiB Core
         ---------------------------------------------------------

  ==> Geometry <==

    Molecular point group: c1
    Full point group: C1

    Geometry (in Bohr), charge = 0, multiplicity = 1:

       Center              X                  Y                   Z               Mass       
    ------------   -----------------  -----------------  -----------------  -----------------
         C           -1.374919616560    -0.025414135737     0.000000382608    12.000000000000
         O            1.305987760540     0.121022766163     0.000000378208    15.994914619570
         H           -2.081191648460     1.917402546963    -0.000081113092     1.007825032230
         H           -2.108186978160    -0.979094265337     1.680477048008     1.007825032230
         H           -2.108180624760    -0.979224407837    -1.680405008092     1.007825032230
         H            1.941518088540    -1.577201236237    -0.000001484892     1.007825032230

  Running in c1 symmetry.

  Rotational constants: A =      4.27594  B =      0.82714  C =      0.79761 [cm^-1]
  Rotational constants: A = 128189.30901  B =  24797.05326  C =  23911.68832 [MHz]
  Nuclear repulsion =   40.297404953769011

  Charge       = 0
  Multiplicity = 1
  Electrons    = 18
  Nalpha       = 9
  Nbeta        = 9

  ==> Algorithm <==

  SCF Algorithm Type is PK.
  DIIS enabled.
  MOM disabled.
  Fractional occupation disabled.
  Guess Type is SAD.
  Energy threshold   = 1.00e-10
  Density threshold  = 1.00e-10
  Integral threshold = 0.00e+00

  ==> Primary Basis <==

  Basis Set: CC-PVTZ
    Blend: CC-PVTZ
    Number of shells: 44
    Number of basis function: 116
    Number of Cartesian functions: 130
    Spherical Harmonics?: true
    Max angular momentum: 3

  ==> Integral Setup <==

  Using in-core PK algorithm.
   Calculation information:
      Number of atoms:                   6
      Number of AO shells:              44
      Number of primitives:             84
      Number of atomic orbitals:       130
      Number of basis functions:       116

      Integral cutoff                 1.00e-12
      Number of threads:                 1

  Performing in-core PK
  Using 46056582 doubles for integral storage.
  We computed 490463 shell quartets total.
  Whereas there are 490545 unique shell quartets.

  ==> DiskJK: Disk-Based J/K Matrices <==

    J tasked:                  Yes
    K tasked:                  Yes
    wK tasked:                  No
    Memory [MiB]:            10013
    Schwarz Cutoff:          1E-12

    OpenMP threads:              1

  Minimum eigenvalue in the overlap matrix is 1.8496278144E-03.
  Reciprocal condition number of the overlap matrix is 2.7983733270E-04.
    Using symmetric orthogonalization.

  ==> Pre-Iterations <==

  SCF Guess: Superposition of Atomic Densities via on-the-fly atomic UHF (no occupation information).

   -------------------------
    Irrep   Nso     Nmo    
   -------------------------
     A        116     116 
   -------------------------
    Total     116     116
   -------------------------

  ==> Iterations <==

                        Total Energy        Delta E     RMS |[F,P]|

   @RHF iter SAD:  -114.41319292785734   -1.14413e+02   0.00000e+00 
   @RHF iter   1:  -115.01447193046434   -6.01279e-01   3.41160e-03 DIIS
   @RHF iter   2:  -115.07125033692878   -5.67784e-02   1.95561e-03 DIIS
   @RHF iter   3:  -115.08809686115268   -1.68465e-02   3.00735e-04 DIIS
   @RHF iter   4:  -115.08898146031549   -8.84599e-04   8.76534e-05 DIIS
   @RHF iter   5:  -115.08905487973034   -7.34194e-05   2.14682e-05 DIIS
   @RHF iter   6:  -115.08905975746909   -4.87774e-06   4.74559e-06 DIIS
   @RHF iter   7:  -115.08906012711965   -3.69651e-07   1.10077e-06 DIIS
   @RHF iter   8:  -115.08906014878279   -2.16631e-08   2.26975e-07 DIIS
   @RHF iter   9:  -115.08906014969497   -9.12181e-10   4.21911e-08 DIIS
   @RHF iter  10:  -115.08906014972493   -2.99565e-11   1.08987e-08 DIIS
   @RHF iter  11:  -115.08906014972696   -2.03215e-12   2.24003e-09 DIIS
   @RHF iter  12:  -115.08906014972729   -3.26850e-13   4.00036e-10 DIIS
   @RHF iter  13:  -115.08906014972715    1.42109e-13   7.39825e-11 DIIS
  Energy and wave function converged.


  ==> Post-Iterations <==

    Orbital Energies [Eh]
    ---------------------

    Doubly Occupied:                                                      

       1A    -20.552687     2A    -11.270096     3A     -1.354151  
       4A     -0.922695     5A     -0.687949     6A     -0.617988  
       7A     -0.589380     8A     -0.501625     9A     -0.449328  

    Virtual:                                                              

      10A      0.138375    11A      0.178555    12A      0.220209  
      13A      0.223506    14A      0.290571    15A      0.386966  
      16A      0.404440    17A      0.544231    18A      0.583250  
      19A      0.623490    20A      0.624072    21A      0.638084  
      22A      0.689415    23A      0.702593    24A      0.720888  
      25A      0.833141    26A      0.864622    27A      0.872132  
      28A      0.927836    29A      1.067455    30A      1.100093  
      31A      1.177355    32A      1.189322    33A      1.261183  
      34A      1.272386    35A      1.281388    36A      1.365334  
      37A      1.446334    38A      1.491432    39A      1.521941  
      40A      1.544045    41A      1.581596    42A      1.619288  
      43A      1.771533    44A      2.091805    45A      2.179667  
      46A      2.196986    47A      2.300831    48A      2.322736  
      49A      2.489072    50A      2.514126    51A      2.577394  
      52A      2.803811    53A      2.950280    54A      3.053958  
      55A      3.107565    56A      3.114962    57A      3.145716  
      58A      3.221970    59A      3.242576    60A      3.311210  
      61A      3.313538    62A      3.343363    63A      3.383452  
      64A      3.498175    65A      3.612156    66A      3.633017  
      67A      3.699198    68A      3.703545    69A      3.743949  
      70A      3.760611    71A      3.810373    72A      3.835186  
      73A      3.903913    74A      4.010239    75A      4.027723  
      76A      4.116716    77A      4.158991    78A      4.167218  
      79A      4.244715    80A      4.253758    81A      4.284788  
      82A      4.394697    83A      4.435458    84A      4.462152  
      85A      4.552653    86A      4.578326    87A      4.709456  
      88A      4.779199    89A      4.986627    90A      5.029275  
      91A      5.050756    92A      5.196243    93A      5.264472  
      94A      5.310915    95A      5.357237    96A      5.432118  
      97A      5.533063    98A      5.535853    99A      5.560235  
     100A      5.784922   101A      5.943001   102A      6.185730  
     103A      6.205483   104A      6.242485   105A      6.424895  
     106A      6.634040   107A      6.993935   108A      7.125537  
     109A      7.174688   110A      7.235689   111A      7.352594  
     112A      7.427912   113A      7.594295   114A      7.907368  
     115A     12.126298   116A     13.673248  

    Final Occupation by Irrep:
              A 
    DOCC [     9 ]

  @RHF Final Energy:  -115.08906014972715

   => Energetics <=

    Nuclear Repulsion Energy =             40.2974049537690107
    One-Electron Energy =                -236.8811335437341086
    Two-Electron Energy =                  81.4946684402379447
    Total Energy =                       -115.0890601497271462

Computation Completed


Properties will be evaluated at   0.000000,   0.000000,   0.000000 [a0]

Properties computed using the SCF density matrix

  Nuclear Dipole Moment: [e a0]
     X:    -2.1577      Y:    -0.8024      Z:    -0.0000

  Electronic Dipole Moment: [e a0]
     X:     1.7711      Y:     0.2121      Z:     0.0000

  Dipole Moment: [e a0]
     X:    -0.3866      Y:    -0.5903      Z:    -0.0000     Total:     0.7056

  Dipole Moment: [D]
     X:    -0.9826      Y:    -1.5004      Z:    -0.0000     Total:     1.7935


*** tstop() called on n073 at Wed Sep 21 16:34:11 2022
Module time:
	user time   =       3.34 seconds =       0.06 minutes
	system time =       0.04 seconds =       0.00 minutes
	total time  =          4 seconds =       0.07 minutes
Total time:
	user time   =       3.34 seconds =       0.06 minutes
	system time =       0.04 seconds =       0.00 minutes
	total time  =          4 seconds =       0.07 minutes
 MINTS: Wrapper to libmints.
   by Justin Turney

   Calculation information:
      Number of threads:                 1
      Number of atoms:                   6
      Number of AO shells:              44
      Number of SO shells:              44
      Number of primitives:             84
      Number of atomic orbitals:       130
      Number of basis functions:       116

      Number of irreps:                  1
      Integral cutoff                 0.00e+00
      Number of functions per irrep: [ 116 ]

 OEINTS: Overlap, kinetic, potential, dipole, and quadrupole integrals
         stored in file 35.

      Computing two-electron integrals...done
      Computed 22877835 non-zero two-electron integrals.
        Stored in file 33.


*** tstart() called on n073
*** at Wed Sep 21 16:34:13 2022


	Wfn Parameters:
	--------------------
	Wavefunction         = CCSD_T
	Number of irreps     = 1
	Number of MOs        = 116
	Number of active MOs = 114
	AO-Basis             = NONE
	Semicanonical        = false
	Reference            = RHF
	Print Level          = 1

	IRREP	# MOs	# FZDC	# DOCC	# SOCC	# VIRT	# FZVR
	-----	-----	------	------	------	------	------
	 A	   116	    2	    7	    0	    107	    0
	Transforming integrals...
	IWL integrals will be deleted.
	(OO|OO)...
	Presorting SO-basis two-electron integrals.
	Sorting File: SO Ints (nn|nn) nbuckets = 1
	Transforming the one-electron integrals and constructing Fock matrices
	Starting first half-transformation.
	Sorting half-transformed integrals.
	First half integral transformation complete.
	Starting second half-transformation.
	Two-electron integral transformation complete.
	(OO|OV)...
	Starting second half-transformation.
	Two-electron integral transformation complete.
	(OO|VV)...
	Starting second half-transformation.
	Two-electron integral transformation complete.
	(OV|OO)...
	Starting first half-transformation.
	Sorting half-transformed integrals.
	First half integral transformation complete.
	Starting second half-transformation.
	Two-electron integral transformation complete.
	(OV|OV)...
	Starting second half-transformation.
	Two-electron integral transformation complete.
	(OV|VV)...
	Starting second half-transformation.
	Two-electron integral transformation complete.
	(VV|OO)...
	Starting first half-transformation.
	Sorting half-transformed integrals.
	First half integral transformation complete.
	Starting second half-transformation.
	Two-electron integral transformation complete.
	(VV|OV)...
	Starting second half-transformation.
	Two-electron integral transformation complete.
	(VV|VV)...
	Starting second half-transformation.
	Two-electron integral transformation complete.
	Frozen core energy     =   -106.48703451510431

	Size of irrep 0 of <ab|cd> integrals:    131.080 (MW) /   1048.637 (MB)
	Total:                                   131.080 (MW) /   1048.637 (MB)

	Size of irrep 0 of <ia|bc> integrals:      8.575 (MW) /     68.602 (MB)
	Total:                                     8.575 (MW) /     68.602 (MB)

	Size of irrep 0 of tijab amplitudes:       0.561 (MW) /      4.488 (MB)
	Total:                                     0.561 (MW) /      4.488 (MB)

	Nuclear Rep. energy          =     40.29740495376901
	SCF energy                   =   -115.08906014972715
	One-electron energy          =    -87.55263018763289
	Two-electron energy          =     38.65319959924122
	Reference energy             =   -115.08906014972698

*** tstop() called on n073 at Wed Sep 21 16:34:24 2022
Module time:
	user time   =       7.89 seconds =       0.13 minutes
	system time =       3.04 seconds =       0.05 minutes
	total time  =         11 seconds =       0.18 minutes
Total time:
	user time   =      12.79 seconds =       0.21 minutes
	system time =       3.27 seconds =       0.05 minutes
	total time  =         17 seconds =       0.28 minutes
            **************************
            *                        *
            *        CCENERGY        *
            *                        *
            **************************

    Nuclear Rep. energy (wfn)     =   40.297404953769011
    SCF energy          (wfn)     = -115.089060149727146
    Reference energy    (file100) = -115.089060149726976

    Input parameters:
    -----------------
    Wave function   =     CCSD_T
    Reference wfn   =     RHF
    Brueckner       =     No
    Memory (Mbytes) =     14000.0
    Maxiter         =    300
    R_Convergence   =     1.0e-08
    E_Convergence   =     1.0e-10
    Restart         =     Yes
    DIIS            =     Yes
    AO Basis        =     NONE
    ABCD            =     NEW
    Cache Level     =     2
    Cache Type      =     LOW
    Print Level     =     1
    Num. of threads =     1
    # Amps to Print =     10
    Print MP2 Amps? =     No
    Analyze T2 Amps =     No
    Print Pair Ener =     No
    Local CC        =     No
    SCS-MP2         =     False
    SCSN-MP2        =     False
    SCS-CCSD        =     False

MP2 correlation energy -0.4283596060722969
                Solving CC Amplitude Equations
                ------------------------------
  Iter             Energy              RMS        T1Diag      D1Diag    New D1Diag    D2Diag
  ----     ---------------------    ---------   ----------  ----------  ----------   --------
     0        -0.428359606072297    0.000e+00    0.000000    0.000000    0.000000    0.128393
     1        -0.435642333770046    4.788e-02    0.007311    0.014805    0.014805    0.129774
     2        -0.445485336902784    1.577e-02    0.007426    0.014739    0.014739    0.135555
     3        -0.446957523074454    5.538e-03    0.008333    0.016862    0.016862    0.137032
     4        -0.446865666349287    1.221e-03    0.008393    0.017006    0.017006    0.137262
     5        -0.446908663275930    4.462e-04    0.008431    0.017152    0.017152    0.137361
     6        -0.446916163382137    1.283e-04    0.008443    0.017210    0.017210    0.137368
     7        -0.446913674812160    4.751e-05    0.008446    0.017227    0.017227    0.137365
     8        -0.446913703165900    1.750e-05    0.008447    0.017236    0.017236    0.137364
     9        -0.446913787000735    4.973e-06    0.008447    0.017238    0.017238    0.137364
    10        -0.446913536646068    1.578e-06    0.008448    0.017238    0.017238    0.137364
    11        -0.446913602361705    4.911e-07    0.008448    0.017239    0.017239    0.137364
    12        -0.446913587562459    1.203e-07    0.008448    0.017239    0.017239    0.137364
    13        -0.446913591082438    4.359e-08    0.008448    0.017239    0.017239    0.137364
    14        -0.446913592300184    1.237e-08    0.008448    0.017239    0.017239    0.137364
    15        -0.446913592339672    5.146e-09    0.008448    0.017239    0.017239    0.137364
    16        -0.446913592362729    1.582e-09    0.008448    0.017239    0.017239    0.137364

    Iterations converged.


    Largest TIA Amplitudes:
              3   6        -0.0081480751
              3  14         0.0075950521
              6  14        -0.0067432027
              3   9         0.0066885104
              4   3        -0.0059060051
              4   7         0.0059027976
              5   8         0.0058086607
              6   6         0.0054808556
              3   2         0.0054214402
              4   5        -0.0051338801

    Largest TIjAb Amplitudes:
      3   3   9   9        -0.0231409620
      4   4   7   7        -0.0216056962
      6   6  14  14        -0.0211015283
      5   5  12  12        -0.0201215950
      2   2   7   7        -0.0190477186
      4   4   8   8        -0.0162488460
      3   3  14  14        -0.0151806222
      3   3   2   9        -0.0150957948
      3   3   9   2        -0.0150957948
      5   5   7   7        -0.0150128327

    SCF energy       (wfn)                    = -115.089060149727146
    Reference energy (file100)                = -115.089060149726976

    Opposite-spin MP2 correlation energy      =   -0.330155483263261
    Same-spin MP2 correlation energy          =   -0.098204122809036
    Singles MP2 correlation energy            =   -0.000000000000000
    MP2 correlation energy                    =   -0.428359606072297
      * MP2 total energy                      = -115.517419755799267

    Opposite-spin CCSD correlation energy     =   -0.357755126697903
    Same-spin CCSD correlation energy         =   -0.089158465664826
    Singles CCSD correlation energy           =    0.000000000000000
    CCSD correlation energy                   =   -0.446913592362729
      * CCSD total energy                     = -115.535973742089709

            **************************
            *                        *
            *        CCTRIPLES       *
            *                        *
            **************************


    Wave function   =    CCSD_T
    Reference wfn   =      RHF

    Nuclear Rep. energy (wfn)                =   40.297404953769011
    SCF energy          (wfn)                = -115.089060149727146
    Reference energy    (file100)            = -115.089060149726976
    CCSD energy         (file100)            =   -0.446913592362729
    Total CCSD energy   (file100)            = -115.535973742089709

    Number of ijk index combinations:               84
    Memory available in words        :      1750000000
    ~Words needed per explicit thread:         4900172
    Number of threads for explicit ijk threading:    1

    MKL num_threads set to 1 for explicit threading.

    (T) energy                                =   -0.014796007612480
      * CCSD(T) total energy                  = -115.550769749702184

Giraffe The Energy is -115.550769749702 

    Psi4 stopped on: Wednesday, 21 September 2022 04:34PM
    Psi4 wall time for execution: 0:00:44.39

*** Psi4 exiting successfully. Buy a developer a beer!
