
    -----------------------------------------------------------------------
          Psi4: An Open-Source Ab Initio Electronic Structure Package
                               Psi4 1.4a2.dev629 

                         Git: Rev {master} 2938fc2 dirty


    D. G. A. Smith, L. A. Burns, A. C. Simmonett, R. M. Parrish,
    M. C. Schieber, R. Galvelis, P. Kraus, H. Kruse, R. Di Remigio,
    A. Alenaizan, A. M. James, S. Lehtola, J. P. Misiewicz, M. Scheurer,
    R. A. Shaw, J. B. Schriber, Y. Xie, Z. L. Glick, D. A. Sirianni,
    J. S. O'Brien, J. M. Waldrop, A. Kumar, E. G. Hohenstein,
    B. P. Pritchard, B. R. Brooks, H. F. Schaefer III, A. Yu. Sokolov,
    K. Patkowski, A. E. DePrince III, U. Bozkaya, R. A. King,
    F. A. Evangelista, J. M. Turney, T. D. Crawford, C. D. Sherrill,
    J. Chem. Phys. 152(18) 184108 (2020). https://doi.org/10.1063/5.0006002

                            Additional Code Authors
    E. T. Seidl, C. L. Janssen, E. F. Valeev, M. L. Leininger,
    J. F. Gonthier, R. M. Richard, H. R. McAlexander, M. Saitow, X. Wang,
    P. Verma, and M. H. Lechner

             Previous Authors, Complete List of Code Contributors,
                       and Citations for Specific Modules
    https://github.com/psi4/psi4/blob/master/codemeta.json
    https://github.com/psi4/psi4/graphs/contributors
    http://psicode.org/psi4manual/master/introduction.html#citing-psifour

    -----------------------------------------------------------------------


    Psi4 started on: Wednesday, 21 September 2022 04:23PM

    Process ID: 215263
    Host:       n070
    PSIDATADIR: /opt/psi/4/master/share/psi4
    Memory:     500.0 MiB
    Threads:    1
    
  ==> Input File <==

--------------------------------------------------------------------------
# o-Benzyne preliminary computations

memory 14 gb

molecule {
  0 1
  units bohr
 C   -1.3763624860   -0.0216795959    0.0000001353
 O    1.3123243731    0.1215669397    0.0000005266
 H   -2.0838358178    1.9103427864   -0.0000794110
 H   -2.1062773762   -0.9796745060    1.6816697733
 H   -2.1062690077   -0.9798068480   -1.6815975796
 H    1.9366961547   -1.5808808962   -0.0000018546
}

set {
  basis cc-pvtz
  reference rhf
  e_convergence 10 
  d_convergence 10
  r_convergence 8
  maxiter 300
  freeze_core True
}

e, wfn = energy('ccsd(t)', return_wfn = True)
psi4.print_out('Giraffe The Energy is %.12f \n'%(e))
--------------------------------------------------------------------------

  Memory set to  13.039 GiB by Python driver.

Scratch directory: /tmp/

*** tstart() called on n070
*** at Wed Sep 21 16:23:26 2022

   => Loading Basis Set <=

    Name: CC-PVTZ
    Role: ORBITAL
    Keyword: BASIS
    atoms 1   entry C          line   186 file /opt/psi/4/master/share/psi4/basis/cc-pvtz.gbs 
    atoms 2   entry O          line   262 file /opt/psi/4/master/share/psi4/basis/cc-pvtz.gbs 
    atoms 3-6 entry H          line    23 file /opt/psi/4/master/share/psi4/basis/cc-pvtz.gbs 


         ---------------------------------------------------------
                                   SCF
               by Justin Turney, Rob Parrish, Andy Simmonett
                          and Daniel G. A. Smith
                              RHF Reference
                        1 Threads,  13351 MiB Core
         ---------------------------------------------------------

  ==> Geometry <==

    Molecular point group: c1
    Full point group: C1

    Geometry (in Bohr), charge = 0, multiplicity = 1:

       Center              X                  Y                   Z               Mass       
    ------------   -----------------  -----------------  -----------------  -----------------
         C           -1.378871859609    -0.022976135374     0.000000107085    12.000000000000
         O            1.309814999491     0.120270400226     0.000000498385    15.994914619570
         H           -2.086345191409     1.909046246926    -0.000079439215     1.007825032230
         H           -2.108786749809    -0.980971045474     1.681669745085     1.007825032230
         H           -2.108778381309    -0.981103387474    -1.681597607815     1.007825032230
         H            1.934186781091    -1.582177435674    -0.000001882815     1.007825032230

  Running in c1 symmetry.

  Rotational constants: A =      4.27752  B =      0.82378  C =      0.79471 [cm^-1]
  Rotational constants: A = 128236.77938  B =  24696.29772  C =  23824.70681 [MHz]
  Nuclear repulsion =   40.249714349126137

  Charge       = 0
  Multiplicity = 1
  Electrons    = 18
  Nalpha       = 9
  Nbeta        = 9

  ==> Algorithm <==

  SCF Algorithm Type is PK.
  DIIS enabled.
  MOM disabled.
  Fractional occupation disabled.
  Guess Type is SAD.
  Energy threshold   = 1.00e-10
  Density threshold  = 1.00e-10
  Integral threshold = 0.00e+00

  ==> Primary Basis <==

  Basis Set: CC-PVTZ
    Blend: CC-PVTZ
    Number of shells: 44
    Number of basis function: 116
    Number of Cartesian functions: 130
    Spherical Harmonics?: true
    Max angular momentum: 3

  ==> Integral Setup <==

  Using in-core PK algorithm.
   Calculation information:
      Number of atoms:                   6
      Number of AO shells:              44
      Number of primitives:             84
      Number of atomic orbitals:       130
      Number of basis functions:       116

      Integral cutoff                 1.00e-12
      Number of threads:                 1

  Performing in-core PK
  Using 46056582 doubles for integral storage.
  We computed 490471 shell quartets total.
  Whereas there are 490545 unique shell quartets.

  ==> DiskJK: Disk-Based J/K Matrices <==

    J tasked:                  Yes
    K tasked:                  Yes
    wK tasked:                  No
    Memory [MiB]:            10013
    Schwarz Cutoff:          1E-12

    OpenMP threads:              1

  Minimum eigenvalue in the overlap matrix is 1.8510159249E-03.
  Reciprocal condition number of the overlap matrix is 2.7999245562E-04.
    Using symmetric orthogonalization.

  ==> Pre-Iterations <==

  SCF Guess: Superposition of Atomic Densities via on-the-fly atomic UHF (no occupation information).

   -------------------------
    Irrep   Nso     Nmo    
   -------------------------
     A        116     116 
   -------------------------
    Total     116     116
   -------------------------

  ==> Iterations <==

                        Total Energy        Delta E     RMS |[F,P]|

   @RHF iter SAD:  -114.40793078213714   -1.14408e+02   0.00000e+00 
   @RHF iter   1:  -115.01446142512494   -6.06531e-01   3.40932e-03 DIIS
   @RHF iter   2:  -115.07117050618038   -5.67091e-02   1.95509e-03 DIIS
   @RHF iter   3:  -115.08800441372443   -1.68339e-02   3.01313e-04 DIIS
   @RHF iter   4:  -115.08888923646052   -8.84823e-04   8.79530e-05 DIIS
   @RHF iter   5:  -115.08896315802585   -7.39216e-05   2.14638e-05 DIIS
   @RHF iter   6:  -115.08896802711598   -4.86909e-06   4.73617e-06 DIIS
   @RHF iter   7:  -115.08896839345891   -3.66343e-07   1.09450e-06 DIIS
   @RHF iter   8:  -115.08896841476226   -2.13034e-08   2.25501e-07 DIIS
   @RHF iter   9:  -115.08896841565731   -8.95042e-10   4.18666e-08 DIIS
   @RHF iter  10:  -115.08896841568686   -2.95586e-11   1.08302e-08 DIIS
   @RHF iter  11:  -115.08896841568891   -2.04636e-12   2.24269e-09 DIIS
   @RHF iter  12:  -115.08896841568877    1.42109e-13   4.02850e-10 DIIS
   @RHF iter  13:  -115.08896841568890   -1.27898e-13   7.38901e-11 DIIS
  Energy and wave function converged.


  ==> Post-Iterations <==

    Orbital Energies [Eh]
    ---------------------

    Doubly Occupied:                                                      

       1A    -20.552673     2A    -11.270140     3A     -1.352842  
       4A     -0.923133     5A     -0.686920     6A     -0.617193  
       7A     -0.589251     8A     -0.502753     9A     -0.449465  

    Virtual:                                                              

      10A      0.138316    11A      0.178618    12A      0.219968  
      13A      0.223594    14A      0.290069    15A      0.387314  
      16A      0.404011    17A      0.543237    18A      0.582439  
      19A      0.623166    20A      0.624840    21A      0.637487  
      22A      0.689432    23A      0.703530    24A      0.720552  
      25A      0.833780    26A      0.863527    27A      0.872692  
      28A      0.927330    29A      1.067599    30A      1.099968  
      31A      1.177278    32A      1.188984    33A      1.260084  
      34A      1.273782    35A      1.281163    36A      1.365450  
      37A      1.447415    38A      1.491742    39A      1.521632  
      40A      1.544347    41A      1.579676    42A      1.619194  
      43A      1.773066    44A      2.092306    45A      2.179948  
      46A      2.194206    47A      2.297958    48A      2.322711  
      49A      2.489499    50A      2.510063    51A      2.578649  
      52A      2.805915    53A      2.948656    54A      3.054185  
      55A      3.108465    56A      3.114079    57A      3.145554  
      58A      3.218148    59A      3.241337    60A      3.312212  
      61A      3.312783    62A      3.341751    63A      3.382011  
      64A      3.499843    65A      3.611765    66A      3.632877  
      67A      3.698672    68A      3.704558    69A      3.741138  
      70A      3.760391    71A      3.814070    72A      3.835386  
      73A      3.902814    74A      4.011595    75A      4.029176  
      76A      4.116908    77A      4.159453    78A      4.166556  
      79A      4.245485    80A      4.254470    81A      4.282948  
      82A      4.396261    83A      4.432947    84A      4.463626  
      85A      4.553733    86A      4.579460    87A      4.708120  
      88A      4.781102    89A      4.990937    90A      5.029572  
      91A      5.048575    92A      5.199767    93A      5.262592  
      94A      5.309518    95A      5.363392    96A      5.436700  
      97A      5.538278    98A      5.541602    99A      5.557420  
     100A      5.779278   101A      5.943385   102A      6.187287  
     103A      6.205065   104A      6.241603   105A      6.412768  
     106A      6.628511   107A      6.992345   108A      7.126437  
     109A      7.170736   110A      7.237180   111A      7.349174  
     112A      7.425625   113A      7.593702   114A      7.902484  
     115A     12.112994   116A     13.674044  

    Final Occupation by Irrep:
              A 
    DOCC [     9 ]

  @RHF Final Energy:  -115.08896841568890

   => Energetics <=

    Nuclear Repulsion Energy =             40.2497143491261369
    One-Electron Energy =                -236.7886263431597627
    Two-Electron Energy =                  81.4499435783447439
    Total Energy =                       -115.0889684156888961

Computation Completed


Properties will be evaluated at   0.000000,   0.000000,   0.000000 [a0]

Properties computed using the SCF density matrix

  Nuclear Dipole Moment: [e a0]
     X:    -2.1644      Y:    -0.8109      Z:    -0.0000

  Electronic Dipole Moment: [e a0]
     X:     1.7680      Y:     0.2223      Z:     0.0000

  Dipole Moment: [e a0]
     X:    -0.3965      Y:    -0.5886      Z:    -0.0000     Total:     0.7097

  Dipole Moment: [D]
     X:    -1.0078      Y:    -1.4961      Z:    -0.0000     Total:     1.8039


*** tstop() called on n070 at Wed Sep 21 16:23:31 2022
Module time:
	user time   =       4.31 seconds =       0.07 minutes
	system time =       0.08 seconds =       0.00 minutes
	total time  =          5 seconds =       0.08 minutes
Total time:
	user time   =       4.31 seconds =       0.07 minutes
	system time =       0.08 seconds =       0.00 minutes
	total time  =          5 seconds =       0.08 minutes
 MINTS: Wrapper to libmints.
   by Justin Turney

   Calculation information:
      Number of threads:                 1
      Number of atoms:                   6
      Number of AO shells:              44
      Number of SO shells:              44
      Number of primitives:             84
      Number of atomic orbitals:       130
      Number of basis functions:       116

      Number of irreps:                  1
      Integral cutoff                 0.00e+00
      Number of functions per irrep: [ 116 ]

 OEINTS: Overlap, kinetic, potential, dipole, and quadrupole integrals
         stored in file 35.

      Computing two-electron integrals...done
      Computed 22873733 non-zero two-electron integrals.
        Stored in file 33.


*** tstart() called on n070
*** at Wed Sep 21 16:23:32 2022


	Wfn Parameters:
	--------------------
	Wavefunction         = CCSD_T
	Number of irreps     = 1
	Number of MOs        = 116
	Number of active MOs = 114
	AO-Basis             = NONE
	Semicanonical        = false
	Reference            = RHF
	Print Level          = 1

	IRREP	# MOs	# FZDC	# DOCC	# SOCC	# VIRT	# FZVR
	-----	-----	------	------	------	------	------
	 A	   116	    2	    7	    0	    107	    0
	Transforming integrals...
	IWL integrals will be deleted.
	(OO|OO)...
	Presorting SO-basis two-electron integrals.
	Sorting File: SO Ints (nn|nn) nbuckets = 1
	Transforming the one-electron integrals and constructing Fock matrices
	Starting first half-transformation.
	Sorting half-transformed integrals.
	First half integral transformation complete.
	Starting second half-transformation.
	Two-electron integral transformation complete.
	(OO|OV)...
	Starting second half-transformation.
	Two-electron integral transformation complete.
	(OO|VV)...
	Starting second half-transformation.
	Two-electron integral transformation complete.
	(OV|OO)...
	Starting first half-transformation.
	Sorting half-transformed integrals.
	First half integral transformation complete.
	Starting second half-transformation.
	Two-electron integral transformation complete.
	(OV|OV)...
	Starting second half-transformation.
	Two-electron integral transformation complete.
	(OV|VV)...
	Starting second half-transformation.
	Two-electron integral transformation complete.
	(VV|OO)...
	Starting first half-transformation.
	Sorting half-transformed integrals.
	First half integral transformation complete.
	Starting second half-transformation.
	Two-electron integral transformation complete.
	(VV|OV)...
	Starting second half-transformation.
	Two-electron integral transformation complete.
	(VV|VV)...
	Starting second half-transformation.
	Two-electron integral transformation complete.
	Frozen core energy     =   -106.46288656349627

	Size of irrep 0 of <ab|cd> integrals:    131.080 (MW) /   1048.637 (MB)
	Total:                                   131.080 (MW) /   1048.637 (MB)

	Size of irrep 0 of <ia|bc> integrals:      8.575 (MW) /     68.602 (MB)
	Total:                                     8.575 (MW) /     68.602 (MB)

	Size of irrep 0 of tijab amplitudes:       0.561 (MW) /      4.488 (MB)
	Total:                                     0.561 (MW) /      4.488 (MB)

	Nuclear Rep. energy          =     40.24971434912614
	SCF energy                   =   -115.08896841568890
	One-electron energy          =    -87.50847806498332
	Two-electron energy          =     38.63268186366431
	Reference energy             =   -115.08896841568915

*** tstop() called on n070 at Wed Sep 21 16:23:43 2022
Module time:
	user time   =       7.70 seconds =       0.13 minutes
	system time =       3.09 seconds =       0.05 minutes
	total time  =         11 seconds =       0.18 minutes
Total time:
	user time   =      13.59 seconds =       0.23 minutes
	system time =       3.37 seconds =       0.06 minutes
	total time  =         17 seconds =       0.28 minutes
            **************************
            *                        *
            *        CCENERGY        *
            *                        *
            **************************

    Nuclear Rep. energy (wfn)     =   40.249714349126137
    SCF energy          (wfn)     = -115.088968415688896
    Reference energy    (file100) = -115.088968415689152

    Input parameters:
    -----------------
    Wave function   =     CCSD_T
    Reference wfn   =     RHF
    Brueckner       =     No
    Memory (Mbytes) =     14000.0
    Maxiter         =    300
    R_Convergence   =     1.0e-08
    E_Convergence   =     1.0e-10
    Restart         =     Yes
    DIIS            =     Yes
    AO Basis        =     NONE
    ABCD            =     NEW
    Cache Level     =     2
    Cache Type      =     LOW
    Print Level     =     1
    Num. of threads =     1
    # Amps to Print =     10
    Print MP2 Amps? =     No
    Analyze T2 Amps =     No
    Print Pair Ener =     No
    Local CC        =     No
    SCS-MP2         =     False
    SCSN-MP2        =     False
    SCS-CCSD        =     False

MP2 correlation energy -0.4284558991798645
                Solving CC Amplitude Equations
                ------------------------------
  Iter             Energy              RMS        T1Diag      D1Diag    New D1Diag    D2Diag
  ----     ---------------------    ---------   ----------  ----------  ----------   --------
     0        -0.428455899179865    0.000e+00    0.000000    0.000000    0.000000    0.128723
     1        -0.435700357430802    4.792e-02    0.007325    0.014893    0.014893    0.130025
     2        -0.445553605719819    1.580e-02    0.007438    0.014829    0.014829    0.135872
     3        -0.447034584621234    5.553e-03    0.008349    0.016966    0.016966    0.137333
     4        -0.446942492373869    1.226e-03    0.008410    0.017125    0.017125    0.137577
     5        -0.446985941953819    4.492e-04    0.008449    0.017276    0.017276    0.137684
     6        -0.446993481503683    1.295e-04    0.008461    0.017335    0.017335    0.137693
     7        -0.446990956571401    4.805e-05    0.008464    0.017353    0.017353    0.137690
     8        -0.446990986858694    1.768e-05    0.008465    0.017363    0.017363    0.137690
     9        -0.446991066413532    4.994e-06    0.008466    0.017365    0.017365    0.137690
    10        -0.446990813763884    1.583e-06    0.008466    0.017365    0.017365    0.137690
    11        -0.446990879759479    4.930e-07    0.008466    0.017365    0.017365    0.137690
    12        -0.446990864762420    1.214e-07    0.008466    0.017365    0.017365    0.137690
    13        -0.446990868287683    4.400e-08    0.008466    0.017365    0.017365    0.137690
    14        -0.446990869514470    1.245e-08    0.008466    0.017365    0.017365    0.137690
    15        -0.446990869552530    5.182e-09    0.008466    0.017365    0.017365    0.137690
    16        -0.446990869575797    1.592e-09    0.008466    0.017365    0.017365    0.137690

    Iterations converged.


    Largest TIA Amplitudes:
              3   6        -0.0081175002
              3  14         0.0075812749
              6  14        -0.0067952678
              3   9         0.0067266756
              4   7         0.0059943515
              5   8         0.0058884735
              4   3        -0.0057565658
              6   6         0.0054966127
              3   2         0.0054350922
              4   5        -0.0051362357

    Largest TIjAb Amplitudes:
      3   3   9   9        -0.0232455284
      4   4   7   7        -0.0221843032
      6   6  14  14        -0.0210911454
      5   5  12  12        -0.0203557824
      2   2   7   7        -0.0188817054
      4   4   8   8        -0.0156859474
      3   3   2   9        -0.0152074297
      3   3   9   2        -0.0152074297
      3   3  14  14        -0.0151649327
      3   6   9   9        -0.0150520539

    SCF energy       (wfn)                    = -115.088968415688896
    Reference energy (file100)                = -115.088968415689152

    Opposite-spin MP2 correlation energy      =   -0.330240114242816
    Same-spin MP2 correlation energy          =   -0.098215784937048
    Singles MP2 correlation energy            =   -0.000000000000000
    MP2 correlation energy                    =   -0.428455899179865
      * MP2 total energy                      = -115.517424314869018

    Opposite-spin CCSD correlation energy     =   -0.357840404303062
    Same-spin CCSD correlation energy         =   -0.089150465272735
    Singles CCSD correlation energy           =    0.000000000000000
    CCSD correlation energy                   =   -0.446990869575797
      * CCSD total energy                     = -115.535959285264951

            **************************
            *                        *
            *        CCTRIPLES       *
            *                        *
            **************************


    Wave function   =    CCSD_T
    Reference wfn   =      RHF

    Nuclear Rep. energy (wfn)                =   40.249714349126137
    SCF energy          (wfn)                = -115.088968415688896
    Reference energy    (file100)            = -115.088968415689152
    CCSD energy         (file100)            =   -0.446990869575797
    Total CCSD energy   (file100)            = -115.535959285264951

    Number of ijk index combinations:               84
    Memory available in words        :      1750000000
    ~Words needed per explicit thread:         4900172
    Number of threads for explicit ijk threading:    1

    MKL num_threads set to 1 for explicit threading.

    (T) energy                                =   -0.014815288275325
      * CCSD(T) total energy                  = -115.550774573540266

Giraffe The Energy is -115.550774573540 

    Psi4 stopped on: Wednesday, 21 September 2022 04:24PM
    Psi4 wall time for execution: 0:00:49.47

*** Psi4 exiting successfully. Buy a developer a beer!
