
    -----------------------------------------------------------------------
          Psi4: An Open-Source Ab Initio Electronic Structure Package
                               Psi4 1.4a2.dev629 

                         Git: Rev {master} 2938fc2 dirty


    D. G. A. Smith, L. A. Burns, A. C. Simmonett, R. M. Parrish,
    M. C. Schieber, R. Galvelis, P. Kraus, H. Kruse, R. Di Remigio,
    A. Alenaizan, A. M. James, S. Lehtola, J. P. Misiewicz, M. Scheurer,
    R. A. Shaw, J. B. Schriber, Y. Xie, Z. L. Glick, D. A. Sirianni,
    J. S. O'Brien, J. M. Waldrop, A. Kumar, E. G. Hohenstein,
    B. P. Pritchard, B. R. Brooks, H. F. Schaefer III, A. Yu. Sokolov,
    K. Patkowski, A. E. DePrince III, U. Bozkaya, R. A. King,
    F. A. Evangelista, J. M. Turney, T. D. Crawford, C. D. Sherrill,
    J. Chem. Phys. 152(18) 184108 (2020). https://doi.org/10.1063/5.0006002

                            Additional Code Authors
    E. T. Seidl, C. L. Janssen, E. F. Valeev, M. L. Leininger,
    J. F. Gonthier, R. M. Richard, H. R. McAlexander, M. Saitow, X. Wang,
    P. Verma, and M. H. Lechner

             Previous Authors, Complete List of Code Contributors,
                       and Citations for Specific Modules
    https://github.com/psi4/psi4/blob/master/codemeta.json
    https://github.com/psi4/psi4/graphs/contributors
    http://psicode.org/psi4manual/master/introduction.html#citing-psifour

    -----------------------------------------------------------------------


    Psi4 started on: Friday, 18 September 2020 06:15PM

    Process ID: 18628
    Host:       n008
    PSIDATADIR: /opt/psi/4/master/share/psi4
    Memory:     500.0 MiB
    Threads:    1
    
  ==> Input File <==

--------------------------------------------------------------------------
# o-Benzyne preliminary computations

memory 14 gb

molecule {
  0 1
  C   -1.3716540623   -0.0265515017    0.0000041252
  O    1.3002576484    0.1200757720    0.0000035598
  H   -2.0683729729    1.9025341581   -0.0009184808
  H   -2.1065740424   -0.9744715117    1.6772129024
  H   -2.1064958244   -0.9759848773   -1.6763826738
  H    1.9459750137   -1.5707404994   -0.0000124228
  units bohr
}

set {
  basis=cc-pVTZ
  reference rhf
  e_convergence 10 
  d_convergence 10
  r_convergence 8
  maxiter 300
}

energy('ccsd(t)')
--------------------------------------------------------------------------

  Memory set to  13.039 GiB by Python driver.

Scratch directory: /tmp/

*** tstart() called on n008
*** at Fri Sep 18 18:15:45 2020

   => Loading Basis Set <=

    Name: CC-PVTZ
    Role: ORBITAL
    Keyword: BASIS
    atoms 1   entry C          line   186 file /opt/psi/4/master/share/psi4/basis/cc-pvtz.gbs 
    atoms 2   entry O          line   262 file /opt/psi/4/master/share/psi4/basis/cc-pvtz.gbs 
    atoms 3-6 entry H          line    23 file /opt/psi/4/master/share/psi4/basis/cc-pvtz.gbs 


         ---------------------------------------------------------
                                   SCF
               by Justin Turney, Rob Parrish, Andy Simmonett
                          and Daniel G. A. Smith
                              RHF Reference
                        1 Threads,  13351 MiB Core
         ---------------------------------------------------------

  ==> Geometry <==

    Molecular point group: c1
    Full point group: C1

    Geometry (in Bohr), charge = 0, multiplicity = 1:

       Center              X                  Y                   Z               Mass       
    ------------   -----------------  -----------------  -----------------  -----------------
         C           -1.370663258993    -0.025635217401     0.000003969755    12.000000000000
         O            1.301248451707     0.120992056299     0.000003404355    15.994914619570
         H           -2.067382169593     1.903450442399    -0.000918636245     1.007825032230
         H           -2.105583239093    -0.973555227401     1.677212746955     1.007825032230
         H           -2.105505021093    -0.975068593001    -1.676382829245     1.007825032230
         H            1.946965817007    -1.569824215101    -0.000012578245     1.007825032230

  Running in c1 symmetry.

  Rotational constants: A =      4.31296  B =      0.83196  C =      0.80285 [cm^-1]
  Rotational constants: A = 129299.28342  B =  24941.43799  C =  24068.86530 [MHz]
  Nuclear repulsion =   40.429088852549782

  Charge       = 0
  Multiplicity = 1
  Electrons    = 18
  Nalpha       = 9
  Nbeta        = 9

  ==> Algorithm <==

  SCF Algorithm Type is PK.
  DIIS enabled.
  MOM disabled.
  Fractional occupation disabled.
  Guess Type is SAD.
  Energy threshold   = 1.00e-10
  Density threshold  = 1.00e-10
  Integral threshold = 0.00e+00

  ==> Primary Basis <==

  Basis Set: CC-PVTZ
    Blend: CC-PVTZ
    Number of shells: 44
    Number of basis function: 116
    Number of Cartesian functions: 130
    Spherical Harmonics?: true
    Max angular momentum: 3

  ==> Integral Setup <==

  Using in-core PK algorithm.
   Calculation information:
      Number of atoms:                   6
      Number of AO shells:              44
      Number of primitives:             84
      Number of atomic orbitals:       130
      Number of basis functions:       116

      Integral cutoff                 1.00e-12
      Number of threads:                 1

  Performing in-core PK
  Using 46056582 doubles for integral storage.
  We computed 490499 shell quartets total.
  Whereas there are 490545 unique shell quartets.

  ==> DiskJK: Disk-Based J/K Matrices <==

    J tasked:                  Yes
    K tasked:                  Yes
    wK tasked:                  No
    Memory [MiB]:            10013
    Schwarz Cutoff:          1E-12

    OpenMP threads:              1

  Minimum eigenvalue in the overlap matrix is 1.8305520636E-03.
  Reciprocal condition number of the overlap matrix is 2.7604577687E-04.
    Using symmetric orthogonalization.

  ==> Pre-Iterations <==

  SCF Guess: Superposition of Atomic Densities via on-the-fly atomic UHF (no occupation information).

   -------------------------
    Irrep   Nso     Nmo    
   -------------------------
     A        116     116 
   -------------------------
    Total     116     116
   -------------------------

  ==> Iterations <==

                        Total Energy        Delta E     RMS |[F,P]|

   @RHF iter SAD:  -114.42839744307189   -1.14428e+02   0.00000e+00 
   @RHF iter   1:  -115.01462835705431   -5.86231e-01   3.41894e-03 DIIS
   @RHF iter   2:  -115.07171236098787   -5.70840e-02   1.94992e-03 DIIS
   @RHF iter   3:  -115.08846771992189   -1.67554e-02   3.01024e-04 DIIS
   @RHF iter   4:  -115.08934965806476   -8.81938e-04   8.77329e-05 DIIS
   @RHF iter   5:  -115.08942278517453   -7.31271e-05   2.13322e-05 DIIS
   @RHF iter   6:  -115.08942760325360   -4.81808e-06   4.71552e-06 DIIS
   @RHF iter   7:  -115.08942796810030   -3.64847e-07   1.09505e-06 DIIS
   @RHF iter   8:  -115.08942798956791   -2.14676e-08   2.26594e-07 DIIS
   @RHF iter   9:  -115.08942799047762   -9.09708e-10   4.20788e-08 DIIS
   @RHF iter  10:  -115.08942799050801   -3.03970e-11   1.07708e-08 DIIS
   @RHF iter  11:  -115.08942799050973   -1.71951e-12   2.18586e-09 DIIS
   @RHF iter  12:  -115.08942799051000   -2.70006e-13   3.90183e-10 DIIS
   @RHF iter  13:  -115.08942799050999    1.42109e-14   7.20390e-11 DIIS
  Energy and wave function converged.


  ==> Post-Iterations <==

    Orbital Energies [Eh]
    ---------------------

    Doubly Occupied:                                                      

       1A    -20.552145     2A    -11.267892     3A     -1.355845  
       4A     -0.924326     5A     -0.689499     6A     -0.619019  
       7A     -0.591411     8A     -0.501771     9A     -0.449023  

    Virtual:                                                              

      10A      0.138660    11A      0.178867    12A      0.220602  
      13A      0.224203    14A      0.291131    15A      0.386048  
      16A      0.404755    17A      0.546635    18A      0.584669  
      19A      0.624348    20A      0.625705    21A      0.639908  
      22A      0.691059    23A      0.704603    24A      0.722125  
      25A      0.833119    26A      0.866059    27A      0.871979  
      28A      0.928359    29A      1.069914    30A      1.101687  
      31A      1.178148    32A      1.190300    33A      1.263802  
      34A      1.270974    35A      1.284022    36A      1.365045  
      37A      1.447069    38A      1.492307    39A      1.524011  
      40A      1.546419    41A      1.585538    42A      1.621855  
      43A      1.778311    44A      2.093182    45A      2.180363  
      46A      2.201054    47A      2.301734    48A      2.323409  
      49A      2.488506    50A      2.510640    51A      2.575704  
      52A      2.805691    53A      2.952139    54A      3.056980  
      55A      3.111085    56A      3.118539    57A      3.143891  
      58A      3.227056    59A      3.244707    60A      3.315045  
      61A      3.316578    62A      3.343696    63A      3.386311  
      64A      3.501158    65A      3.615849    66A      3.635737  
      67A      3.702367    68A      3.710480    69A      3.748671  
      70A      3.761478    71A      3.815886    72A      3.843680  
      73A      3.907738    74A      4.011250    75A      4.028232  
      76A      4.119418    77A      4.162013    78A      4.174417  
      79A      4.250142    80A      4.257614    81A      4.292062  
      82A      4.403954    83A      4.442159    84A      4.469809  
      85A      4.563204    86A      4.584087    87A      4.715409  
      88A      4.787887    89A      4.999467    90A      5.038665  
      91A      5.060563    92A      5.203113    93A      5.276324  
      94A      5.318163    95A      5.376794    96A      5.442560  
      97A      5.550978    98A      5.552991    99A      5.569695  
     100A      5.794384   101A      5.945261   102A      6.193494  
     103A      6.211674   104A      6.251016   105A      6.439743  
     106A      6.646602   107A      7.001326   108A      7.126775  
     109A      7.187851   110A      7.235464   111A      7.357250  
     112A      7.435313   113A      7.595293   114A      7.917778  
     115A     12.161822   116A     13.765390  

    Final Occupation by Irrep:
              A 
    DOCC [     9 ]

  @RHF Final Energy:  -115.08942799050999

   => Energetics <=

    Nuclear Repulsion Energy =             40.4290888525497820
    One-Electron Energy =                -237.1351697854781548
    Two-Electron Energy =                  81.6166529424183977
    Total Energy =                       -115.0894279905099893

Computation Completed


Properties will be evaluated at   0.000000,   0.000000,   0.000000 [a0]

Properties computed using the SCF density matrix

  Nuclear Dipole Moment: [e a0]
     X:    -2.1455      Y:    -0.8009      Z:    -0.0001

  Electronic Dipole Moment: [e a0]
     X:     1.7662      Y:     0.2134      Z:     0.0000

  Dipole Moment: [e a0]
     X:    -0.3793      Y:    -0.5875      Z:    -0.0000     Total:     0.6993

  Dipole Moment: [D]
     X:    -0.9640      Y:    -1.4933      Z:    -0.0001     Total:     1.7774


*** tstop() called on n008 at Fri Sep 18 18:15:51 2020
Module time:
	user time   =       6.32 seconds =       0.11 minutes
	system time =       0.08 seconds =       0.00 minutes
	total time  =          6 seconds =       0.10 minutes
Total time:
	user time   =       6.32 seconds =       0.11 minutes
	system time =       0.08 seconds =       0.00 minutes
	total time  =          6 seconds =       0.10 minutes
 MINTS: Wrapper to libmints.
   by Justin Turney

   Calculation information:
      Number of threads:                 1
      Number of atoms:                   6
      Number of AO shells:              44
      Number of SO shells:              44
      Number of primitives:             84
      Number of atomic orbitals:       130
      Number of basis functions:       116

      Number of irreps:                  1
      Integral cutoff                 0.00e+00
      Number of functions per irrep: [ 116 ]

 OEINTS: Overlap, kinetic, potential, dipole, and quadrupole integrals
         stored in file 35.

      Computing two-electron integrals...done
      Computed 22876963 non-zero two-electron integrals.
        Stored in file 33.


*** tstart() called on n008
*** at Fri Sep 18 18:15:55 2020


	Wfn Parameters:
	--------------------
	Wavefunction         = CCSD_T
	Number of irreps     = 1
	Number of MOs        = 116
	Number of active MOs = 116
	AO-Basis             = NONE
	Semicanonical        = false
	Reference            = RHF
	Print Level          = 1

	IRREP	# MOs	# FZDC	# DOCC	# SOCC	# VIRT	# FZVR
	-----	-----	------	------	------	------	------
	 A	   116	    0	    9	    0	    107	    0
	Transforming integrals...
	IWL integrals will be deleted.
	(OO|OO)...
	Presorting SO-basis two-electron integrals.
	Sorting File: SO Ints (nn|nn) nbuckets = 1
	Transforming the one-electron integrals and constructing Fock matrices
	Starting first half-transformation.
	Sorting half-transformed integrals.
	First half integral transformation complete.
	Starting second half-transformation.
	Two-electron integral transformation complete.
	(OO|OV)...
	Starting second half-transformation.
	Two-electron integral transformation complete.
	(OO|VV)...
	Starting second half-transformation.
	Two-electron integral transformation complete.
	(OV|OO)...
	Starting first half-transformation.
	Sorting half-transformed integrals.
	First half integral transformation complete.
	Starting second half-transformation.
	Two-electron integral transformation complete.
	(OV|OV)...
	Starting second half-transformation.
	Two-electron integral transformation complete.
	(OV|VV)...
	Starting second half-transformation.
	Two-electron integral transformation complete.
	(VV|OO)...
	Starting first half-transformation.
	Sorting half-transformed integrals.
	First half integral transformation complete.
	Starting second half-transformation.
	Two-electron integral transformation complete.
	(VV|OV)...
	Starting second half-transformation.
	Two-electron integral transformation complete.
	(VV|VV)...
	Starting second half-transformation.
	Two-electron integral transformation complete.
	Frozen core energy     =      0.00000000000000

	Size of irrep 0 of <ab|cd> integrals:    131.080 (MW) /   1048.637 (MB)
	Total:                                   131.080 (MW) /   1048.637 (MB)

	Size of irrep 0 of <ia|bc> integrals:     11.025 (MW) /     88.203 (MB)
	Total:                                    11.025 (MW) /     88.203 (MB)

	Size of irrep 0 of tijab amplitudes:       0.927 (MW) /      7.419 (MB)
	Total:                                     0.927 (MW) /      7.419 (MB)

	Nuclear Rep. energy          =     40.42908885254978
	SCF energy                   =   -115.08942799050999
	One-electron energy          =   -237.13516981741770
	Two-electron energy          =     81.61665297435792
	Reference energy             =   -115.08942799051000

*** tstop() called on n008 at Fri Sep 18 18:16:26 2020
Module time:
	user time   =      24.62 seconds =       0.41 minutes
	system time =       5.96 seconds =       0.10 minutes
	total time  =         31 seconds =       0.52 minutes
Total time:
	user time   =      34.34 seconds =       0.57 minutes
	system time =       6.41 seconds =       0.11 minutes
	total time  =         41 seconds =       0.68 minutes
            **************************
            *                        *
            *        CCENERGY        *
            *                        *
            **************************

    Nuclear Rep. energy (wfn)     =   40.429088852549782
    SCF energy          (wfn)     = -115.089427990509989
    Reference energy    (file100) = -115.089427990510003

    Input parameters:
    -----------------
    Wave function   =     CCSD_T
    Reference wfn   =     RHF
    Brueckner       =     No
    Memory (Mbytes) =     14000.0
    Maxiter         =    300
    R_Convergence   =     1.0e-08
    E_Convergence   =     1.0e-10
    Restart         =     Yes
    DIIS            =     Yes
    AO Basis        =     NONE
    ABCD            =     NEW
    Cache Level     =     2
    Cache Type      =     LOW
    Print Level     =     1
    Num. of threads =     1
    # Amps to Print =     10
    Print MP2 Amps? =     No
    Analyze T2 Amps =     No
    Print Pair Ener =     No
    Local CC        =     No
    SCS-MP2         =     False
    SCSN-MP2        =     False
    SCS-CCSD        =     False

MP2 correlation energy -0.4574132144145054
                Solving CC Amplitude Equations
                ------------------------------
  Iter             Energy              RMS        T1Diag      D1Diag    New D1Diag    D2Diag
  ----     ---------------------    ---------   ----------  ----------  ----------   --------
     0        -0.457413214414505    0.000e+00    0.000000    0.000000    0.000000    0.128028
     1        -0.464945332985526    4.761e-02    0.006481    0.014777    0.014777    0.129156
     2        -0.474895051205379    1.561e-02    0.006590    0.014737    0.014737    0.134853
     3        -0.476365684620677    5.472e-03    0.007384    0.016802    0.016802    0.136281
     4        -0.476262472505566    1.202e-03    0.007437    0.016943    0.016943    0.136504
     5        -0.476302174694136    4.339e-04    0.007469    0.017075    0.017075    0.136599
     6        -0.476310747803723    1.223e-04    0.007478    0.017125    0.017125    0.136606
     7        -0.476308577855353    4.531e-05    0.007480    0.017140    0.017140    0.136603
     8        -0.476308441692999    1.683e-05    0.007481    0.017148    0.017148    0.136603
     9        -0.476308549535925    4.887e-06    0.007481    0.017150    0.017150    0.136603
    10        -0.476308304357359    1.559e-06    0.007481    0.017150    0.017150    0.136603
    11        -0.476308371539192    4.790e-07    0.007481    0.017150    0.017150    0.136603
    12        -0.476308357201903    1.170e-07    0.007481    0.017150    0.017150    0.136603
    13        -0.476308360258226    4.186e-08    0.007481    0.017150    0.017150    0.136603
    14        -0.476308361409980    1.193e-08    0.007481    0.017150    0.017150    0.136603
    15        -0.476308361454626    4.932e-09    0.007481    0.017150    0.017150    0.136603
    16        -0.476308361483781    1.539e-09    0.007481    0.017150    0.017150    0.136603

    Iterations converged.


    Largest TIA Amplitudes:
              5   6        -0.0080130046
              5  14         0.0076159069
              5   9         0.0070422482
              8  14        -0.0063429620
              6   7         0.0059743383
              6   3        -0.0059321048
              7   8         0.0057785073
              5   2         0.0057097069
              8   6         0.0053379036
              6   5        -0.0050941595

    Largest TIjAb Amplitudes:
      5   5   9   9        -0.0230127310
      8   8  14  14        -0.0211510151
      6   6   7   7        -0.0210156993
      7   7  12  12        -0.0205171699
      4   4   7   7        -0.0190811536
      6   6   8   8        -0.0163329694
      5   5  14  14        -0.0151921589
      7   7   7   7        -0.0151348378
      5   5   2   9        -0.0149398777
      5   5   9   2        -0.0149398777

    SCF energy       (wfn)                    = -115.089427990509989
    Reference energy (file100)                = -115.089427990510003

    Opposite-spin MP2 correlation energy      =   -0.353836649575513
    Same-spin MP2 correlation energy          =   -0.103576564838993
    Singles MP2 correlation energy            =   -0.000000000000000
    MP2 correlation energy                    =   -0.457413214414505
      * MP2 total energy                      = -115.546841204924505

    Opposite-spin CCSD correlation energy     =   -0.381792877701972
    Same-spin CCSD correlation energy         =   -0.094515483781810
    Singles CCSD correlation energy           =    0.000000000000000
    CCSD correlation energy                   =   -0.476308361483781
      * CCSD total energy                     = -115.565736351993792

            **************************
            *                        *
            *        CCTRIPLES       *
            *                        *
            **************************


    Wave function   =    CCSD_T
    Reference wfn   =      RHF

    Nuclear Rep. energy (wfn)                =   40.429088852549782
    SCF energy          (wfn)                = -115.089427990509989
    Reference energy    (file100)            = -115.089427990510003
    CCSD energy         (file100)            =   -0.476308361483781
    Total CCSD energy   (file100)            = -115.565736351993792

    Number of ijk index combinations:              165
    Memory available in words        :      1750000000
    ~Words needed per explicit thread:         4900172
    Number of threads for explicit ijk threading:    1

    MKL num_threads set to 1 for explicit threading.

    (T) energy                                =   -0.015043319749355
      * CCSD(T) total energy                  = -115.580779671743144


    Psi4 stopped on: Friday, 18 September 2020 06:18PM
    Psi4 wall time for execution: 0:02:57.94

*** Psi4 exiting successfully. Buy a developer a beer!
