
 Primary working directories    : /tmp/333988.49.gen4.q
 Secondary working directories  : /tmp/333988.49.gen4.q
 Wavefunction directory         : /home/vulcan/mel64643/wfu/
 Main file repository           : /tmp/333988.49.gen4.q/

 ARCHNAME  : Linux/x86_64
 FC        : /opt/intel/compilers_and_libraries_2016.1.150/linux/bin/intel64/ifort
 FCVERSION : 16.0.1
 BLASLIB   : -mkl
 id        : ccgc

 Nodes     nprocs
 n066         3
 Number of processes for MPI-2 version of Molpro:   nprocs(total)=    4   nprocs(compute)=    3   nprocs(helper)=    1
 ga_uses_ma=false, calling ma_init with nominal heap.
 GA-space will be limited to   8.0 MW (determined by -G option)

 Using customized tuning parameters: mindgm=10; mindgv=16; mindgc=4; mindgr=1; noblas=0; mincuda=1000; minvec=7
 default implementation of scratch files=sf  

 ***,Optimization of min3
 memory,1000,m
 gthresh,energy=1.0d-10,orbital=1.0d-10,oneint=1.0d-16,twoint=1.0d-16,optgrad=1.0d-6,compress=1.0d-13
 geomtyp=xyz
 
  bohr
  geometry = {
  12
  arbitrary comment
  C         -3.1007899825          1.5858380015          0.0198741413
  C         -0.8640954705         -0.0709031468         -0.6561609928
  C         -1.1184887655         -2.7813314862          0.2468991503
  O          1.3114933938          1.1049446750          0.5889930361
  O          3.4492874922          0.1200638652         -0.2518219057
  H         -4.8126450454          0.8437247999         -0.8808802133
  H         -2.8049128332          3.5310726911         -0.6214494691
  H         -3.3940651044          1.5971760054          2.0727644404
  H         -0.4599735995         -0.0044795849         -2.6773789917
  H         -2.6824183092         -3.6840612604         -0.7082818037
  H         -1.4681049620         -2.8236949434          2.2584788672
  H          0.5919383369         -3.8227444644         -0.1580307071
 }
 
 basis=cc-pvtz
 {rhf;maxit,200}
 {uccsd(t);maxit,200}

 Variables initialized (661), CPU time= 0.01 sec
 Commands  initialized (458), CPU time= 0.01 sec, 486 directives.
 Default parameters read. Elapsed time= 0.06 sec

 Checking input...
 Passed
1


                                         ***  PROGRAM SYSTEM MOLPRO  ***
                         Copyright, University College Cardiff Consultants Limited, 2008

                                    Version 2010.1 linked May 16 2016 07:17:05


 **********************************************************************************************************************************
 LABEL *   Optimization of min3                                                          
 Linux-4.4.3/n066(x86_64) 64 bit mpp version                                             DATE: 15-Jul-20          TIME: 18:43:08  
 **********************************************************************************************************************************

 SHA1:             9e8077add272b0f3cad6f7df79ec5211205f459d
 **********************************************************************************************************************************

 THRESHOLDS:

 ZERO    =  1.00D-12  ONEINT  =  1.00D-16  TWOINT  =  1.00D-16  PREFAC  =  1.00D-14  LOCALI  =  1.00D-09  EORDER  =  1.00D-04
 ENERGY  =  1.00D-10  ETEST   =  0.00D+00  EDENS   =  0.00D+00  THRDEDEF=  1.00D-06  GRADIENT=  1.00D-02  STEP    =  1.00D-03
 ORBITAL =  1.00D-10  CIVEC   =  1.00D-05  COEFF   =  1.00D-04  PRINTCI =  5.00D-02  PUNCHCI =  9.90D+01  OPTGRAD =  1.00D-06
 OPTENERG=  1.00D-06  OPTSTEP =  3.00D-04  THRGRAD =  1.00D-10  COMPRESS=  1.00D-13  VARMIN  =  1.00D-07  VARMAX  =  1.00D-03
 THRDOUB =  0.00D+00  THRDIV  =  1.00D-05  THRRED  =  1.00D-07  THRPSP  =  1.00D+00  THRDC   =  1.00D-10  THRCS   =  1.00D-10
 THRNRM  =  1.00D-08  THREQ   =  0.00D+00  THRDE   =  1.00D+00  THRREF  =  1.00D-05  SPARFAC =  1.00D+00  THRDLP  =  1.00D-07
 THRDIA  =  1.00D-10  THRDLS  =  1.00D-07  THRGPS  =  0.00D+00  THRKEX  =  0.00D+00  THRDIS  =  2.00D-01  THRVAR  =  1.00D-10
 THRLOC  =  1.00D-06  THRGAP  =  1.00D-06  THRLOCT = -1.00D+00  THRGAPT = -1.00D+00  THRORB  =  1.00D-06  THRMLTP =  0.00D+00
 THRCPQCI=  1.00D-10  KEXTA   =  0.00D+00  THRCOARS=  0.00D+00  SYMTOL  =  1.00D-06  GRADTOL =  1.00D-06  THROVL  =  1.00D-08
 THRORTH =  1.00D-08  GRID    =  1.00D-06  GRIDMAX =  1.00D-03  DTMAX   =  0.00D+00

 SETTING GEOMTYP        =    XYZ
 ZUNIT=BOHR
 

 Variable memory set to 1000000000 words,  buffer space   230000 words

 SETTING BASIS          =    CC-PVTZ


 Recomputing integrals since basis changed


 Using spherical harmonics

 Library entry C      S cc-pVTZ              selected for orbital group  1
 Library entry C      P cc-pVTZ              selected for orbital group  1
 Library entry C      D cc-pVTZ              selected for orbital group  1
 Library entry C      F cc-pVTZ              selected for orbital group  1
 Library entry O      S cc-pVTZ              selected for orbital group  2
 Library entry O      P cc-pVTZ              selected for orbital group  2
 Library entry O      D cc-pVTZ              selected for orbital group  2
 Library entry O      F cc-pVTZ              selected for orbital group  2
 Library entry H      S cc-pVTZ              selected for orbital group  3
 Library entry H      P cc-pVTZ              selected for orbital group  3
 Library entry H      D cc-pVTZ              selected for orbital group  3

1PROGRAM * SEWARD (Integral evaluation for generally contracted gaussian basis sets)     Author: Roland Lindh, 1990

 Geometry written to block  1 of record 700


 Point group  C1  



 ATOMIC COORDINATES

 NR  ATOM    CHARGE       X              Y              Z

   1  C       6.00   -3.100789982    1.585838001    0.019874141
   2  C       6.00   -0.864095471   -0.070903147   -0.656160993
   3  C       6.00   -1.118488765   -2.781331486    0.246899150
   4  O       8.00    1.311493394    1.104944675    0.588993036
   5  O       8.00    3.449287492    0.120063865   -0.251821906
   6  H       1.00   -4.812645045    0.843724800   -0.880880213
   7  H       1.00   -2.804912833    3.531072691   -0.621449469
   8  H       1.00   -3.394065104    1.597176005    2.072764440
   9  H       1.00   -0.459973599   -0.004479585   -2.677378992
  10  H       1.00   -2.682418309   -3.684061260   -0.708281804
  11  H       1.00   -1.468104962   -2.823694943    2.258478867
  12  H       1.00    0.591938337   -3.822744464   -0.158030707

 Bond lengths in Bohr (Angstrom)

 1-2  2.864370275  1-6  2.071844147  1-7  2.069487197  1-8  2.073764072  2-3  2.868214663
     ( 1.515759468)     ( 1.096372703)     ( 1.095125459)     ( 1.097388684)     ( 1.517793830)

  2- 4  2.768792799   2- 9  2.062292117   3-10  2.042833160   3-11  2.042175092   3-12  2.043054099
       ( 1.465182046)       ( 1.091317987)       ( 1.081020750)       ( 1.080672515)       ( 1.081137666)

 4-5  2.499424650
     ( 1.322638561)

 Bond angles

  1-2-3  113.76646149   1-2-4  105.17680764   1-2-9  111.45080871   2-1-6  109.59711772

  2- 1- 7  111.03189942   2- 1- 8  110.31819864   2- 3-10  109.77183750   2- 3-11  110.17698929

  2- 3-12  110.18394622   2- 4- 5  110.69790734   3- 2- 4  109.23335538   3- 2- 9  110.87909766

  4-2-9  105.84885424   6-1-7  108.66798182   6-1-8  108.39056072   7-1-8  108.77519187

 10- 3-11  108.68353141  10- 3-12  108.84463608  11- 3-12  109.14623529

 NUCLEAR CHARGE:                   41
 NUMBER OF PRIMITIVE AOS:         354
 NUMBER OF SYMMETRY AOS:          322
 NUMBER OF CONTRACTIONS:          248   ( 248A   )
 NUMBER OF CORE ORBITALS:           5   (   5A   )
 NUMBER OF VALENCE ORBITALS:       27   (  27A   )


 NUCLEAR REPULSION ENERGY  186.68314666


 Eigenvalues of metric

         1 0.807E-03 0.954E-03 0.109E-02 0.124E-02 0.135E-02 0.149E-02 0.157E-02 0.165E-02


 Contracted 2-electron integrals neglected if value below      1.0D-16
 AO integral compression algorithm  1   Integral accuracy      1.0D-16

     3373.269 MB (compressed) written to integral file ( 82.1%)

     Node minimum: 1074.790 MB, node maximum: 1154.744 MB


 NUMBER OF SORTED TWO-ELECTRON INTEGRALS:  158903334.     BUFFER LENGTH:  32768
 NUMBER OF SEGMENTS:  10  SEGMENT LENGTH:   15997437      RECORD LENGTH: 524288

 Memory used in sort:      16.55 MW

 SORT1 READ   513521382. AND WROTE   152655938. INTEGRALS IN    442 RECORDS. CPU TIME:    17.92 SEC, REAL TIME:    19.28 SEC
 SORT2 READ   459452076. AND WROTE   476679126. INTEGRALS IN  13089 RECORDS. CPU TIME:     1.55 SEC, REAL TIME:    12.44 SEC

 Node minimum:   158882750.  Node maximum:   158903334. integrals

 OPERATOR DM      FOR CENTER  0  COORDINATES:    0.000000    0.000000    0.000000


 **********************************************************************************************************************************
 DATASETS  * FILE   NREC   LENGTH (MB)   RECORD NAMES
              1      18        5.04       500      610      700      900      950      970     1000      129      960     1100   
                                          VAR    BASINP    GEOM    SYMINP    ZMAT    AOBASIS   BASIS     P2S    ABASIS      S 
                                         1400     1410     1200     1210     1080     1600     1650     1700   
                                           T        V       H0       H01     AOSYM     SMH    MOLCAS    OPER   

 PROGRAMS   *        TOTAL       INT
 CPU TIMES  *        26.30     26.21
 REAL TIME  *        39.35 SEC
 DISK USED  *         8.85 GB      
 GA USED    *         0.01 MB       (max)       0.00 MB       (current)
 **********************************************************************************************************************************

1PROGRAM * RHF-SCF (OPEN SHELL)       Authors: W. Meyer, H.-J. Werner


 NUMBER OF ELECTRONS:      21+   20-    SPACE SYMMETRY=1    SPIN SYMMETRY: Doublet 
 CONVERGENCE THRESHOLDS:    1.00E-10 (Density)    1.00E-11 (Energy)
 MAX. NUMBER OF ITERATIONS:      200
 INTERPOLATION TYPE:            DIIS
 INTERPOLATION STEPS:              2 (START)      1 (STEP)
 LEVEL SHIFTS:                 -0.30 (CLOSED)  0.00 (OPEN) 



 Orbital guess generated from atomic densities. Full valence occupancy:   32

 Molecular orbital dump at record        2100.2

 ITERATION    DDIFF          GRAD             ENERGY        2-EL.EN.            DIPOLE MOMENTS         DIIS
    1      0.000D+00      0.000D+00      -267.26083938    559.904275   -1.77479   -0.05875   -0.09827    0
    2      0.000D+00      0.327D-02      -267.33453530    562.750930   -1.01607   -0.43105   -0.35860    1
    3      0.472D-02      0.230D-02      -267.36109433    561.703781   -1.18945   -0.24373   -0.21606    2
    4      0.212D-02      0.547D-03      -267.36932231    561.891726   -0.97771   -0.31853   -0.29686    3
    5      0.927D-03      0.484D-03      -267.37353999    561.934346   -0.92199   -0.32196   -0.30091    4
    6      0.583D-03      0.271D-03      -267.37545827    561.901887   -0.88059   -0.31597   -0.29879    5
    7      0.484D-03      0.133D-03      -267.37579532    561.887844   -0.89034   -0.30467   -0.29070    6
    8      0.258D-03      0.356D-04      -267.37581719    561.885106   -0.88997   -0.30138   -0.28919    7
    9      0.851D-04      0.190D-04      -267.37582829    561.885313   -0.89249   -0.30192   -0.28924    8
   10      0.451D-04      0.824D-05      -267.37583012    561.885236   -0.89366   -0.30130   -0.28895    9
   11      0.200D-04      0.324D-05      -267.37583038    561.885172   -0.89429   -0.30114   -0.28878    9
   12      0.787D-05      0.148D-05      -267.37583044    561.885397   -0.89444   -0.30123   -0.28882    9
   13      0.371D-05      0.527D-06      -267.37583044    561.885449   -0.89445   -0.30129   -0.28885    9
   14      0.149D-05      0.300D-06      -267.37583045    561.885448   -0.89444   -0.30131   -0.28886    9
   15      0.819D-06      0.147D-06      -267.37583045    561.885453   -0.89443   -0.30131   -0.28886    9
   16      0.422D-06      0.742D-07      -267.37583045    561.885456   -0.89443   -0.30132   -0.28886    9
   17      0.172D-06      0.330D-07      -267.37583045    561.885451   -0.89443   -0.30132   -0.28886    9
   18      0.105D-06      0.183D-07      -267.37583045    561.885448   -0.89443   -0.30132   -0.28886    9
   19      0.605D-07      0.101D-07      -267.37583045    561.885449   -0.89443   -0.30132   -0.28886    9
   20      0.385D-07      0.647D-08      -267.37583045    561.885448   -0.89443   -0.30131   -0.28886    9
   21      0.344D-07      0.554D-08      -267.37583045    561.885448   -0.89443   -0.30131   -0.28886    9
   22      0.407D-07      0.462D-08      -267.37583045    561.885448   -0.89443   -0.30131   -0.28886    9
   23      0.564D-07      0.341D-08      -267.37583045    561.885447   -0.89443   -0.30131   -0.28886    9
   24      0.631D-07      0.222D-08      -267.37583045    561.885447   -0.89443   -0.30131   -0.28886    9
   25      0.475D-07      0.917D-09      -267.37583045    561.885447   -0.89443   -0.30131   -0.28886    9
   26      0.120D-07      0.463D-09      -267.37583045    561.885447   -0.89443   -0.30131   -0.28886    9
   27      0.582D-08      0.206D-09      -267.37583045    561.885447   -0.89443   -0.30131   -0.28886    9
   28      0.109D-08      0.898D-10      -267.37583045    561.885447   -0.89443   -0.30131   -0.28886    9
   29      0.283D-09      0.458D-10      -267.37583045    561.885447   -0.89443   -0.30131   -0.28886    9
   30      0.187D-09      0.233D-10      -267.37583045    561.885447   -0.89443   -0.30131   -0.28886    9
   31      0.564D-10      0.179D-10      -267.37583045    561.885447   -0.89443   -0.30131   -0.28886    0

 Final alpha occupancy:  21
 Final beta  occupancy:  20

 !RHF STATE 1.1 Energy               -267.375830447007
 Nuclear energy                       186.68314666
 One-electron energy                 -735.00170056
 Two-electron energy                  280.94272346
 Virial quotient                       -1.00108537
 !RHF STATE 1.1 Dipole moment          -0.89442842    -0.30131448    -0.28885931
 Dipole moment /Debye                  -2.27326138    -0.76581485    -0.73415905

 Orbital energies:

         1.1          2.1          3.1          4.1          5.1          6.1          7.1          8.1          9.1         10.1
    -20.648647   -20.640312   -11.297346   -11.230835   -11.221852    -1.523491    -1.170827    -1.034984    -0.953446    -0.819938

        11.1         12.1         13.1         14.1         15.1         16.1         17.1         18.1         19.1         20.1
     -0.695328    -0.667926    -0.652676    -0.596142    -0.563915    -0.557067    -0.545387    -0.502088    -0.489279    -0.465227

        21.1         22.1         23.1
     -0.562830     0.137714     0.175134


 **********************************************************************************************************************************
 DATASETS  * FILE   NREC   LENGTH (MB)   RECORD NAMES
              1      18        5.04       500      610      700      900      950      970     1000      129      960     1100   
                                          VAR    BASINP    GEOM    SYMINP    ZMAT    AOBASIS   BASIS     P2S    ABASIS      S 
                                         1400     1410     1200     1210     1080     1600     1650     1700   
                                           T        V       H0       H01     AOSYM     SMH    MOLCAS    OPER   

              2       3        2.21       700     1000     2100   
                                         GEOM     BASIS     RHF  

 PROGRAMS   *        TOTAL       RHF       INT
 CPU TIMES  *        75.22     48.92     26.21
 REAL TIME  *        92.00 SEC
 DISK USED  *         8.89 GB      
 SF USED    *         0.25 MB      
 GA USED    *         0.01 MB       (max)       0.00 MB       (current)
 **********************************************************************************************************************************


1PROGRAM * CCSD (Unrestricted open-shell coupled cluster)     Authors: C. Hampel, H.-J. Werner, 1991, M. Deegan, P.J. Knowles, 1992


 Convergence thresholds:  THRVAR = 1.00D-08  THRDEN = 1.00D-10

 CCSD(T)     terms to be evaluated (factor= 1.000)


 Number of core orbitals:           5 (   5 )
 Number of closed-shell orbitals:  15 (  15 )
 Number of active  orbitals:        1 (   1 )
 Number of external orbitals:     227 ( 227 )

 Memory could be reduced to 332.02 Mwords without degradation in triples

 Number of N-1 electron functions:              31
 Number of N-2 electron functions:             465
 Number of singly external CSFs:              7068
 Number of doubly external CSFs:          18353430
 Total number of CSFs:                    18360498

 Molecular orbitals read from record     2100.2  Type=RHF/CANONICAL (state 1.1)

 Integral transformation finished. Total CPU:  37.83 sec, npass=  1  Memory used: 145.25 MW

 Starting RMP2 calculation

 ITER.      SQ.NORM     CORR.ENERGY   TOTAL ENERGY   ENERGY CHANGE        DEN1      VAR(S)    VAR(P)  DIIS     TIME
   1      1.26513121    -0.96751856  -268.34334901    -0.96751856    -0.00323231  0.26D-04  0.11D-02  1  1    43.43
   2      1.26791040    -0.97100361  -268.34683405    -0.00348504    -0.00000666  0.10D-05  0.23D-05  2  2    46.56
   3      1.26799025    -0.97105646  -268.34688691    -0.00005285    -0.00000008  0.54D-07  0.11D-07  3  3    49.88
   4      1.26799197    -0.97105627  -268.34688672     0.00000019    -0.00000000  0.16D-08  0.12D-09  4  4    53.74
   5      1.26799223    -0.97105636  -268.34688681    -0.00000009    -0.00000000  0.19D-10  0.46D-11  5  5    57.74
   6      1.26799228    -0.97105639  -268.34688684    -0.00000003    -0.00000000  0.50D-13  0.56D-13  6  6    62.14
   7      1.26799228    -0.97105639  -268.34688684     0.00000000    -0.00000000  0.15D-14  0.86D-15  6  1    66.96
   8      1.26799228    -0.97105639  -268.34688684     0.00000000    -0.00000000  0.16D-16  0.79D-17  6  2    71.77
   9      1.26799228    -0.97105639  -268.34688684    -0.00000000    -0.00000000  0.32D-18  0.10D-18  6  3    76.58

 Norm of t1 vector:      0.04589863      S-energy:    -0.00446822      T1 diagnostic:  0.00074435
 Norm of t2 vector:      0.51564096      P-energy:    -0.96658817
                                         Alpha-Beta:  -0.73699059
                                         Alpha-Alpha: -0.11898789
                                         Beta-Beta:   -0.11060970

 Spin contamination <S**2-Sz**2-Sz>     0.00145590
  Reference energy                   -267.375830447004
  RHF-RMP2 correlation energy          -0.971056391886
 !RHF-RMP2 energy                    -268.346886838890

 Starting UCCSD calculation

 ITER.      SQ.NORM     CORR.ENERGY   TOTAL ENERGY   ENERGY CHANGE        DEN1      VAR(S)    VAR(P)  DIIS     TIME
   1      1.27956777    -0.97919680  -268.35502724    -0.97919680    -0.02929848  0.65D-02  0.54D-02  1  1   168.77
   2      1.30592010    -1.00578998  -268.38162043    -0.02659319    -0.00362910  0.62D-03  0.96D-03  2  2   251.16
   3      1.32253633    -1.01259776  -268.38842821    -0.00680778    -0.00091183  0.75D-03  0.76D-04  3  3   333.31
   4      1.33377076    -1.01525366  -268.39108411    -0.00265590    -0.00038539  0.31D-03  0.33D-04  4  4   415.49
   5      1.34886083    -1.01725189  -268.39308234    -0.00199823    -0.00011797  0.10D-03  0.90D-05  5  5   498.31
   6      1.36039356    -1.01827477  -268.39410521    -0.00102287    -0.00001816  0.93D-05  0.32D-05  6  6   581.10
   7      1.36409172    -1.01851592  -268.39434637    -0.00024115    -0.00000317  0.16D-05  0.61D-06  6  1   663.62
   8      1.36469711    -1.01855817  -268.39438862    -0.00004225    -0.00000068  0.27D-06  0.15D-06  6  2   746.70
   9      1.36501903    -1.01857674  -268.39440719    -0.00001857    -0.00000015  0.66D-07  0.32D-07  6  4   829.09
  10      1.36500532    -1.01857543  -268.39440588     0.00000131    -0.00000002  0.11D-07  0.43D-08  6  3   911.64
  11      1.36506808    -1.01858054  -268.39441099    -0.00000511    -0.00000000  0.26D-08  0.95D-09  6  5   994.76
  12      1.36506057    -1.01857805  -268.39440849     0.00000249    -0.00000000  0.12D-08  0.22D-09  6  6  1077.08
  13      1.36505625    -1.01857689  -268.39440734     0.00000115    -0.00000000  0.77D-09  0.61D-10  6  1  1159.54
  14      1.36504323    -1.01857537  -268.39440582     0.00000152    -0.00000000  0.53D-09  0.27D-10  6  2  1241.89
  15      1.36503683    -1.01857461  -268.39440505     0.00000077    -0.00000000  0.43D-09  0.21D-10  6  3  1324.34
  16      1.36503358    -1.01857444  -268.39440488     0.00000017    -0.00000000  0.31D-09  0.17D-10  6  4  1407.05
  17      1.36503325    -1.01857448  -268.39440492    -0.00000004    -0.00000000  0.14D-09  0.17D-10  6  5  1519.93
  18      1.36503653    -1.01857468  -268.39440513    -0.00000021    -0.00000000  0.29D-10  0.62D-11  6  6  1638.62
  19      1.36503991    -1.01857502  -268.39440547    -0.00000034    -0.00000000  0.26D-11  0.18D-11  6  2  1741.80
  20      1.36503936    -1.01857489  -268.39440534     0.00000013    -0.00000000  0.64D-12  0.18D-12  6  1  1841.75
  21      1.36503965    -1.01857494  -268.39440538    -0.00000004    -0.00000000  0.23D-12  0.63D-13  6  4  1951.27
  22      1.36503959    -1.01857493  -268.39440537     0.00000001    -0.00000000  0.65D-13  0.15D-13  6  3  2034.04
  23      1.36503961    -1.01857493  -268.39440538    -0.00000001    -0.00000000  0.18D-13  0.61D-14  6  6  2116.11
  24      1.36503960    -1.01857493  -268.39440538     0.00000000    -0.00000000  0.17D-14  0.59D-15  6  1  2198.32
  25      1.36503961    -1.01857493  -268.39440538     0.00000000    -0.00000000  0.64D-15  0.17D-15  6  5  2280.37
  26      1.36503962    -1.01857493  -268.39440538    -0.00000000    -0.00000000  0.17D-15  0.70D-16  6  2  2362.56
  27      1.36503963    -1.01857493  -268.39440538    -0.00000000    -0.00000000  0.46D-16  0.93D-17  6  4  2444.54
  28      1.36503963    -1.01857493  -268.39440538    -0.00000000    -0.00000000  0.13D-16  0.38D-17  6  3  2526.57
  29      1.36503963    -1.01857493  -268.39440538    -0.00000000    -0.00000000  0.53D-17  0.79D-18  6  6  2610.03
  30      1.36503963    -1.01857493  -268.39440538     0.00000000    -0.00000000  0.38D-17  0.31D-18  6  1  2692.05

 Norm of t1 vector:      0.23124481      S-energy:    -0.00501553      T1 diagnostic:  0.02849528
                                                                       D1 diagnostic:  0.14605485
 Norm of t2 vector:      0.55818050      P-energy:    -1.01355941
                                         Alpha-Beta:  -0.80123441
                                         Alpha-Alpha: -0.10869332
                                         Beta-Beta:   -0.10363168

 Singles amplitudes (print threshold =  0.500E-01):

         I         SYM. A    A   T(IA) [Beta-Beta]

         8         1         1     -0.09625329
         9         1         1      0.09679751
        11         1         1     -0.05964940
        12         1         1     -0.07442875
        14         1         1     -0.11152741

 Spin contamination <S**2-Sz**2-Sz>     0.00176278

 Memory could be reduced to 360.52 Mwords without degradation in triples
 

 RESULTS
 =======

  Reference energy                   -267.375830447004
  UCCSD singles energy                 -0.005015525391
  UCCSD pair energy                    -1.013559406072
  UCCSD correlation energy             -1.018574931463
  Triples (T) contribution             -0.040803522954
  Total correlation energy             -1.059378454418
 
  RHF-UCCSD energy                   -268.394405378467
  RHF-UCCSD[T] energy                -268.438529007956
  RHF-UCCSD-T energy                 -268.434712355200
 !RHF-UCCSD(T) energy                -268.435208901421

 Program statistics:

 Available memory in ccsd:               999997692
 Min. memory needed in ccsd:              51505734
 Max. memory used in ccsd:                74803578
 Max. memory used in cckext:              59475747 (30 integral passes)
 Max. memory used in cckint:             145249478 ( 1 integral passes)



 **********************************************************************************************************************************
 DATASETS  * FILE   NREC   LENGTH (MB)   RECORD NAMES
              1      18        5.04       500      610      700      900      950      970     1000      129      960     1100   
                                          VAR    BASINP    GEOM    SYMINP    ZMAT    AOBASIS   BASIS     P2S    ABASIS      S 
                                         1400     1410     1200     1210     1080     1600     1650     1700   
                                           T        V       H0       H01     AOSYM     SMH    MOLCAS    OPER   

              2       3        2.21       700     1000     2100   
                                         GEOM     BASIS     RHF  

 PROGRAMS   *        TOTAL  UCCSD(T)       RHF       INT
 CPU TIMES  *      4483.38   4408.15     48.92     26.21
 REAL TIME  *      4608.36 SEC
 DISK USED  *        15.86 GB      
 SF USED    *         6.57 GB      
 GA USED    *         0.01 MB       (max)       0.00 MB       (current)
 **********************************************************************************************************************************

        UCCSD(T)        RHF-SCF 
   -268.43520890   -267.37583045
 **********************************************************************************************************************************
 Variable memory released
