
 Primary working directories    : /tmp/333988.23.gen4.q
 Secondary working directories  : /tmp/333988.23.gen4.q
 Wavefunction directory         : /home/vulcan/mel64643/wfu/
 Main file repository           : /tmp/333988.23.gen4.q/

 ARCHNAME  : Linux/x86_64
 FC        : /opt/intel/compilers_and_libraries_2016.1.150/linux/bin/intel64/ifort
 FCVERSION : 16.0.1
 BLASLIB   : -mkl
 id        : ccgc

 Nodes     nprocs
 n039         3
 Number of processes for MPI-2 version of Molpro:   nprocs(total)=    4   nprocs(compute)=    3   nprocs(helper)=    1
 ga_uses_ma=false, calling ma_init with nominal heap.
 GA-space will be limited to   8.0 MW (determined by -G option)

 Using customized tuning parameters: mindgm=10; mindgv=16; mindgc=4; mindgr=1; noblas=0; mincuda=1000; minvec=7
 default implementation of scratch files=sf  

 ***,Optimization of min3
 memory,1000,m
 gthresh,energy=1.0d-10,orbital=1.0d-10,oneint=1.0d-16,twoint=1.0d-16,optgrad=1.0d-6,compress=1.0d-13
 geomtyp=xyz
 
  bohr
  geometry = {
  12
  arbitrary comment
  C         -3.1050235692          1.5866781081          0.0194687376
  C         -0.8622781835         -0.0721048722         -0.6561052613
  C         -1.1149941000         -2.7783074601          0.2473422377
  O          1.3107480399          1.1038214987          0.5885806127
  O          3.4496292963          0.1199988089         -0.2518433730
  H         -4.8151763272          0.8567398925         -0.8715890309
  H         -2.8037765373          3.5239794988         -0.6151821761
  H         -3.3881091434          1.5976997619          2.0634242161
  H         -0.4559645903         -0.0111388286         -2.6770445456
  H         -2.6983776952         -3.6760531445         -0.7246898534
  H         -1.4767348185         -2.8283404328          2.2785854834
  H          0.6015223071         -3.8387362190         -0.1625080915
 }
 
 basis=cc-pvtz
 {rhf;maxit,200}
 {uccsd(t);maxit,200}

 Variables initialized (661), CPU time= 0.00 sec
 Commands  initialized (458), CPU time= 0.01 sec, 486 directives.
 Default parameters read. Elapsed time= 0.07 sec

 Checking input...
 Passed
1


                                         ***  PROGRAM SYSTEM MOLPRO  ***
                         Copyright, University College Cardiff Consultants Limited, 2008

                                    Version 2010.1 linked May 16 2016 07:17:05


 **********************************************************************************************************************************
 LABEL *   Optimization of min3                                                          
 Linux-4.4.3/n039(x86_64) 64 bit mpp version                                             DATE: 15-Jul-20          TIME: 09:03:38  
 **********************************************************************************************************************************

 SHA1:             9e8077add272b0f3cad6f7df79ec5211205f459d
 **********************************************************************************************************************************

 THRESHOLDS:

 ZERO    =  1.00D-12  ONEINT  =  1.00D-16  TWOINT  =  1.00D-16  PREFAC  =  1.00D-14  LOCALI  =  1.00D-09  EORDER  =  1.00D-04
 ENERGY  =  1.00D-10  ETEST   =  0.00D+00  EDENS   =  0.00D+00  THRDEDEF=  1.00D-06  GRADIENT=  1.00D-02  STEP    =  1.00D-03
 ORBITAL =  1.00D-10  CIVEC   =  1.00D-05  COEFF   =  1.00D-04  PRINTCI =  5.00D-02  PUNCHCI =  9.90D+01  OPTGRAD =  1.00D-06
 OPTENERG=  1.00D-06  OPTSTEP =  3.00D-04  THRGRAD =  1.00D-10  COMPRESS=  1.00D-13  VARMIN  =  1.00D-07  VARMAX  =  1.00D-03
 THRDOUB =  0.00D+00  THRDIV  =  1.00D-05  THRRED  =  1.00D-07  THRPSP  =  1.00D+00  THRDC   =  1.00D-10  THRCS   =  1.00D-10
 THRNRM  =  1.00D-08  THREQ   =  0.00D+00  THRDE   =  1.00D+00  THRREF  =  1.00D-05  SPARFAC =  1.00D+00  THRDLP  =  1.00D-07
 THRDIA  =  1.00D-10  THRDLS  =  1.00D-07  THRGPS  =  0.00D+00  THRKEX  =  0.00D+00  THRDIS  =  2.00D-01  THRVAR  =  1.00D-10
 THRLOC  =  1.00D-06  THRGAP  =  1.00D-06  THRLOCT = -1.00D+00  THRGAPT = -1.00D+00  THRORB  =  1.00D-06  THRMLTP =  0.00D+00
 THRCPQCI=  1.00D-10  KEXTA   =  0.00D+00  THRCOARS=  0.00D+00  SYMTOL  =  1.00D-06  GRADTOL =  1.00D-06  THROVL  =  1.00D-08
 THRORTH =  1.00D-08  GRID    =  1.00D-06  GRIDMAX =  1.00D-03  DTMAX   =  0.00D+00

 SETTING GEOMTYP        =    XYZ
 ZUNIT=BOHR
 

 Variable memory set to 1000000000 words,  buffer space   230000 words

 SETTING BASIS          =    CC-PVTZ


 Recomputing integrals since basis changed


 Using spherical harmonics

 Library entry C      S cc-pVTZ              selected for orbital group  1
 Library entry C      P cc-pVTZ              selected for orbital group  1
 Library entry C      D cc-pVTZ              selected for orbital group  1
 Library entry C      F cc-pVTZ              selected for orbital group  1
 Library entry O      S cc-pVTZ              selected for orbital group  2
 Library entry O      P cc-pVTZ              selected for orbital group  2
 Library entry O      D cc-pVTZ              selected for orbital group  2
 Library entry O      F cc-pVTZ              selected for orbital group  2
 Library entry H      S cc-pVTZ              selected for orbital group  3
 Library entry H      P cc-pVTZ              selected for orbital group  3
 Library entry H      D cc-pVTZ              selected for orbital group  3

1PROGRAM * SEWARD (Integral evaluation for generally contracted gaussian basis sets)     Author: Roland Lindh, 1990

 Geometry written to block  1 of record 700


 Point group  C1  



 ATOMIC COORDINATES

 NR  ATOM    CHARGE       X              Y              Z

   1  C       6.00   -3.105023569    1.586678108    0.019468738
   2  C       6.00   -0.862278183   -0.072104872   -0.656105261
   3  C       6.00   -1.114994100   -2.778307460    0.247342238
   4  O       8.00    1.310748040    1.103821499    0.588580613
   5  O       8.00    3.449629296    0.119998809   -0.251843373
   6  H       1.00   -4.815176327    0.856739893   -0.871589031
   7  H       1.00   -2.803776537    3.523979499   -0.615182176
   8  H       1.00   -3.388109143    1.597699762    2.063424216
   9  H       1.00   -0.455964590   -0.011138829   -2.677044546
  10  H       1.00   -2.698377695   -3.676053144   -0.724689853
  11  H       1.00   -1.476734818   -2.828340433    2.278585483
  12  H       1.00    0.601522307   -3.838736219   -0.162508092

 Bond lengths in Bohr (Angstrom)

 1-2  2.870168648  1-6  2.061896263  1-7  2.060744583  1-8  2.063495316  2-3  2.864195378
     ( 1.518827835)     ( 1.091108510)     ( 1.090499067)     ( 1.091954692)     ( 1.515666916)

  2- 4  2.766602379   2- 9  2.062281064   3-10  2.063467303   3-11  2.063809286   3-12  2.058862555
       ( 1.464022925)       ( 1.091312137)       ( 1.091939868)       ( 1.092120838)       ( 1.089503141)

 4-5  2.499806510
     ( 1.322840632)

 Bond angles

  1-2-3  113.75769403   1-2-4  105.20087512   1-2-9  111.56313483   2-1-6  109.98537938

  2- 1- 7  110.89166141   2- 1- 8  110.08622424   2- 3-10  109.27997718   2- 3-11  110.41526384

  2- 3-12  110.50516834   2- 4- 5  110.70227174   3- 2- 4  109.20747394   3- 2- 9  110.75791632

  4-2-9  105.87635500   6-1-7  108.72107353   6-1-8  108.43139280   7-1-8  108.66828461

 10- 3-11  108.57759161  10- 3-12  108.77733184  11- 3-12  109.24278421

 NUCLEAR CHARGE:                   41
 NUMBER OF PRIMITIVE AOS:         354
 NUMBER OF SYMMETRY AOS:          322
 NUMBER OF CONTRACTIONS:          248   ( 248A   )
 NUMBER OF CORE ORBITALS:           5   (   5A   )
 NUMBER OF VALENCE ORBITALS:       27   (  27A   )


 NUCLEAR REPULSION ENERGY  186.62200721


 Eigenvalues of metric

         1 0.809E-03 0.956E-03 0.110E-02 0.124E-02 0.136E-02 0.150E-02 0.159E-02 0.164E-02


 Contracted 2-electron integrals neglected if value below      1.0D-16
 AO integral compression algorithm  1   Integral accuracy      1.0D-16

     3371.958 MB (compressed) written to integral file ( 82.1%)

     Node minimum: 1088.946 MB, node maximum: 1149.501 MB


 NUMBER OF SORTED TWO-ELECTRON INTEGRALS:  158903334.     BUFFER LENGTH:  32768
 NUMBER OF SEGMENTS:  10  SEGMENT LENGTH:   15997437      RECORD LENGTH: 524288

 Memory used in sort:      16.55 MW

 SORT1 READ   513510177. AND WROTE   152627895. INTEGRALS IN    442 RECORDS. CPU TIME:    19.97 SEC, REAL TIME:    25.40 SEC
 SORT2 READ   459383461. AND WROTE   476679126. INTEGRALS IN  12972 RECORDS. CPU TIME:     1.61 SEC, REAL TIME:    15.24 SEC

 Node minimum:   158882750.  Node maximum:   158903334. integrals

 OPERATOR DM      FOR CENTER  0  COORDINATES:    0.000000    0.000000    0.000000


 **********************************************************************************************************************************
 DATASETS  * FILE   NREC   LENGTH (MB)   RECORD NAMES
              1      18        5.04       500      610      700      900      950      970     1000      129      960     1100   
                                          VAR    BASINP    GEOM    SYMINP    ZMAT    AOBASIS   BASIS     P2S    ABASIS      S 
                                         1400     1410     1200     1210     1080     1600     1650     1700   
                                           T        V       H0       H01     AOSYM     SMH    MOLCAS    OPER   

 PROGRAMS   *        TOTAL       INT
 CPU TIMES  *        29.48     29.39
 REAL TIME  *        49.16 SEC
 DISK USED  *         8.83 GB      
 GA USED    *         0.01 MB       (max)       0.00 MB       (current)
 **********************************************************************************************************************************

1PROGRAM * RHF-SCF (OPEN SHELL)       Authors: W. Meyer, H.-J. Werner


 NUMBER OF ELECTRONS:      21+   20-    SPACE SYMMETRY=1    SPIN SYMMETRY: Doublet 
 CONVERGENCE THRESHOLDS:    1.00E-10 (Density)    1.00E-11 (Energy)
 MAX. NUMBER OF ITERATIONS:      200
 INTERPOLATION TYPE:            DIIS
 INTERPOLATION STEPS:              2 (START)      1 (STEP)
 LEVEL SHIFTS:                 -0.30 (CLOSED)  0.00 (OPEN) 



 Orbital guess generated from atomic densities. Full valence occupancy:   32

 Molecular orbital dump at record        2100.2

 ITERATION    DDIFF          GRAD             ENERGY        2-EL.EN.            DIPOLE MOMENTS         DIIS
    1      0.000D+00      0.000D+00      -267.26102528    559.785293   -1.77571   -0.06821   -0.09701    0
    2      0.000D+00      0.326D-02      -267.33458187    562.638790   -1.01405   -0.43022   -0.35849    1
    3      0.471D-02      0.230D-02      -267.36113821    561.590441   -1.18822   -0.24186   -0.21627    2
    4      0.211D-02      0.546D-03      -267.36938126    561.777233   -0.97649   -0.31464   -0.29722    3
    5      0.927D-03      0.485D-03      -267.37361230    561.819866   -0.92080   -0.31680   -0.30147    4
    6      0.583D-03      0.272D-03      -267.37554599    561.787033   -0.87933   -0.31016   -0.29938    5
    7      0.486D-03      0.133D-03      -267.37588450    561.772778   -0.88933   -0.29856   -0.29125    6
    8      0.259D-03      0.358D-04      -267.37590659    561.770058   -0.88892   -0.29529   -0.28976    7
    9      0.851D-04      0.190D-04      -267.37591762    561.770278   -0.89145   -0.29582   -0.28981    8
   10      0.449D-04      0.824D-05      -267.37591944    561.770183   -0.89263   -0.29519   -0.28952    9
   11      0.200D-04      0.323D-05      -267.37591970    561.770127   -0.89327   -0.29503   -0.28935    9
   12      0.789D-05      0.149D-05      -267.37591976    561.770354   -0.89341   -0.29512   -0.28939    9
   13      0.372D-05      0.531D-06      -267.37591977    561.770408   -0.89342   -0.29518   -0.28942    9
   14      0.149D-05      0.300D-06      -267.37591977    561.770408   -0.89341   -0.29520   -0.28943    9
   15      0.825D-06      0.147D-06      -267.37591977    561.770415   -0.89340   -0.29520   -0.28943    9
   16      0.423D-06      0.739D-07      -267.37591977    561.770418   -0.89340   -0.29521   -0.28943    9
   17      0.187D-06      0.372D-07      -267.37591977    561.770414   -0.89339   -0.29521   -0.28943    9
   18      0.138D-06      0.242D-07      -267.37591977    561.770411   -0.89340   -0.29520   -0.28943    9
   19      0.901D-07      0.165D-07      -267.37591977    561.770414   -0.89340   -0.29520   -0.28943    9
   20      0.100D-06      0.134D-07      -267.37591977    561.770413   -0.89340   -0.29520   -0.28943    9
   21      0.120D-06      0.107D-07      -267.37591977    561.770414   -0.89339   -0.29520   -0.28943    9
   22      0.155D-06      0.789D-08      -267.37591977    561.770416   -0.89339   -0.29520   -0.28943    9
   23      0.153D-06      0.414D-08      -267.37591977    561.770416   -0.89339   -0.29520   -0.28943    9
   24      0.797D-07      0.232D-08      -267.37591977    561.770416   -0.89339   -0.29520   -0.28943    9
   25      0.289D-07      0.989D-09      -267.37591977    561.770416   -0.89339   -0.29520   -0.28943    9
   26      0.118D-07      0.415D-09      -267.37591977    561.770416   -0.89339   -0.29520   -0.28943    9
   27      0.111D-08      0.197D-09      -267.37591977    561.770416   -0.89339   -0.29520   -0.28943    9
   28      0.649D-09      0.100D-09      -267.37591977    561.770416   -0.89339   -0.29520   -0.28943    9
   29      0.482D-09      0.549D-10      -267.37591977    561.770416   -0.89339   -0.29520   -0.28943    9
   30      0.240D-09      0.273D-10      -267.37591977    561.770416   -0.89339   -0.29520   -0.28943    9
   31      0.839D-10      0.141D-10      -267.37591977    561.770416   -0.89339   -0.29520   -0.28943    9
   32      0.749D-10      0.137D-10      -267.37591977    561.770416   -0.89339   -0.29520   -0.28943    0

 Final alpha occupancy:  21
 Final beta  occupancy:  20

 !RHF STATE 1.1 Energy               -267.375919769430
 Nuclear energy                       186.62200721
 One-electron energy                 -734.88313514
 Two-electron energy                  280.88520816
 Virial quotient                       -1.00117161
 !RHF STATE 1.1 Dipole moment          -0.89339385    -0.29520443    -0.28942918
 Dipole moment /Debye                  -2.27063193    -0.75028568    -0.73560742

 Orbital energies:

         1.1          2.1          3.1          4.1          5.1          6.1          7.1          8.1          9.1         10.1
    -20.648823   -20.640357   -11.297471   -11.229367   -11.225266    -1.523619    -1.171076    -1.034404    -0.952748    -0.819536

        11.1         12.1         13.1         14.1         15.1         16.1         17.1         18.1         19.1         20.1
     -0.695316    -0.668088    -0.652422    -0.595359    -0.562923    -0.557553    -0.544277    -0.501093    -0.489725    -0.465406

        21.1         22.1         23.1
     -0.563065     0.137681     0.174917


 **********************************************************************************************************************************
 DATASETS  * FILE   NREC   LENGTH (MB)   RECORD NAMES
              1      18        5.04       500      610      700      900      950      970     1000      129      960     1100   
                                          VAR    BASINP    GEOM    SYMINP    ZMAT    AOBASIS   BASIS     P2S    ABASIS      S 
                                         1400     1410     1200     1210     1080     1600     1650     1700   
                                           T        V       H0       H01     AOSYM     SMH    MOLCAS    OPER   

              2       3        2.21       700     1000     2100   
                                         GEOM     BASIS     RHF  

 PROGRAMS   *        TOTAL       RHF       INT
 CPU TIMES  *        96.60     67.12     29.39
 REAL TIME  *       119.96 SEC
 DISK USED  *         8.87 GB      
 SF USED    *         0.25 MB      
 GA USED    *         0.01 MB       (max)       0.00 MB       (current)
 **********************************************************************************************************************************


1PROGRAM * CCSD (Unrestricted open-shell coupled cluster)     Authors: C. Hampel, H.-J. Werner, 1991, M. Deegan, P.J. Knowles, 1992


 Convergence thresholds:  THRVAR = 1.00D-08  THRDEN = 1.00D-10

 CCSD(T)     terms to be evaluated (factor= 1.000)


 Number of core orbitals:           5 (   5 )
 Number of closed-shell orbitals:  15 (  15 )
 Number of active  orbitals:        1 (   1 )
 Number of external orbitals:     227 ( 227 )

 Memory could be reduced to 332.02 Mwords without degradation in triples

 Number of N-1 electron functions:              31
 Number of N-2 electron functions:             465
 Number of singly external CSFs:              7068
 Number of doubly external CSFs:          18353430
 Total number of CSFs:                    18360498

 Molecular orbitals read from record     2100.2  Type=RHF/CANONICAL (state 1.1)

 Integral transformation finished. Total CPU:  33.59 sec, npass=  1  Memory used: 145.25 MW

 Starting RMP2 calculation

 ITER.      SQ.NORM     CORR.ENERGY   TOTAL ENERGY   ENERGY CHANGE        DEN1      VAR(S)    VAR(P)  DIIS     TIME
   1      1.26536256    -0.96757351  -268.34349328    -0.96757351    -0.00323666  0.26D-04  0.11D-02  1  1    38.26
   2      1.26814772    -0.97106337  -268.34698314    -0.00348986    -0.00000666  0.10D-05  0.23D-05  2  2    41.80
   3      1.26822768    -0.97111628  -268.34703605    -0.00005292    -0.00000008  0.54D-07  0.11D-07  3  3    46.25
   4      1.26822939    -0.97111610  -268.34703586     0.00000019    -0.00000000  0.16D-08  0.12D-09  4  4    50.16
   5      1.26822965    -0.97111618  -268.34703595    -0.00000009    -0.00000000  0.19D-10  0.46D-11  5  5    54.46
   6      1.26822971    -0.97111621  -268.34703598    -0.00000003    -0.00000000  0.50D-13  0.56D-13  6  6    58.86
   7      1.26822971    -0.97111621  -268.34703598     0.00000000    -0.00000000  0.15D-14  0.86D-15  6  1    63.04
   8      1.26822971    -0.97111621  -268.34703598     0.00000000    -0.00000000  0.16D-16  0.80D-17  6  2    67.68
   9      1.26822971    -0.97111621  -268.34703598    -0.00000000    -0.00000000  0.31D-18  0.10D-18  6  3    72.53

 Norm of t1 vector:      0.04588942      S-energy:    -0.00446710      T1 diagnostic:  0.00074431
 Norm of t2 vector:      0.51587195      P-energy:    -0.96664912
                                         Alpha-Beta:  -0.73706722
                                         Alpha-Alpha: -0.11898271
                                         Beta-Beta:   -0.11059920

 Spin contamination <S**2-Sz**2-Sz>     0.00145431
  Reference energy                   -267.375919769433
  RHF-RMP2 correlation energy          -0.971116213718
 !RHF-RMP2 energy                    -268.347035983151

 Starting UCCSD calculation

 ITER.      SQ.NORM     CORR.ENERGY   TOTAL ENERGY   ENERGY CHANGE        DEN1      VAR(S)    VAR(P)  DIIS     TIME
   1      1.27984723    -0.97924754  -268.35516731    -0.97924754    -0.02933174  0.65D-02  0.54D-02  1  1   181.24
   2      1.30625316    -1.00587138  -268.38179115    -0.02662384    -0.00363610  0.62D-03  0.97D-03  2  2   291.14
   3      1.32290902    -1.01269626  -268.38861603    -0.00682488    -0.00091313  0.75D-03  0.76D-04  3  3   400.40
   4      1.33415441    -1.01535564  -268.39127541    -0.00265938    -0.00038611  0.31D-03  0.33D-04  4  4   509.55
   5      1.34926422    -1.01735635  -268.39327612    -0.00200071    -0.00011840  0.10D-03  0.90D-05  5  5   618.48
   6      1.36083846    -1.01838217  -268.39430194    -0.00102582    -0.00001823  0.93D-05  0.32D-05  6  6   727.58
   7      1.36455334    -1.01862411  -268.39454388    -0.00024194    -0.00000318  0.16D-05  0.61D-06  6  1   837.33
   8      1.36516195    -1.01866654  -268.39458631    -0.00004243    -0.00000068  0.27D-06  0.15D-06  6  2   946.95
   9      1.36548495    -1.01868514  -268.39460491    -0.00001860    -0.00000015  0.67D-07  0.32D-07  6  4  1057.32
  10      1.36547120    -1.01868385  -268.39460362     0.00000129    -0.00000002  0.11D-07  0.43D-08  6  3  1167.23
  11      1.36553435    -1.01868899  -268.39460876    -0.00000514    -0.00000000  0.26D-08  0.95D-09  6  5  1277.04
  12      1.36552679    -1.01868649  -268.39460626     0.00000250    -0.00000000  0.12D-08  0.22D-09  6  6  1386.89
  13      1.36552239    -1.01868533  -268.39460510     0.00000116    -0.00000000  0.78D-09  0.62D-10  6  1  1497.05
  14      1.36550928    -1.01868380  -268.39460357     0.00000153    -0.00000000  0.54D-09  0.27D-10  6  2  1607.52
  15      1.36550281    -1.01868302  -268.39460279     0.00000077    -0.00000000  0.44D-09  0.21D-10  6  3  1717.44
  16      1.36549956    -1.01868285  -268.39460262     0.00000017    -0.00000000  0.31D-09  0.18D-10  6  4  1827.91
  17      1.36549931    -1.01868290  -268.39460267    -0.00000005    -0.00000000  0.14D-09  0.17D-10  6  5  1938.94
  18      1.36550275    -1.01868312  -268.39460289    -0.00000022    -0.00000000  0.29D-10  0.62D-11  6  6  2049.47
  19      1.36550614    -1.01868346  -268.39460323    -0.00000034    -0.00000000  0.25D-11  0.17D-11  6  2  2181.38
  20      1.36550555    -1.01868332  -268.39460309     0.00000014    -0.00000000  0.60D-12  0.17D-12  6  1  2292.06
  21      1.36550583    -1.01868337  -268.39460314    -0.00000004    -0.00000000  0.21D-12  0.60D-13  6  4  2402.82
  22      1.36550577    -1.01868336  -268.39460313     0.00000001    -0.00000000  0.59D-13  0.14D-13  6  3  2512.76
  23      1.36550578    -1.01868336  -268.39460313    -0.00000001    -0.00000000  0.17D-13  0.56D-14  6  6  2622.80
  24      1.36550578    -1.01868336  -268.39460313     0.00000000    -0.00000000  0.40D-14  0.98D-15  6  5  2733.57
  25      1.36550579    -1.01868336  -268.39460313     0.00000000    -0.00000000  0.89D-15  0.28D-15  6  1  2843.77
  26      1.36550580    -1.01868336  -268.39460313    -0.00000000    -0.00000000  0.15D-15  0.55D-16  6  2  2953.55
  27      1.36550581    -1.01868336  -268.39460313    -0.00000000    -0.00000000  0.46D-16  0.16D-16  6  3  3063.19
  28      1.36550581    -1.01868336  -268.39460313    -0.00000000    -0.00000000  0.99D-17  0.47D-17  6  5  3172.56
  29      1.36550581    -1.01868336  -268.39460313    -0.00000000    -0.00000000  0.16D-17  0.39D-18  6  4  3284.13
  30      1.36550581    -1.01868336  -268.39460313     0.00000000    -0.00000000  0.59D-18  0.15D-18  6  6  3394.16

 Norm of t1 vector:      0.23142761      S-energy:    -0.00501521      T1 diagnostic:  0.02851897
                                                                       D1 diagnostic:  0.14619831
 Norm of t2 vector:      0.55852222      P-energy:    -1.01366815
                                         Alpha-Beta:  -0.80137597
                                         Alpha-Alpha: -0.10867703
                                         Beta-Beta:   -0.10361515

 Singles amplitudes (print threshold =  0.500E-01):

         I         SYM. A    A   T(IA) [Beta-Beta]

         8         1         1     -0.09655055
         9         1         1      0.09903746
        11         1         1     -0.05259631
        12         1         1     -0.07474102
        14         1         1     -0.11216813

 Spin contamination <S**2-Sz**2-Sz>     0.00176266

 Memory could be reduced to 360.52 Mwords without degradation in triples
 

 RESULTS
 =======

  Reference energy                   -267.375919769433
  UCCSD singles energy                 -0.005015211453
  UCCSD pair energy                    -1.013668151980
  UCCSD correlation energy             -1.018683363433
  Triples (T) contribution             -0.040833840215
  Total correlation energy             -1.059517203647
 
  RHF-UCCSD energy                   -268.394603132865
  RHF-UCCSD[T] energy                -268.438762564475
  RHF-UCCSD-T energy                 -268.434940131014
 !RHF-UCCSD(T) energy                -268.435436973080

 Program statistics:

 Available memory in ccsd:               999997692
 Min. memory needed in ccsd:              51505734
 Max. memory used in ccsd:                74803578
 Max. memory used in cckext:              59475747 (30 integral passes)
 Max. memory used in cckint:             145249478 ( 1 integral passes)



 **********************************************************************************************************************************
 DATASETS  * FILE   NREC   LENGTH (MB)   RECORD NAMES
              1      18        5.04       500      610      700      900      950      970     1000      129      960     1100   
                                          VAR    BASINP    GEOM    SYMINP    ZMAT    AOBASIS   BASIS     P2S    ABASIS      S 
                                         1400     1410     1200     1210     1080     1600     1650     1700   
                                           T        V       H0       H01     AOSYM     SMH    MOLCAS    OPER   

              2       3        2.21       700     1000     2100   
                                         GEOM     BASIS     RHF  

 PROGRAMS   *        TOTAL  UCCSD(T)       RHF       INT
 CPU TIMES  *      5548.20   5451.60     67.12     29.39
 REAL TIME  *      5694.68 SEC
 DISK USED  *        15.85 GB      
 SF USED    *         6.57 GB      
 GA USED    *         0.01 MB       (max)       0.00 MB       (current)
 **********************************************************************************************************************************

        UCCSD(T)        RHF-SCF 
   -268.43543697   -267.37591977
 **********************************************************************************************************************************
 Variable memory released
