
 Primary working directories    : /tmp/601556.7.gen4.q
 Secondary working directories  : /tmp/601556.7.gen4.q
 Wavefunction directory         : /home/vulcan/mel64643/wfu/
 Main file repository           : /tmp/601556.7.gen4.q/

 ARCHNAME  : Linux/x86_64
 FC        : /opt/intel/compilers_and_libraries_2016.1.150/linux/bin/intel64/ifort
 FCVERSION : 16.0.1
 BLASLIB   : -mkl
 id        : ccgc

 Nodes     nprocs
 n059         1
 ga_uses_ma=false, calling ma_init with nominal heap.
 GA-space will be limited to   8.0 MW (determined by -G option)

 Using customized tuning parameters: mindgm=10; mindgv=16; mindgc=4; mindgr=1; noblas=0; mincuda=1000; minvec=7
 default implementation of scratch files=df  

 ***,Optimization of min3
 memory,1000,m
 gthresh,energy=1.0d-12,orbital=1.0d-10,oneint=1.0d-16,twoint=1.0d-16,optgrad=1.0d-6,compress=1.0d-13
 geomtyp=xyz
 
  bohr
  geometry = {
  6
  arbitrary comment
  C   -1.3789553444   -0.0276814922   -0.0000026465
  O    1.3084463419    0.1203635987   -0.0000006638
  H   -2.0729374551    1.9093994087   -0.0000766891
  H   -2.1160504134   -0.9785920652    1.6827248783
  H   -2.1160348777   -0.9787273908   -1.6826495521
  H    1.9518075888   -1.5748941792   -0.0000037368
 }
 
 basis=cc-pvtz
 {rhf;maxit,200}
 {ccsd(t);maxit,200}

 Variables initialized (661), CPU time= 0.00 sec
 Commands  initialized (458), CPU time= 0.01 sec, 486 directives.
 Default parameters read. Elapsed time= 0.05 sec

 Checking input...
 Passed
1


                                         ***  PROGRAM SYSTEM MOLPRO  ***
                         Copyright, University College Cardiff Consultants Limited, 2008

                                    Version 2010.1 linked May 16 2016 07:17:05


 **********************************************************************************************************************************
 LABEL *   Optimization of min3                                                          
 Linux-4.4.3/n059(x86_64) 64 bit mpp version                                             DATE: 06-Nov-21          TIME: 15:41:16  
 **********************************************************************************************************************************

 SHA1:             9e8077add272b0f3cad6f7df79ec5211205f459d
 **********************************************************************************************************************************

 THRESHOLDS:

 ZERO    =  1.00D-12  ONEINT  =  1.00D-16  TWOINT  =  1.00D-16  PREFAC  =  1.00D-14  LOCALI  =  1.00D-09  EORDER  =  1.00D-04
 ENERGY  =  1.00D-12  ETEST   =  0.00D+00  EDENS   =  0.00D+00  THRDEDEF=  1.00D-06  GRADIENT=  1.00D-02  STEP    =  1.00D-03
 ORBITAL =  1.00D-10  CIVEC   =  1.00D-05  COEFF   =  1.00D-04  PRINTCI =  5.00D-02  PUNCHCI =  9.90D+01  OPTGRAD =  1.00D-06
 OPTENERG=  1.00D-06  OPTSTEP =  3.00D-04  THRGRAD =  1.00D-10  COMPRESS=  1.00D-13  VARMIN  =  1.00D-07  VARMAX  =  1.00D-03
 THRDOUB =  0.00D+00  THRDIV  =  1.00D-05  THRRED  =  1.00D-07  THRPSP  =  1.00D+00  THRDC   =  1.00D-10  THRCS   =  1.00D-10
 THRNRM  =  1.00D-08  THREQ   =  0.00D+00  THRDE   =  1.00D+00  THRREF  =  1.00D-05  SPARFAC =  1.00D+00  THRDLP  =  1.00D-07
 THRDIA  =  1.00D-10  THRDLS  =  1.00D-07  THRGPS  =  0.00D+00  THRKEX  =  0.00D+00  THRDIS  =  2.00D-01  THRVAR  =  1.00D-10
 THRLOC  =  1.00D-06  THRGAP  =  1.00D-06  THRLOCT = -1.00D+00  THRGAPT = -1.00D+00  THRORB  =  1.00D-06  THRMLTP =  0.00D+00
 THRCPQCI=  1.00D-10  KEXTA   =  0.00D+00  THRCOARS=  0.00D+00  SYMTOL  =  1.00D-06  GRADTOL =  1.00D-06  THROVL  =  1.00D-08
 THRORTH =  1.00D-08  GRID    =  1.00D-06  GRIDMAX =  1.00D-03  DTMAX   =  0.00D+00

 SETTING GEOMTYP        =    XYZ
 ZUNIT=BOHR
 

 Variable memory set to 1000000000 words,  buffer space   230000 words

 SETTING BASIS          =    CC-PVTZ


 Recomputing integrals since basis changed


 Using spherical harmonics

 Library entry C      S cc-pVTZ              selected for orbital group  1
 Library entry C      P cc-pVTZ              selected for orbital group  1
 Library entry C      D cc-pVTZ              selected for orbital group  1
 Library entry C      F cc-pVTZ              selected for orbital group  1
 Library entry O      S cc-pVTZ              selected for orbital group  2
 Library entry O      P cc-pVTZ              selected for orbital group  2
 Library entry O      D cc-pVTZ              selected for orbital group  2
 Library entry O      F cc-pVTZ              selected for orbital group  2
 Library entry H      S cc-pVTZ              selected for orbital group  3
 Library entry H      P cc-pVTZ              selected for orbital group  3
 Library entry H      D cc-pVTZ              selected for orbital group  3

1PROGRAM * SEWARD (Integral evaluation for generally contracted gaussian basis sets)     Author: Roland Lindh, 1990

 Geometry written to block  1 of record 700


 Point group  C1  



 ATOMIC COORDINATES

 NR  ATOM    CHARGE       X              Y              Z

   1  C       6.00   -1.378955344   -0.027681492   -0.000002646
   2  O       8.00    1.308446342    0.120363599   -0.000000664
   3  H       1.00   -2.072937455    1.909399409   -0.000076689
   4  H       1.00   -2.116050413   -0.978592065    1.682724878
   5  H       1.00   -2.116034878   -0.978727391   -1.682649552
   6  H       1.00    1.951807589   -1.574894179   -0.000003737

 Bond lengths in Bohr (Angstrom)

 1-2  2.691476393  1-3  2.057642727  1-4  2.068601455  1-5  2.068592553  2-6  1.813232646
     ( 1.424267966)     ( 1.088857635)     ( 1.094656745)     ( 1.094652034)     ( 0.959521391)

 Bond angles

  1-2-6  107.62892144   2-1-3  106.55750786   2-1-4  112.40000517   2-1-5  112.39993936

  3-1-4  108.21627929   3-1-5  108.21669682   4-1-5  108.86753723

 NUCLEAR CHARGE:                   18
 NUMBER OF PRIMITIVE AOS:         162
 NUMBER OF SYMMETRY AOS:          148
 NUMBER OF CONTRACTIONS:          116   ( 116A   )
 NUMBER OF CORE ORBITALS:           2   (   2A   )
 NUMBER OF VALENCE ORBITALS:       12   (  12A   )


 NUCLEAR REPULSION ENERGY   40.25107348


 Eigenvalues of metric

         1 0.134E-02 0.181E-02 0.191E-02 0.235E-02 0.330E-02 0.463E-02 0.741E-02 0.101E-01


 Contracted 2-electron integrals neglected if value below      1.0D-16
 AO integral compression algorithm  1   Integral accuracy      1.0D-16

     196.346 MB (compressed) written to integral file ( 92.2%)

     Node minimum: 196.346 MB, node maximum: 196.346 MB


 NUMBER OF SORTED TWO-ELECTRON INTEGRALS:   23028291.     BUFFER LENGTH:  32768
 NUMBER OF SEGMENTS:   2  SEGMENT LENGTH:   15997996      RECORD LENGTH: 524288

 Memory used in sort:      16.56 MW

 SORT1 READ    26631627. AND WROTE    22813201. INTEGRALS IN     67 RECORDS. CPU TIME:     0.26 SEC, REAL TIME:     0.39 SEC
 SORT2 READ    22813201. AND WROTE    23028291. INTEGRALS IN    749 RECORDS. CPU TIME:     0.22 SEC, REAL TIME:     0.32 SEC

 FILE SIZES:   FILE 1:   175.9 MBYTE,  FILE 4:   281.1 MBYTE,   TOTAL:    456.9 MBYTE

 OPERATOR DM      FOR CENTER  0  COORDINATES:    0.000000    0.000000    0.000000


 **********************************************************************************************************************************
 DATASETS  * FILE   NREC   LENGTH (MB)   RECORD NAMES
              1      19      176.04       500      610      700      900      950      970     1000      129      960     1100   
                                          VAR    BASINP    GEOM    SYMINP    ZMAT    AOBASIS   BASIS     P2S    ABASIS      S 
                                         1400     1410     1200     1210     1080     1600     1650     1300     1700   
                                           T        V       H0       H01     AOSYM     SMH    MOLCAS    ERIS     OPER   

 PROGRAMS   *        TOTAL       INT
 CPU TIMES  *         1.60      1.56
 REAL TIME  *         2.11 SEC
 DISK USED  *       653.92 MB      
 GA USED    *         0.00 MB       (max)       0.00 MB       (current)
 **********************************************************************************************************************************

1PROGRAM * RHF-SCF (CLOSED SHELL)       Authors: W. Meyer, H.-J. Werner


 NUMBER OF ELECTRONS:       9+    9-    SPACE SYMMETRY=1    SPIN SYMMETRY: Singlet 
 CONVERGENCE THRESHOLDS:    1.00E-10 (Density)    1.00E-13 (Energy)
 MAX. NUMBER OF ITERATIONS:      200
 INTERPOLATION TYPE:            DIIS
 INTERPOLATION STEPS:              2 (START)      1 (STEP)
 LEVEL SHIFTS:                  0.00 (CLOSED)  0.00 (OPEN) 



 Orbital guess generated from atomic densities. Full valence occupancy:   14

 Molecular orbital dump at record        2100.2

 ITERATION    DDIFF          GRAD             ENERGY        2-EL.EN.            DIPOLE MOMENTS         DIIS
    1      0.000D+00      0.000D+00      -115.05306816    164.331495   -0.48846   -0.90474   -0.00000    0
    2      0.000D+00      0.474D-02      -115.08134869    161.885254   -0.29999   -0.50121   -0.00000    1
    3      0.784D-02      0.255D-02      -115.08846421    163.055496   -0.39211   -0.59922   -0.00000    2
    4      0.258D-02      0.497D-03      -115.08897099    162.900403   -0.38514   -0.59333   -0.00000    3
    5      0.686D-03      0.980D-04      -115.08900190    162.907448   -0.38875   -0.58864   -0.00000    4
    6      0.186D-03      0.185D-04      -115.08900325    162.906012   -0.38914   -0.58864   -0.00000    5
    7      0.478D-04      0.392D-05      -115.08900331    162.905106   -0.38933   -0.58843   -0.00000    6
    8      0.908D-05      0.118D-05      -115.08900331    162.905566   -0.38936   -0.58841   -0.00000    7
    9      0.231D-05      0.321D-06      -115.08900331    162.905461   -0.38937   -0.58840   -0.00000    6
   10      0.764D-06      0.595D-07      -115.08900331    162.905472   -0.38937   -0.58839   -0.00000    6
   11      0.158D-06      0.149D-07      -115.08900331    162.905476   -0.38937   -0.58839   -0.00000    6
   12      0.297D-07      0.624D-08      -115.08900331    162.905474   -0.38937   -0.58839   -0.00000    7
   13      0.109D-07      0.170D-08      -115.08900331    162.905474   -0.38937   -0.58839   -0.00000    7
   14      0.344D-08      0.352D-09      -115.08900331    162.905474   -0.38937   -0.58839   -0.00000    7
   15      0.844D-09      0.902D-10      -115.08900331    162.905474   -0.38937   -0.58839   -0.00000    7
   16      0.184D-09      0.224D-10      -115.08900331    162.905474   -0.38937   -0.58839   -0.00000    7
   17      0.515D-10      0.725D-11      -115.08900331    162.905474   -0.38937   -0.58839   -0.00000    7
   18      0.145D-10      0.157D-11      -115.08900331    162.905474   -0.38937   -0.58839   -0.00000    7
   19      0.301D-11      0.499D-12      -115.08900331    162.905474   -0.38937   -0.58839   -0.00000    7
   20      0.119D-11      0.160D-12      -115.08900331    162.905474   -0.38937   -0.58839   -0.00000    0

 Final occupancy:   9

 !RHF STATE 1.1 Energy               -115.089003312453
 Nuclear energy                        40.25107348
 One-electron energy                 -236.79281385
 Two-electron energy                   81.45273706
 Virial quotient                       -1.00135024
 !RHF STATE 1.1 Dipole moment          -0.38937467    -0.58839411    -0.00000450
 Dipole moment /Debye                  -0.98962689    -1.49545069    -0.00001143

 Orbital energies:

         1.1          2.1          3.1          4.1          5.1          6.1          7.1          8.1          9.1         10.1
    -20.552564   -11.270067    -1.352705    -0.923318    -0.687185    -0.617124    -0.588959    -0.502183    -0.449565     0.138520

        11.1
      0.178502


 **********************************************************************************************************************************
 DATASETS  * FILE   NREC   LENGTH (MB)   RECORD NAMES
              1      19      176.04       500      610      700      900      950      970     1000      129      960     1100   
                                          VAR    BASINP    GEOM    SYMINP    ZMAT    AOBASIS   BASIS     P2S    ABASIS      S 
                                         1400     1410     1200     1210     1080     1600     1650     1300     1700   
                                           T        V       H0       H01     AOSYM     SMH    MOLCAS    ERIS     OPER   

              2       3        0.63       700     1000     2100   
                                         GEOM     BASIS     RHF  

 PROGRAMS   *        TOTAL       RHF       INT
 CPU TIMES  *         4.96      3.36      1.56
 REAL TIME  *         5.93 SEC
 DISK USED  *       653.92 MB      
 GA USED    *         0.00 MB       (max)       0.00 MB       (current)
 **********************************************************************************************************************************


1PROGRAM * CCSD (Closed-shell coupled cluster)     Authors: C. Hampel, H.-J. Werner, 1991, M. Deegan, P.J. Knowles, 1992


 Convergence thresholds:  THRVAR = 1.00D-08  THRDEN = 1.00D-12

 CCSD(T)     terms to be evaluated (factor= 1.000)


 Number of core orbitals:           2 (   2 )
 Number of closed-shell orbitals:   7 (   7 )
 Number of external orbitals:     107 ( 107 )

 Molecular orbitals read from record     2100.2  Type=RHF/CANONICAL (state 1.1)

 Number of N-1 electron functions:               7
 Number of N-2 electron functions:              28
 Number of singly external CSFs:               749
 Number of doubly external CSFs:            280875
 Total number of CSFs:                      281625

 Length of J-op  integral file:               0.00 MB
 Length of K-op  integral file:               0.96 MB
 Length of 3-ext integral record:             0.00 MB

 Memory could be reduced to 12.77 Mwords without degradation in triples

 Integral transformation finished. Total CPU:   0.59 sec, npass=  1  Memory used:   7.23 MW

 Reference energy:                   -115.08900331

 MP2 singlet pair energy:              -0.28110788
 MP2 triplet pair energy:              -0.14731568
 MP2 correlation energy:               -0.42842356
 MP2 total energy:                   -115.51742687

 SCS-MP2 correlation energy:           -0.42899255   (PS=  1.200000  PT=  0.333333)
 SCS-MP2 total energy:               -115.51799586

 ITER.      SQ.NORM     CORR.ENERGY   TOTAL ENERGY   ENERGY CHANGE        DEN1      VAR(S)    VAR(P)  DIIS     TIME
   1      1.11814508    -0.44569681  -115.53470012    -0.01727325    -0.00690090  0.12D-02  0.18D-02  1  1     1.23
   2      1.12604424    -0.44688135  -115.53588467    -0.00118455    -0.00946335  0.16D-04  0.22D-03  2  2     1.92
   3      1.12864711    -0.44695863  -115.53596194    -0.00007728    -0.00178931  0.76D-05  0.10D-04  3  3     2.61
   4      1.12929112    -0.44696002  -115.53596333    -0.00000139    -0.00033447  0.36D-06  0.85D-06  4  4     3.30
   5      1.12939777    -0.44696187  -115.53596519    -0.00000186    -0.00004026  0.11D-06  0.66D-07  5  5     3.99
   6      1.12942320    -0.44695967  -115.53596299     0.00000220    -0.00000755  0.18D-07  0.51D-08  6  6     4.67
   7      1.12942690    -0.44695958  -115.53596289     0.00000010    -0.00000028  0.27D-08  0.92D-09  6  2     5.36
   8      1.12942828    -0.44695953  -115.53596284     0.00000005     0.00000002  0.43D-09  0.11D-09  6  1     6.05
   9      1.12942904    -0.44695947  -115.53596278     0.00000006    -0.00000003  0.28D-10  0.18D-10  6  3     6.74
  10      1.12942912    -0.44695949  -115.53596280    -0.00000002     0.00000007  0.26D-11  0.19D-11  6  4     7.43
  11      1.12942898    -0.44695949  -115.53596281    -0.00000001     0.00000011  0.24D-12  0.12D-12  6  6     8.12
  12      1.12942896    -0.44695950  -115.53596281    -0.00000000     0.00000001  0.28D-13  0.11D-13  6  5     8.80
  13      1.12942896    -0.44695950  -115.53596281    -0.00000000    -0.00000000  0.58D-14  0.18D-14  6  2     9.49
  14      1.12942896    -0.44695950  -115.53596281     0.00000000    -0.00000000  0.45D-15  0.14D-15  6  1    10.18
  15      1.12942896    -0.44695950  -115.53596281    -0.00000000    -0.00000000  0.65D-16  0.29D-16  6  3    10.88
  16      1.12942896    -0.44695950  -115.53596281     0.00000000     0.00000000  0.19D-16  0.35D-17  6  4    11.57
  17      1.12942896    -0.44695950  -115.53596281    -0.00000000     0.00000000  0.13D-17  0.76D-18  6  5    12.26
  18      1.12942896    -0.44695950  -115.53596281    -0.00000000     0.00000000  0.98D-19  0.48D-19  6  6    12.96
  19      1.12942896    -0.44695950  -115.53596281     0.00000000    -0.00000000  0.20D-19  0.10D-19  6  2    13.65
  20      1.12942896    -0.44695950  -115.53596281     0.00000000    -0.00000000  0.14D-20  0.79D-21  6  1    14.34

 Norm of t1 vector:      0.04479376      S-energy:    -0.00000000      T1 diagnostic:  0.00846522
                                                                       D1 diagnostic:  0.01735483


 Total CPU time for triples:      7.24 sec


 RESULTS
 =======

  Reference energy                   -115.089003312453
  CCSD singlet pair energy             -0.313236995546
  CCSD triplet pair energy             -0.133722502150
  CCSD correlation energy              -0.446959497696

  Triples (T) contribution             -0.014810526904
  Total correlation energy             -0.461770024599

  CCSD total energy                  -115.535962810149
  CCSD[T] energy                     -115.551241469067
  CCSD-T energy                      -115.550506475991
 !CCSD(T) total energy               -115.550773337053

 Timing summary (sec):

 STEP                 CPU(USER)    SYS     CPU(TOT)    WALL
 Transformation          0.60      0.07      0.67      0.67
 CCSD iterations        13.74      0.71     14.45     14.49
 Triples                 7.24      0.13      7.37      7.37

 Program statistics:

 Available memory in ccsd:               999999704
 Min. memory needed in ccsd:                915605
 Max. memory used in ccsd:                 1141922
 Max. memory used in cckext:                874802 (20 integral passes)



 **********************************************************************************************************************************
 DATASETS  * FILE   NREC   LENGTH (MB)   RECORD NAMES
              1      20      215.44       500      610      700      900      950      970     1000      129      960     1100   
                                          VAR    BASINP    GEOM    SYMINP    ZMAT    AOBASIS   BASIS     P2S    ABASIS      S 
                                         1400     1410     1200     1210     1080     1600     1650     1300     1700     1380   
                                           T        V       H0       H01     AOSYM     SMH    MOLCAS    ERIS     OPER     JKOP   

              2       3        0.63       700     1000     2100   
                                         GEOM     BASIS     RHF  

 PROGRAMS   *        TOTAL   CCSD(T)       RHF       INT
 CPU TIMES  *        26.56     21.60      3.36      1.56
 REAL TIME  *        28.49 SEC
 DISK USED  *       653.92 MB      
 GA USED    *         0.00 MB       (max)       0.00 MB       (current)
 **********************************************************************************************************************************

        CCSD(T)         RHF-SCF 
   -115.55077334   -115.08900331
 **********************************************************************************************************************************
 Variable memory released
