
 Primary working directories    : /tmp/795519.45.gen4.q
 Secondary working directories  : /tmp/795519.45.gen4.q
 Wavefunction directory         : /home/vulcan/mel64643/wfu/
 Main file repository           : /tmp/795519.45.gen4.q/

 ARCHNAME  : Linux/x86_64
 FC        : /opt/intel/compilers_and_libraries_2016.1.150/linux/bin/intel64/ifort
 FCVERSION : 16.0.1
 BLASLIB   : -mkl
 id        : ccgc

 Nodes     nprocs
 n049         1
 ga_uses_ma=false, calling ma_init with nominal heap.
 GA-space will be limited to   8.0 MW (determined by -G option)

 Using customized tuning parameters: mindgm=10; mindgv=16; mindgc=4; mindgr=1; noblas=0; mincuda=1000; minvec=7
 default implementation of scratch files=df  

 ***,Optimization of min3
 memory,1000,m
 gthresh,energy=1.0d-12,orbital=1.0d-10,oneint=1.0d-16,twoint=1.0d-16,optgrad=1.0d-6,compress=1.0d-13
 geomtyp=xyz
 
  bohr
  geometry = {
  6
  arbitrary comment
  C   -1.3718604574   -0.0243201785    0.0000070759
  O    1.3036378659    0.1209819665   -0.0000019822
  H   -2.0704700533    1.9075460930   -0.0000821636
  H   -2.1123553815   -0.9810597110    1.6807559198
  H   -2.1123481485   -0.9811891410   -1.6806863808
  H    1.9396720148   -1.5720911490   -0.0000008790
 }
 
 basis=cc-pvdz
 {rhf;maxit,200}
 {ccsd(t);maxit,200}

 Variables initialized (661), CPU time= 0.00 sec
 Commands  initialized (458), CPU time= 0.01 sec, 486 directives.
 Default parameters read. Elapsed time= 0.05 sec

 Checking input...
 Passed
1


                                         ***  PROGRAM SYSTEM MOLPRO  ***
                         Copyright, University College Cardiff Consultants Limited, 2008

                                    Version 2010.1 linked May 16 2016 07:17:05


 **********************************************************************************************************************************
 LABEL *   Optimization of min3                                                          
 Linux-4.4.3/n049(x86_64) 64 bit mpp version                                             DATE: 24-Oct-22          TIME: 15:41:36  
 **********************************************************************************************************************************

 SHA1:             9e8077add272b0f3cad6f7df79ec5211205f459d
 **********************************************************************************************************************************

 THRESHOLDS:

 ZERO    =  1.00D-12  ONEINT  =  1.00D-16  TWOINT  =  1.00D-16  PREFAC  =  1.00D-14  LOCALI  =  1.00D-09  EORDER  =  1.00D-04
 ENERGY  =  1.00D-12  ETEST   =  0.00D+00  EDENS   =  0.00D+00  THRDEDEF=  1.00D-06  GRADIENT=  1.00D-02  STEP    =  1.00D-03
 ORBITAL =  1.00D-10  CIVEC   =  1.00D-05  COEFF   =  1.00D-04  PRINTCI =  5.00D-02  PUNCHCI =  9.90D+01  OPTGRAD =  1.00D-06
 OPTENERG=  1.00D-06  OPTSTEP =  3.00D-04  THRGRAD =  1.00D-10  COMPRESS=  1.00D-13  VARMIN  =  1.00D-07  VARMAX  =  1.00D-03
 THRDOUB =  0.00D+00  THRDIV  =  1.00D-05  THRRED  =  1.00D-07  THRPSP  =  1.00D+00  THRDC   =  1.00D-10  THRCS   =  1.00D-10
 THRNRM  =  1.00D-08  THREQ   =  0.00D+00  THRDE   =  1.00D+00  THRREF  =  1.00D-05  SPARFAC =  1.00D+00  THRDLP  =  1.00D-07
 THRDIA  =  1.00D-10  THRDLS  =  1.00D-07  THRGPS  =  0.00D+00  THRKEX  =  0.00D+00  THRDIS  =  2.00D-01  THRVAR  =  1.00D-10
 THRLOC  =  1.00D-06  THRGAP  =  1.00D-06  THRLOCT = -1.00D+00  THRGAPT = -1.00D+00  THRORB  =  1.00D-06  THRMLTP =  0.00D+00
 THRCPQCI=  1.00D-10  KEXTA   =  0.00D+00  THRCOARS=  0.00D+00  SYMTOL  =  1.00D-06  GRADTOL =  1.00D-06  THROVL  =  1.00D-08
 THRORTH =  1.00D-08  GRID    =  1.00D-06  GRIDMAX =  1.00D-03  DTMAX   =  0.00D+00

 SETTING GEOMTYP        =    XYZ
 ZUNIT=BOHR
 

 Variable memory set to 1000000000 words,  buffer space   230000 words

 SETTING BASIS          =    CC-PVDZ


 Recomputing integrals since basis changed


 Using spherical harmonics

 Library entry C      S cc-pVDZ              selected for orbital group  1
 Library entry C      P cc-pVDZ              selected for orbital group  1
 Library entry C      D cc-pVDZ              selected for orbital group  1
 Library entry O      S cc-pVDZ              selected for orbital group  2
 Library entry O      P cc-pVDZ              selected for orbital group  2
 Library entry O      D cc-pVDZ              selected for orbital group  2
 Library entry H      S cc-pVDZ              selected for orbital group  3
 Library entry H      P cc-pVDZ              selected for orbital group  3

1PROGRAM * SEWARD (Integral evaluation for generally contracted gaussian basis sets)     Author: Roland Lindh, 1990

 Geometry written to block  1 of record 700


 Point group  C1  



 ATOMIC COORDINATES

 NR  ATOM    CHARGE       X              Y              Z

   1  C       6.00   -1.371860457   -0.024320179    0.000007076
   2  O       8.00    1.303637866    0.120981966   -0.000001982
   3  H       1.00   -2.070470053    1.907546093   -0.000082164
   4  H       1.00   -2.112355382   -0.981059711    1.680755920
   5  H       1.00   -2.112348149   -0.981189141   -1.680686381
   6  H       1.00    1.939672015   -1.572091149   -0.000000879

 Bond lengths in Bohr (Angstrom)

 1-2  2.679440985  1-3  2.054303450  1-4  2.070893513  1-5  2.070905775  2-6  1.808600568
     ( 1.417899102)     ( 1.087090566)     ( 1.095869649)     ( 1.095876138)     ( 0.957070201)

 Bond angles

  1-2-6  107.48102450   2-1-3  106.77262591   2-1-4  112.46397714   2-1-5  112.46349056

  3-1-4  108.23370390   3-1-5  108.23295577   4-1-5  108.50311425

 NUCLEAR CHARGE:                   18
 NUMBER OF PRIMITIVE AOS:          82
 NUMBER OF SYMMETRY AOS:           80
 NUMBER OF CONTRACTIONS:           48   (  48A   )
 NUMBER OF CORE ORBITALS:           2   (   2A   )
 NUMBER OF VALENCE ORBITALS:       12   (  12A   )


 NUCLEAR REPULSION ENERGY   40.36259072


 Eigenvalues of metric

         1 0.965E-02 0.176E-01 0.368E-01 0.375E-01 0.379E-01 0.476E-01 0.478E-01 0.515E-01


 Contracted 2-electron integrals neglected if value below      1.0D-16
 AO integral compression algorithm  1   Integral accuracy      1.0D-16

     6.554 MB (compressed) written to integral file ( 95.5%)

     Node minimum: 6.554 MB, node maximum: 6.554 MB


 NUMBER OF SORTED TWO-ELECTRON INTEGRALS:     692076.     BUFFER LENGTH:  32768
 NUMBER OF SEGMENTS:   1  SEGMENT LENGTH:     692076      RECORD LENGTH: 524288

 Memory used in sort:       1.25 MW

 SORT1 READ      832256. AND WROTE      682150. INTEGRALS IN      2 RECORDS. CPU TIME:     0.00 SEC, REAL TIME:     0.02 SEC
 SORT2 READ      682150. AND WROTE      692076. INTEGRALS IN     25 RECORDS. CPU TIME:     0.02 SEC, REAL TIME:     0.02 SEC

 FILE SIZES:   FILE 1:     8.0 MBYTE,  FILE 4:     8.4 MBYTE,   TOTAL:     16.4 MBYTE

 OPERATOR DM      FOR CENTER  0  COORDINATES:    0.000000    0.000000    0.000000


 **********************************************************************************************************************************
 DATASETS  * FILE   NREC   LENGTH (MB)   RECORD NAMES
              1      19        8.05       500      610      700      900      950      970     1000      129      960     1100   
                                          VAR    BASINP    GEOM    SYMINP    ZMAT    AOBASIS   BASIS     P2S    ABASIS      S 
                                         1400     1410     1200     1210     1080     1600     1650     1300     1700   
                                           T        V       H0       H01     AOSYM     SMH    MOLCAS    ERIS     OPER   

 PROGRAMS   *        TOTAL       INT
 CPU TIMES  *         0.22      0.18
 REAL TIME  *         0.41 SEC
 DISK USED  *        23.63 MB      
 GA USED    *         0.00 MB       (max)       0.00 MB       (current)
 **********************************************************************************************************************************

1PROGRAM * RHF-SCF (CLOSED SHELL)       Authors: W. Meyer, H.-J. Werner


 NUMBER OF ELECTRONS:       9+    9-    SPACE SYMMETRY=1    SPIN SYMMETRY: Singlet 
 CONVERGENCE THRESHOLDS:    1.00E-10 (Density)    1.00E-13 (Energy)
 MAX. NUMBER OF ITERATIONS:      200
 INTERPOLATION TYPE:            DIIS
 INTERPOLATION STEPS:              2 (START)      1 (STEP)
 LEVEL SHIFTS:                  0.00 (CLOSED)  0.00 (OPEN) 



 Orbital guess generated from atomic densities. Full valence occupancy:   14

 Molecular orbital dump at record        2100.2

 ITERATION    DDIFF          GRAD             ENERGY        2-EL.EN.            DIPOLE MOMENTS         DIIS
    1      0.000D+00      0.000D+00      -115.01443949    164.482339   -0.48962   -0.89904   -0.00000    0
    2      0.000D+00      0.109D-01      -115.04277050    162.266913   -0.31181   -0.53446    0.00000    1
    3      0.205D-01      0.528D-02      -115.04875537    163.289382   -0.39491   -0.60921    0.00000    2
    4      0.637D-02      0.112D-02      -115.04921707    163.133164   -0.38470   -0.59809    0.00000    3
    5      0.204D-02      0.201D-03      -115.04923783    163.139618   -0.38747   -0.59380    0.00000    4
    6      0.431D-03      0.351D-04      -115.04923861    163.139770   -0.38775   -0.59359    0.00000    5
    7      0.924D-04      0.727D-05      -115.04923864    163.138588   -0.38788   -0.59342    0.00000    6
    8      0.148D-04      0.234D-05      -115.04923864    163.138965   -0.38792   -0.59340    0.00000    7
    9      0.497D-05      0.483D-06      -115.04923864    163.138924   -0.38793   -0.59340    0.00000    6
   10      0.139D-05      0.850D-07      -115.04923864    163.138923   -0.38793   -0.59340    0.00000    6
   11      0.230D-06      0.318D-07      -115.04923864    163.138929   -0.38793   -0.59340    0.00000    6
   12      0.576D-07      0.131D-07      -115.04923864    163.138927   -0.38793   -0.59340    0.00000    7
   13      0.242D-07      0.293D-08      -115.04923864    163.138927   -0.38793   -0.59340    0.00000    7
   14      0.728D-08      0.632D-09      -115.04923864    163.138927   -0.38793   -0.59340    0.00000    7
   15      0.162D-08      0.145D-09      -115.04923864    163.138927   -0.38793   -0.59340    0.00000    7
   16      0.320D-09      0.432D-10      -115.04923864    163.138927   -0.38793   -0.59340    0.00000    7
   17      0.831D-10      0.155D-10      -115.04923864    163.138927   -0.38793   -0.59340    0.00000    7
   18      0.397D-10      0.283D-11      -115.04923864    163.138927   -0.38793   -0.59340    0.00000    7
   19      0.661D-11      0.624D-12      -115.04923864    163.138927   -0.38793   -0.59340    0.00000    7
   20      0.157D-11      0.268D-12      -115.04923864    163.138927   -0.38793   -0.59340    0.00000    7
   21      0.485D-12      0.659D-13      -115.04923864    163.138927   -0.38793   -0.59340    0.00000    7
   22      0.147D-12      0.179D-13      -115.04923864    163.138927   -0.38793   -0.59340    0.00000    7
   23      0.476D-13      0.882D-14      -115.04923864    163.138927   -0.38793   -0.59340    0.00000    0

 Final occupancy:   9

 !RHF STATE 1.1 Energy               -115.049238643742
 Nuclear energy                        40.36259072
 One-electron energy                 -236.98129283
 Two-electron energy                   81.56946347
 Virial quotient                       -1.00084372
 !RHF STATE 1.1 Dipole moment          -0.38793021    -0.59339644     0.00000208
 Dipole moment /Debye                  -0.98595568    -1.50816454     0.00000528

 Orbital energies:

         1.1          2.1          3.1          4.1          5.1          6.1          7.1          8.1          9.1         10.1
    -20.549921   -11.274521    -1.351572    -0.921482    -0.684194    -0.613524    -0.585831    -0.497349    -0.442789     0.184716

        11.1
      0.224676


 **********************************************************************************************************************************
 DATASETS  * FILE   NREC   LENGTH (MB)   RECORD NAMES
              1      19        8.05       500      610      700      900      950      970     1000      129      960     1100   
                                          VAR    BASINP    GEOM    SYMINP    ZMAT    AOBASIS   BASIS     P2S    ABASIS      S 
                                         1400     1410     1200     1210     1080     1600     1650     1300     1700   
                                           T        V       H0       H01     AOSYM     SMH    MOLCAS    ERIS     OPER   

              2       3        0.39       700     1000     2100   
                                         GEOM     BASIS     RHF  

 PROGRAMS   *        TOTAL       RHF       INT
 CPU TIMES  *         0.34      0.12      0.18
 REAL TIME  *         0.55 SEC
 DISK USED  *        23.63 MB      
 GA USED    *         0.00 MB       (max)       0.00 MB       (current)
 **********************************************************************************************************************************


1PROGRAM * CCSD (Closed-shell coupled cluster)     Authors: C. Hampel, H.-J. Werner, 1991, M. Deegan, P.J. Knowles, 1992


 Convergence thresholds:  THRVAR = 1.00D-08  THRDEN = 1.00D-12

 CCSD(T)     terms to be evaluated (factor= 1.000)


 Number of core orbitals:           2 (   2 )
 Number of closed-shell orbitals:   7 (   7 )
 Number of external orbitals:      39 (  39 )

 Molecular orbitals read from record     2100.2  Type=RHF/CANONICAL (state 1.1)

 Number of N-1 electron functions:               7
 Number of N-2 electron functions:              28
 Number of singly external CSFs:               273
 Number of doubly external CSFs:             37401
 Total number of CSFs:                       37675

 Length of J-op  integral file:               0.00 MB
 Length of K-op  integral file:               0.19 MB
 Length of 3-ext integral record:             0.00 MB

 Memory could be reduced to 0.96 Mwords without degradation in triples

 Integral transformation finished. Total CPU:   0.02 sec, npass=  1  Memory used:   0.66 MW

 Reference energy:                   -115.04923864

 MP2 singlet pair energy:              -0.21852857
 MP2 triplet pair energy:              -0.11981467
 MP2 correlation energy:               -0.33834325
 MP2 total energy:                   -115.38758189

 SCS-MP2 correlation energy:           -0.33678564   (PS=  1.200000  PT=  0.333333)
 SCS-MP2 total energy:               -115.38602428

 ITER.      SQ.NORM     CORR.ENERGY   TOTAL ENERGY   ENERGY CHANGE        DEN1      VAR(S)    VAR(P)  DIIS     TIME
   1      1.10720331    -0.36114804  -115.41038669    -0.02280480    -0.01414363  0.91D-03  0.17D-02  1  1     0.06
   2      1.11570503    -0.36308740  -115.41232605    -0.00193936    -0.00923324  0.20D-04  0.16D-03  2  2     0.09
   3      1.11757452    -0.36321396  -115.41245260    -0.00012655    -0.00119725  0.95D-05  0.85D-05  3  3     0.13
   4      1.11808624    -0.36321248  -115.41245113     0.00000148    -0.00025367  0.33D-06  0.67D-06  4  4     0.17
   5      1.11818358    -0.36321287  -115.41245151    -0.00000039    -0.00003579  0.98D-07  0.48D-07  5  5     0.21
   6      1.11820243    -0.36321153  -115.41245017     0.00000134    -0.00000434  0.16D-07  0.40D-08  6  6     0.25
   7      1.11820711    -0.36321111  -115.41244975     0.00000042    -0.00000035  0.20D-08  0.70D-09  6  1     0.28
   8      1.11820836    -0.36321121  -115.41244986    -0.00000010     0.00000074  0.25D-09  0.70D-10  6  3     0.32
   9      1.11820941    -0.36321109  -115.41244973     0.00000012    -0.00000038  0.12D-10  0.10D-10  6  2     0.36
  10      1.11820934    -0.36321109  -115.41244974    -0.00000000     0.00000007  0.11D-11  0.85D-12  6  5     0.40
  11      1.11820937    -0.36321109  -115.41244973     0.00000000    -0.00000000  0.18D-12  0.49D-13  6  4     0.44
  12      1.11820935    -0.36321109  -115.41244974    -0.00000000     0.00000001  0.18D-13  0.97D-14  6  1     0.48
  13      1.11820936    -0.36321109  -115.41244974    -0.00000000    -0.00000000  0.23D-14  0.91D-15  6  6     0.52
  14      1.11820936    -0.36321109  -115.41244973     0.00000000    -0.00000000  0.22D-15  0.12D-15  6  3     0.55
  15      1.11820936    -0.36321109  -115.41244974    -0.00000000    -0.00000000  0.24D-16  0.16D-16  6  2     0.59
  16      1.11820936    -0.36321109  -115.41244974    -0.00000000    -0.00000000  0.54D-17  0.16D-17  6  5     0.63
  17      1.11820936    -0.36321109  -115.41244974    -0.00000000    -0.00000000  0.51D-18  0.24D-18  6  4     0.67
  18      1.11820936    -0.36321109  -115.41244974     0.00000000    -0.00000000  0.80D-19  0.41D-19  6  1     0.71
  19      1.11820936    -0.36321109  -115.41244974    -0.00000000    -0.00000000  0.89D-20  0.41D-20  6  6     0.75
  20      1.11820936    -0.36321109  -115.41244974     0.00000000     0.00000000  0.12D-20  0.53D-21  6  3     0.79

 Norm of t1 vector:      0.04156410      S-energy:    -0.00000000      T1 diagnostic:  0.00785488
                                                                       D1 diagnostic:  0.01734981


 Total CPU time for triples:      0.21 sec


 RESULTS
 =======

  Reference energy                   -115.049238643742
  CCSD singlet pair energy             -0.254441447354
  CCSD triplet pair energy             -0.108769643929
  CCSD correlation energy              -0.363211091284

  Triples (T) contribution             -0.007723127596
  Total correlation energy             -0.370934218880

  CCSD total energy                  -115.412449735026
  CCSD[T] energy                     -115.420461876811
  CCSD-T energy                      -115.420023503163
 !CCSD(T) total energy               -115.420172862622

 Timing summary (sec):

 STEP                 CPU(USER)    SYS     CPU(TOT)    WALL
 Transformation          0.02      0.00      0.02      0.03
 CCSD iterations         0.77      0.05      0.82      0.83
 Triples                 0.21      0.00      0.21      0.22

 Program statistics:

 Available memory in ccsd:               999999704
 Min. memory needed in ccsd:                136801
 Max. memory used in ccsd:                  163198
 Max. memory used in cckext:                182024 (20 integral passes)



 **********************************************************************************************************************************
 DATASETS  * FILE   NREC   LENGTH (MB)   RECORD NAMES
              1      20       10.59       500      610      700      900      950      970     1000      129      960     1100   
                                          VAR    BASINP    GEOM    SYMINP    ZMAT    AOBASIS   BASIS     P2S    ABASIS      S 
                                         1400     1410     1200     1210     1080     1600     1650     1300     1700     1380   
                                           T        V       H0       H01     AOSYM     SMH    MOLCAS    ERIS     OPER     JKOP   

              2       3        0.39       700     1000     2100   
                                         GEOM     BASIS     RHF  

 PROGRAMS   *        TOTAL   CCSD(T)       RHF       INT
 CPU TIMES  *         1.35      1.01      0.12      0.18
 REAL TIME  *         1.66 SEC
 DISK USED  *        25.05 MB      
 GA USED    *         0.00 MB       (max)       0.00 MB       (current)
 **********************************************************************************************************************************

        CCSD(T)         RHF-SCF 
   -115.42017286   -115.04923864
 **********************************************************************************************************************************
 Variable memory released
