
 Primary working directories    : /tmp/601556.10.gen4.q
 Secondary working directories  : /tmp/601556.10.gen4.q
 Wavefunction directory         : /home/vulcan/mel64643/wfu/
 Main file repository           : /tmp/601556.10.gen4.q/

 ARCHNAME  : Linux/x86_64
 FC        : /opt/intel/compilers_and_libraries_2016.1.150/linux/bin/intel64/ifort
 FCVERSION : 16.0.1
 BLASLIB   : -mkl
 id        : ccgc

 Nodes     nprocs
 n036         1
 ga_uses_ma=false, calling ma_init with nominal heap.
 GA-space will be limited to   8.0 MW (determined by -G option)

 Using customized tuning parameters: mindgm=10; mindgv=16; mindgc=4; mindgr=1; noblas=0; mincuda=1000; minvec=7
 default implementation of scratch files=df  

 ***,Optimization of min3
 memory,1000,m
 gthresh,energy=1.0d-12,orbital=1.0d-10,oneint=1.0d-16,twoint=1.0d-16,optgrad=1.0d-6,compress=1.0d-13
 geomtyp=xyz
 
  bohr
  geometry = {
  6
  arbitrary comment
  C   -1.3762206096   -0.0214427016    0.0000021611
  O    1.3050439455    0.1166810951    0.0000009085
  H   -2.0810688830    1.9117494542   -0.0000819031
  H   -2.1096272404   -0.9792849351    1.6805641812
  H   -2.1096257313   -0.9794136313   -1.6804939613
  H    1.9477743588   -1.5784214013    0.0000002036
 }
 
 basis=cc-pvtz
 {rhf;maxit,200}
 {ccsd(t);maxit,200}

 Variables initialized (661), CPU time= 0.00 sec
 Commands  initialized (458), CPU time= 0.00 sec, 486 directives.
 Default parameters read. Elapsed time= 0.05 sec

 Checking input...
 Passed
1


                                         ***  PROGRAM SYSTEM MOLPRO  ***
                         Copyright, University College Cardiff Consultants Limited, 2008

                                    Version 2010.1 linked May 16 2016 07:17:05


 **********************************************************************************************************************************
 LABEL *   Optimization of min3                                                          
 Linux-4.4.3/n036(x86_64) 64 bit mpp version                                             DATE: 06-Nov-21          TIME: 15:41:16  
 **********************************************************************************************************************************

 SHA1:             9e8077add272b0f3cad6f7df79ec5211205f459d
 **********************************************************************************************************************************

 THRESHOLDS:

 ZERO    =  1.00D-12  ONEINT  =  1.00D-16  TWOINT  =  1.00D-16  PREFAC  =  1.00D-14  LOCALI  =  1.00D-09  EORDER  =  1.00D-04
 ENERGY  =  1.00D-12  ETEST   =  0.00D+00  EDENS   =  0.00D+00  THRDEDEF=  1.00D-06  GRADIENT=  1.00D-02  STEP    =  1.00D-03
 ORBITAL =  1.00D-10  CIVEC   =  1.00D-05  COEFF   =  1.00D-04  PRINTCI =  5.00D-02  PUNCHCI =  9.90D+01  OPTGRAD =  1.00D-06
 OPTENERG=  1.00D-06  OPTSTEP =  3.00D-04  THRGRAD =  1.00D-10  COMPRESS=  1.00D-13  VARMIN  =  1.00D-07  VARMAX  =  1.00D-03
 THRDOUB =  0.00D+00  THRDIV  =  1.00D-05  THRRED  =  1.00D-07  THRPSP  =  1.00D+00  THRDC   =  1.00D-10  THRCS   =  1.00D-10
 THRNRM  =  1.00D-08  THREQ   =  0.00D+00  THRDE   =  1.00D+00  THRREF  =  1.00D-05  SPARFAC =  1.00D+00  THRDLP  =  1.00D-07
 THRDIA  =  1.00D-10  THRDLS  =  1.00D-07  THRGPS  =  0.00D+00  THRKEX  =  0.00D+00  THRDIS  =  2.00D-01  THRVAR  =  1.00D-10
 THRLOC  =  1.00D-06  THRGAP  =  1.00D-06  THRLOCT = -1.00D+00  THRGAPT = -1.00D+00  THRORB  =  1.00D-06  THRMLTP =  0.00D+00
 THRCPQCI=  1.00D-10  KEXTA   =  0.00D+00  THRCOARS=  0.00D+00  SYMTOL  =  1.00D-06  GRADTOL =  1.00D-06  THROVL  =  1.00D-08
 THRORTH =  1.00D-08  GRID    =  1.00D-06  GRIDMAX =  1.00D-03  DTMAX   =  0.00D+00

 SETTING GEOMTYP        =    XYZ
 ZUNIT=BOHR
 

 Variable memory set to 1000000000 words,  buffer space   230000 words

 SETTING BASIS          =    CC-PVTZ


 Recomputing integrals since basis changed


 Using spherical harmonics

 Library entry C      S cc-pVTZ              selected for orbital group  1
 Library entry C      P cc-pVTZ              selected for orbital group  1
 Library entry C      D cc-pVTZ              selected for orbital group  1
 Library entry C      F cc-pVTZ              selected for orbital group  1
 Library entry O      S cc-pVTZ              selected for orbital group  2
 Library entry O      P cc-pVTZ              selected for orbital group  2
 Library entry O      D cc-pVTZ              selected for orbital group  2
 Library entry O      F cc-pVTZ              selected for orbital group  2
 Library entry H      S cc-pVTZ              selected for orbital group  3
 Library entry H      P cc-pVTZ              selected for orbital group  3
 Library entry H      D cc-pVTZ              selected for orbital group  3

1PROGRAM * SEWARD (Integral evaluation for generally contracted gaussian basis sets)     Author: Roland Lindh, 1990

 Geometry written to block  1 of record 700


 Point group  C1  



 ATOMIC COORDINATES

 NR  ATOM    CHARGE       X              Y              Z

   1  C       6.00   -1.376220610   -0.021442702    0.000002161
   2  O       8.00    1.305043946    0.116681095    0.000000908
   3  H       1.00   -2.081068883    1.911749454   -0.000081903
   4  H       1.00   -2.109627240   -0.979284935    1.680564181
   5  H       1.00   -2.109625731   -0.979413631   -1.680493961
   6  H       1.00    1.947774359   -1.578421401    0.000000204

 Bond lengths in Bohr (Angstrom)

 1-2  2.684819882  1-3  2.057679034  1-4  2.068728047  1-5  2.068733572  2-6  1.812863717
     ( 1.420745492)     ( 1.088876848)     ( 1.094723734)     ( 1.094726658)     ( 0.959326162)

 Bond angles

  1-2-6  107.81622502   2-1-3  107.08307104   2-1-4  112.20190639   2-1-5  112.20195001

  3-1-4  108.27586820   3-1-5  108.27535434   4-1-5  108.65192668

 NUCLEAR CHARGE:                   18
 NUMBER OF PRIMITIVE AOS:         162
 NUMBER OF SYMMETRY AOS:          148
 NUMBER OF CONTRACTIONS:          116   ( 116A   )
 NUMBER OF CORE ORBITALS:           2   (   2A   )
 NUMBER OF VALENCE ORBITALS:       12   (  12A   )


 NUCLEAR REPULSION ENERGY   40.30412552


 Eigenvalues of metric

         1 0.133E-02 0.180E-02 0.191E-02 0.235E-02 0.330E-02 0.461E-02 0.737E-02 0.100E-01


 Contracted 2-electron integrals neglected if value below      1.0D-16
 AO integral compression algorithm  1   Integral accuracy      1.0D-16

     196.346 MB (compressed) written to integral file ( 92.2%)

     Node minimum: 196.346 MB, node maximum: 196.346 MB


 NUMBER OF SORTED TWO-ELECTRON INTEGRALS:   23028291.     BUFFER LENGTH:  32768
 NUMBER OF SEGMENTS:   2  SEGMENT LENGTH:   15997996      RECORD LENGTH: 524288

 Memory used in sort:      16.56 MW

 SORT1 READ    26631627. AND WROTE    22813204. INTEGRALS IN     67 RECORDS. CPU TIME:     0.24 SEC, REAL TIME:     0.41 SEC
 SORT2 READ    22813204. AND WROTE    23028291. INTEGRALS IN    749 RECORDS. CPU TIME:     0.23 SEC, REAL TIME:     0.34 SEC

 FILE SIZES:   FILE 1:   175.9 MBYTE,  FILE 4:   281.1 MBYTE,   TOTAL:    457.0 MBYTE

 OPERATOR DM      FOR CENTER  0  COORDINATES:    0.000000    0.000000    0.000000


 **********************************************************************************************************************************
 DATASETS  * FILE   NREC   LENGTH (MB)   RECORD NAMES
              1      19      176.10       500      610      700      900      950      970     1000      129      960     1100   
                                          VAR    BASINP    GEOM    SYMINP    ZMAT    AOBASIS   BASIS     P2S    ABASIS      S 
                                         1400     1410     1200     1210     1080     1600     1650     1300     1700   
                                           T        V       H0       H01     AOSYM     SMH    MOLCAS    ERIS     OPER   

 PROGRAMS   *        TOTAL       INT
 CPU TIMES  *         1.75      1.70
 REAL TIME  *         2.30 SEC
 DISK USED  *       653.98 MB      
 GA USED    *         0.00 MB       (max)       0.00 MB       (current)
 **********************************************************************************************************************************

1PROGRAM * RHF-SCF (CLOSED SHELL)       Authors: W. Meyer, H.-J. Werner


 NUMBER OF ELECTRONS:       9+    9-    SPACE SYMMETRY=1    SPIN SYMMETRY: Singlet 
 CONVERGENCE THRESHOLDS:    1.00E-10 (Density)    1.00E-13 (Energy)
 MAX. NUMBER OF ITERATIONS:      200
 INTERPOLATION TYPE:            DIIS
 INTERPOLATION STEPS:              2 (START)      1 (STEP)
 LEVEL SHIFTS:                  0.00 (CLOSED)  0.00 (OPEN) 



 Orbital guess generated from atomic densities. Full valence occupancy:   14

 Molecular orbital dump at record        2100.2

 ITERATION    DDIFF          GRAD             ENERGY        2-EL.EN.            DIPOLE MOMENTS         DIIS
    1      0.000D+00      0.000D+00      -115.05326975    164.436365   -0.48330   -0.90235   -0.00000    0
    2      0.000D+00      0.474D-02      -115.08156452    161.983092   -0.29654   -0.50079   -0.00000    1
    3      0.784D-02      0.254D-02      -115.08863520    163.154804   -0.38800   -0.59769   -0.00000    2
    4      0.257D-02      0.497D-03      -115.08914131    162.999327   -0.38121   -0.59174   -0.00000    3
    5      0.686D-03      0.979D-04      -115.08917206    163.006350   -0.38482   -0.58699   -0.00000    4
    6      0.186D-03      0.185D-04      -115.08917341    163.004971   -0.38522   -0.58698   -0.00000    5
    7      0.478D-04      0.392D-05      -115.08917347    163.004046   -0.38541   -0.58677   -0.00000    6
    8      0.905D-05      0.119D-05      -115.08917347    163.004511   -0.38543   -0.58675   -0.00000    7
    9      0.233D-05      0.322D-06      -115.08917347    163.004407   -0.38544   -0.58674   -0.00000    6
   10      0.768D-06      0.596D-07      -115.08917347    163.004418   -0.38545   -0.58673   -0.00000    6
   11      0.159D-06      0.150D-07      -115.08917347    163.004421   -0.38545   -0.58673   -0.00000    6
   12      0.298D-07      0.629D-08      -115.08917347    163.004420   -0.38545   -0.58673   -0.00000    7
   13      0.111D-07      0.171D-08      -115.08917347    163.004420   -0.38545   -0.58673   -0.00000    7
   14      0.346D-08      0.350D-09      -115.08917347    163.004420   -0.38545   -0.58673   -0.00000    7
   15      0.838D-09      0.897D-10      -115.08917347    163.004420   -0.38545   -0.58673   -0.00000    7
   16      0.181D-09      0.224D-10      -115.08917347    163.004420   -0.38545   -0.58673   -0.00000    7
   17      0.509D-10      0.736D-11      -115.08917347    163.004420   -0.38545   -0.58673   -0.00000    7
   18      0.147D-10      0.157D-11      -115.08917347    163.004420   -0.38545   -0.58673   -0.00000    7
   19      0.302D-11      0.497D-12      -115.08917347    163.004420   -0.38545   -0.58673   -0.00000    7
   20      0.120D-11      0.124D-12      -115.08917347    163.004420   -0.38545   -0.58673   -0.00000    7
   21      0.271D-12      0.519D-13      -115.08917347    163.004420   -0.38545   -0.58673   -0.00000    7
   22      0.146D-12      0.305D-13      -115.08917347    163.004420   -0.38545   -0.58673   -0.00000    8
   23      0.969D-13      0.185D-13      -115.08917347    163.004420   -0.38545   -0.58673   -0.00000    8
   24      0.576D-13      0.241D-13      -115.08917347    163.004420   -0.38545   -0.58673   -0.00000    9
   25      0.321D-13      0.203D-13      -115.08917347    163.004420   -0.38545   -0.58673   -0.00000    9
   26      0.254D-13      0.206D-13      -115.08917347    163.004420   -0.38545   -0.58673   -0.00000    9
   27      0.223D-13      0.182D-13      -115.08917347    163.004420   -0.38545   -0.58673   -0.00000    9
   28      0.144D-13      0.251D-13      -115.08917347    163.004420   -0.38545   -0.58673   -0.00000    9
   29      0.868D-14      0.178D-13      -115.08917347    163.004420   -0.38545   -0.58673   -0.00000    9
   30      0.161D-13      0.219D-13      -115.08917347    163.004420   -0.38545   -0.58673   -0.00000    9
   31      0.143D-13      0.204D-13      -115.08917347    163.004420   -0.38545   -0.58673   -0.00000    9
   32      0.138D-13      0.203D-13      -115.08917347    163.004420   -0.38545   -0.58673   -0.00000    9
   33      0.416D-13      0.149D-13      -115.08917347    163.004420   -0.38545   -0.58673   -0.00000    9
   34      0.316D-13      0.193D-13      -115.08917347    163.004420   -0.38545   -0.58673   -0.00000    9
   35      0.163D-13      0.180D-13      -115.08917347    163.004420   -0.38545   -0.58673   -0.00000    9
   36      0.135D-13      0.177D-13      -115.08917347    163.004420   -0.38545   -0.58673   -0.00000    9
   37      0.234D-13      0.202D-13      -115.08917347    163.004420   -0.38545   -0.58673   -0.00000    9
   38      0.209D-13      0.141D-13      -115.08917347    163.004420   -0.38545   -0.58673   -0.00000    9
   39      0.254D-13      0.151D-13      -115.08917347    163.004420   -0.38545   -0.58673   -0.00000    9
   40      0.159D-13      0.193D-13      -115.08917347    163.004420   -0.38545   -0.58673   -0.00000    9
   41      0.165D-13      0.172D-13      -115.08917347    163.004420   -0.38545   -0.58673   -0.00000    9
   42      0.146D-13      0.171D-13      -115.08917347    163.004420   -0.38545   -0.58673   -0.00000    9
   43      0.354D-13      0.211D-13      -115.08917347    163.004420   -0.38545   -0.58673   -0.00000    9
   44      0.106D-13      0.217D-13      -115.08917347    163.004420   -0.38545   -0.58673   -0.00000    0

 Final occupancy:   9

 !RHF STATE 1.1 Energy               -115.089173469901
 Nuclear energy                        40.30412552
 One-electron energy                 -236.89550896
 Two-electron energy                   81.50220997
 Virial quotient                       -1.00129549
 !RHF STATE 1.1 Dipole moment          -0.38544771    -0.58673271    -0.00000126
 Dipole moment /Debye                  -0.97964620    -1.49122813    -0.00000320

 Orbital energies:

         1.1          2.1          3.1          4.1          5.1          6.1          7.1          8.1          9.1         10.1
    -20.552359   -11.269795    -1.353825    -0.923222    -0.687826    -0.617418    -0.590493    -0.501726    -0.448881     0.138458

        11.1
      0.178471


 **********************************************************************************************************************************
 DATASETS  * FILE   NREC   LENGTH (MB)   RECORD NAMES
              1      19      176.10       500      610      700      900      950      970     1000      129      960     1100   
                                          VAR    BASINP    GEOM    SYMINP    ZMAT    AOBASIS   BASIS     P2S    ABASIS      S 
                                         1400     1410     1200     1210     1080     1600     1650     1300     1700   
                                           T        V       H0       H01     AOSYM     SMH    MOLCAS    ERIS     OPER   

              2       3        0.63       700     1000     2100   
                                         GEOM     BASIS     RHF  

 PROGRAMS   *        TOTAL       RHF       INT
 CPU TIMES  *         9.35      7.60      1.70
 REAL TIME  *        10.82 SEC
 DISK USED  *       653.98 MB      
 GA USED    *         0.00 MB       (max)       0.00 MB       (current)
 **********************************************************************************************************************************


1PROGRAM * CCSD (Closed-shell coupled cluster)     Authors: C. Hampel, H.-J. Werner, 1991, M. Deegan, P.J. Knowles, 1992


 Convergence thresholds:  THRVAR = 1.00D-08  THRDEN = 1.00D-12

 CCSD(T)     terms to be evaluated (factor= 1.000)


 Number of core orbitals:           2 (   2 )
 Number of closed-shell orbitals:   7 (   7 )
 Number of external orbitals:     107 ( 107 )

 Molecular orbitals read from record     2100.2  Type=RHF/CANONICAL (state 1.1)

 Number of N-1 electron functions:               7
 Number of N-2 electron functions:              28
 Number of singly external CSFs:               749
 Number of doubly external CSFs:            280875
 Total number of CSFs:                      281625

 Length of J-op  integral file:               0.00 MB
 Length of K-op  integral file:               0.96 MB
 Length of 3-ext integral record:             0.00 MB

 Memory could be reduced to 12.77 Mwords without degradation in triples

 Integral transformation finished. Total CPU:   0.71 sec, npass=  1  Memory used:   7.23 MW

 Reference energy:                   -115.08917347

 MP2 singlet pair energy:              -0.28099289
 MP2 triplet pair energy:              -0.14727153
 MP2 correlation energy:               -0.42826442
 MP2 total energy:                   -115.51743789

 SCS-MP2 correlation energy:           -0.42882709   (PS=  1.200000  PT=  0.333333)
 SCS-MP2 total energy:               -115.51800056

 ITER.      SQ.NORM     CORR.ENERGY   TOTAL ENERGY   ENERGY CHANGE        DEN1      VAR(S)    VAR(P)  DIIS     TIME
   1      1.11800193    -0.44555991  -115.53473338    -0.01729548    -0.00695191  0.12D-02  0.18D-02  1  1     1.58
   2      1.12588000    -0.44674598  -115.53591945    -0.00118607    -0.00944507  0.16D-04  0.22D-03  2  2     2.49
   3      1.12846862    -0.44682249  -115.53599596    -0.00007651    -0.00178210  0.75D-05  0.10D-04  3  3     3.40
   4      1.12910787    -0.44682399  -115.53599746    -0.00000150    -0.00033249  0.35D-06  0.84D-06  4  4     4.31
   5      1.12921325    -0.44682581  -115.53599928    -0.00000182    -0.00003991  0.11D-06  0.65D-07  5  5     5.21
   6      1.12923830    -0.44682365  -115.53599712     0.00000216    -0.00000747  0.18D-07  0.50D-08  6  6     6.13
   7      1.12924192    -0.44682356  -115.53599703     0.00000009    -0.00000027  0.27D-08  0.91D-09  6  2     7.03
   8      1.12924328    -0.44682351  -115.53599698     0.00000005     0.00000002  0.43D-09  0.11D-09  6  1     7.93
   9      1.12924402    -0.44682345  -115.53599692     0.00000005    -0.00000003  0.28D-10  0.17D-10  6  3     8.84
  10      1.12924410    -0.44682347  -115.53599694    -0.00000002     0.00000007  0.25D-11  0.19D-11  6  4     9.75
  11      1.12924396    -0.44682348  -115.53599695    -0.00000001     0.00000011  0.23D-12  0.12D-12  6  6    10.65
  12      1.12924395    -0.44682348  -115.53599695    -0.00000000     0.00000001  0.27D-13  0.11D-13  6  5    11.55
  13      1.12924395    -0.44682348  -115.53599695    -0.00000000    -0.00000000  0.56D-14  0.17D-14  6  2    12.46
  14      1.12924395    -0.44682348  -115.53599695     0.00000000    -0.00000000  0.43D-15  0.14D-15  6  1    13.36
  15      1.12924395    -0.44682348  -115.53599695    -0.00000000    -0.00000000  0.63D-16  0.28D-16  6  3    14.26
  16      1.12924395    -0.44682348  -115.53599695     0.00000000     0.00000000  0.18D-16  0.34D-17  6  4    15.17
  17      1.12924395    -0.44682348  -115.53599695    -0.00000000     0.00000000  0.12D-17  0.73D-18  6  5    16.07
  18      1.12924395    -0.44682348  -115.53599695    -0.00000000     0.00000000  0.95D-19  0.46D-19  6  6    16.98
  19      1.12924395    -0.44682348  -115.53599695     0.00000000    -0.00000000  0.19D-19  0.10D-19  6  2    17.89
  20      1.12924395    -0.44682348  -115.53599695     0.00000000    -0.00000000  0.13D-20  0.76D-21  6  1    18.80

 Norm of t1 vector:      0.04464924      S-energy:    -0.00000000      T1 diagnostic:  0.00843791
                                                                       D1 diagnostic:  0.01721720


 Total CPU time for triples:      9.23 sec


 RESULTS
 =======

  Reference energy                   -115.089173469901
  CCSD singlet pair energy             -0.313099688725
  CCSD triplet pair energy             -0.133723792734
  CCSD correlation energy              -0.446823481459

  Triples (T) contribution             -0.014781932305
  Total correlation energy             -0.461605413764

  CCSD total energy                  -115.535996951360
  CCSD[T] energy                     -115.551244386006
  CCSD-T energy                      -115.550513511182
 !CCSD(T) total energy               -115.550778883665

 Timing summary (sec):

 STEP                 CPU(USER)    SYS     CPU(TOT)    WALL
 Transformation          0.73      0.08      0.81      0.82
 CCSD iterations        18.07      0.72     18.79     18.85
 Triples                 9.23      0.14      9.37      9.37

 Program statistics:

 Available memory in ccsd:               999999704
 Min. memory needed in ccsd:                915605
 Max. memory used in ccsd:                 1141922
 Max. memory used in cckext:                874802 (20 integral passes)



 **********************************************************************************************************************************
 DATASETS  * FILE   NREC   LENGTH (MB)   RECORD NAMES
              1      20      215.50       500      610      700      900      950      970     1000      129      960     1100   
                                          VAR    BASINP    GEOM    SYMINP    ZMAT    AOBASIS   BASIS     P2S    ABASIS      S 
                                         1400     1410     1200     1210     1080     1600     1650     1300     1700     1380   
                                           T        V       H0       H01     AOSYM     SMH    MOLCAS    ERIS     OPER     JKOP   

              2       3        0.63       700     1000     2100   
                                         GEOM     BASIS     RHF  

 PROGRAMS   *        TOTAL   CCSD(T)       RHF       INT
 CPU TIMES  *        37.40     28.04      7.60      1.70
 REAL TIME  *        39.90 SEC
 DISK USED  *       653.98 MB      
 GA USED    *         0.00 MB       (max)       0.00 MB       (current)
 **********************************************************************************************************************************

        CCSD(T)         RHF-SCF 
   -115.55077888   -115.08917347
 **********************************************************************************************************************************
 Variable memory released
