
 Primary working directories    : /tmp/329746.1.debug.q
 Secondary working directories  : /tmp/329746.1.debug.q
 Wavefunction directory         : /home/vulcan/mel64643/wfu/
 Main file repository           : /tmp/329746.1.debug.q/

 ARCHNAME  : Linux/x86_64
 FC        : /opt/intel/compilers_and_libraries_2016.1.150/linux/bin/intel64/ifort
 FCVERSION : 16.0.1
 BLASLIB   : -mkl
 id        : ccgc

 Nodes     nprocs
 n044         3
 Number of processes for MPI-2 version of Molpro:   nprocs(total)=    4   nprocs(compute)=    3   nprocs(helper)=    1
 ga_uses_ma=false, calling ma_init with nominal heap.
 GA-space will be limited to   8.0 MW (determined by -G option)

 Using customized tuning parameters: mindgm=10; mindgv=16; mindgc=4; mindgr=1; noblas=0; mincuda=1000; minvec=7
 default implementation of scratch files=sf  

 ***,Optimization of min3
 memory,1000,m
 gthresh,energy=1.0d-10,orbital=1.0d-10,oneint=1.0d-16,twoint=1.0d-16,optgrad=1.0d-6,compress=1.0d-13
 geomtyp=xyz
 
  bohr
  geometry = {
  3
  arbitrary comment
  H         -1.8897259886          1.4550890112          0.0000000000
  O          0.0000000000          0.0000000000          0.0000000000
  H          1.8897259886          1.4550890112          0.0000000000
 }
 
 basis=cc-pvtz
 {rhf;maxit,200}
 {uccsd(t);maxit,200}

 Variables initialized (661), CPU time= 0.00 sec
 Commands  initialized (458), CPU time= 0.00 sec, 486 directives.
 Default parameters read. Elapsed time= 0.06 sec

 Checking input...
 Passed
1


                                         ***  PROGRAM SYSTEM MOLPRO  ***
                         Copyright, University College Cardiff Consultants Limited, 2008

                                    Version 2010.1 linked May 16 2016 07:17:05


 **********************************************************************************************************************************
 LABEL *   Optimization of min3                                                          
 Linux-4.4.3/n044(x86_64) 64 bit mpp version                                             DATE: 12-Jun-20          TIME: 11:57:35  
 **********************************************************************************************************************************

 SHA1:             9e8077add272b0f3cad6f7df79ec5211205f459d
 **********************************************************************************************************************************

 THRESHOLDS:

 ZERO    =  1.00D-12  ONEINT  =  1.00D-16  TWOINT  =  1.00D-16  PREFAC  =  1.00D-14  LOCALI  =  1.00D-09  EORDER  =  1.00D-04
 ENERGY  =  1.00D-10  ETEST   =  0.00D+00  EDENS   =  0.00D+00  THRDEDEF=  1.00D-06  GRADIENT=  1.00D-02  STEP    =  1.00D-03
 ORBITAL =  1.00D-10  CIVEC   =  1.00D-05  COEFF   =  1.00D-04  PRINTCI =  5.00D-02  PUNCHCI =  9.90D+01  OPTGRAD =  1.00D-06
 OPTENERG=  1.00D-06  OPTSTEP =  3.00D-04  THRGRAD =  1.00D-10  COMPRESS=  1.00D-13  VARMIN  =  1.00D-07  VARMAX  =  1.00D-03
 THRDOUB =  0.00D+00  THRDIV  =  1.00D-05  THRRED  =  1.00D-07  THRPSP  =  1.00D+00  THRDC   =  1.00D-10  THRCS   =  1.00D-10
 THRNRM  =  1.00D-08  THREQ   =  0.00D+00  THRDE   =  1.00D+00  THRREF  =  1.00D-05  SPARFAC =  1.00D+00  THRDLP  =  1.00D-07
 THRDIA  =  1.00D-10  THRDLS  =  1.00D-07  THRGPS  =  0.00D+00  THRKEX  =  0.00D+00  THRDIS  =  2.00D-01  THRVAR  =  1.00D-10
 THRLOC  =  1.00D-06  THRGAP  =  1.00D-06  THRLOCT = -1.00D+00  THRGAPT = -1.00D+00  THRORB  =  1.00D-06  THRMLTP =  0.00D+00
 THRCPQCI=  1.00D-10  KEXTA   =  0.00D+00  THRCOARS=  0.00D+00  SYMTOL  =  1.00D-06  GRADTOL =  1.00D-06  THROVL  =  1.00D-08
 THRORTH =  1.00D-08  GRID    =  1.00D-06  GRIDMAX =  1.00D-03  DTMAX   =  0.00D+00

 SETTING GEOMTYP        =    XYZ
 ZUNIT=BOHR
 

 Variable memory set to 1000000000 words,  buffer space   230000 words

 SETTING BASIS          =    CC-PVTZ


 Recomputing integrals since basis changed


 Using spherical harmonics

 Library entry H      S cc-pVTZ              selected for orbital group  1
 Library entry H      P cc-pVTZ              selected for orbital group  1
 Library entry H      D cc-pVTZ              selected for orbital group  1
 Library entry O      S cc-pVTZ              selected for orbital group  2
 Library entry O      P cc-pVTZ              selected for orbital group  2
 Library entry O      D cc-pVTZ              selected for orbital group  2
 Library entry O      F cc-pVTZ              selected for orbital group  2

1PROGRAM * SEWARD (Integral evaluation for generally contracted gaussian basis sets)     Author: Roland Lindh, 1990

 Geometry written to block  1 of record 700


 Point group  C2v 



 ATOMIC COORDINATES

 NR  ATOM    CHARGE       X              Y              Z

   1  H       1.00   -1.889725989    1.455089011    0.000000000
   2  H       1.00    1.889725989    1.455089011    0.000000000
   3  O       8.00    0.000000000    0.000000000    0.000000000

 Bond lengths in Bohr (Angstrom)

 1-3  2.385025858  2-3  2.385025858
     ( 1.262101327)     ( 1.262101327)

 Bond angles

  1-3-2  104.80745771

 NUCLEAR CHARGE:                   10
 NUMBER OF PRIMITIVE AOS:          81
 NUMBER OF SYMMETRY AOS:           74
 NUMBER OF CONTRACTIONS:           58   (  23A1  +  17B1  +  11B2  +   7A2  )
 NUMBER OF CORE ORBITALS:           1   (   1A1  +   0B1  +   0B2  +   0A2  )
 NUMBER OF VALENCE ORBITALS:        6   (   3A1  +   2B1  +   1B2  +   0A2  )


 NUCLEAR REPULSION ENERGY    6.97311128


 Eigenvalues of metric

         1 0.471E-02 0.109E-01 0.288E-01 0.547E-01 0.147E+00 0.188E+00 0.296E+00 0.354E+00
         2 0.790E-02 0.274E-01 0.549E-01 0.108E+00 0.189E+00 0.283E+00 0.366E+00 0.604E+00
         3 0.490E-01 0.180E+00 0.411E+00 0.472E+00 0.733E+00 0.903E+00 0.108E+01 0.115E+01
         4 0.251E+00 0.427E+00 0.739E+00 0.989E+00 0.116E+01 0.137E+01 0.199E+01


 Contracted 2-electron integrals neglected if value below      1.0D-16
 AO integral compression algorithm  1   Integral accuracy      1.0D-16

     4.456 MB (compressed) written to integral file (100.0%)

     Node minimum: 1.311 MB, node maximum: 1.573 MB


 NUMBER OF SORTED TWO-ELECTRON INTEGRALS:     132111.     BUFFER LENGTH:  32768
 NUMBER OF SEGMENTS:   1  SEGMENT LENGTH:     132111      RECORD LENGTH: 524288

 Memory used in sort:       0.69 MW

 SORT1 READ      546378. AND WROTE      121337. INTEGRALS IN      1 RECORDS. CPU TIME:     0.02 SEC, REAL TIME:     0.02 SEC
 SORT2 READ      367036. AND WROTE      396151. INTEGRALS IN     15 RECORDS. CPU TIME:     0.00 SEC, REAL TIME:     0.01 SEC

 Node minimum:      130764.  Node maximum:      133276. integrals

 OPERATOR DM      FOR CENTER  0  COORDINATES:    0.000000    0.000000    0.000000


 **********************************************************************************************************************************
 DATASETS  * FILE   NREC   LENGTH (MB)   RECORD NAMES
              1      18        2.63       500      610      700      900      950      970     1000      129      960     1100   
                                          VAR    BASINP    GEOM    SYMINP    ZMAT    AOBASIS   BASIS     P2S    ABASIS      S 
                                         1400     1410     1200     1210     1080     1600     1650     1700   
                                           T        V       H0       H01     AOSYM     SMH    MOLCAS    OPER   

 PROGRAMS   *        TOTAL       INT
 CPU TIMES  *         0.44      0.38
 REAL TIME  *         0.65 SEC
 DISK USED  *        15.71 MB      
 GA USED    *         0.00 MB       (max)       0.00 MB       (current)
 **********************************************************************************************************************************

1PROGRAM * RHF-SCF (CLOSED SHELL)       Authors: W. Meyer, H.-J. Werner


 NUMBER OF ELECTRONS:       5+    5-
 CONVERGENCE THRESHOLDS:    1.00E-10 (Density)    1.00E-11 (Energy)
 MAX. NUMBER OF ITERATIONS:      200
 INTERPOLATION TYPE:            DIIS
 INTERPOLATION STEPS:              2 (START)      1 (STEP)
 LEVEL SHIFTS:                  0.00 (CLOSED)  0.00 (OPEN) 



 Orbital guess generated from atomic densities. Full valence occupancy:    4   2   1   0

 Molecular orbital dump at record        2100.2

 Initial alpha occupancy:   3   1   1   0
 Initial beta  occupancy:   3   1   1   0
 Wave function symmetry:    1

 ITERATION    DDIFF          GRAD             ENERGY        2-EL.EN.            DIPOLE MOMENTS         DIIS
    1      0.000D+00      0.000D+00       -75.87658481     75.149298    0.00000    1.58082    0.00000    0
    2      0.000D+00      0.212D-01       -75.90617642     69.585341    0.00000    0.64475    0.00000    1
    3      0.364D-01      0.186D-01       -75.93673918     72.124985    0.00000    0.91098    0.00000    2
    4      0.163D-01      0.165D-02       -75.93740724     72.079835    0.00000    0.88191    0.00000    3
    5      0.265D-02      0.679D-03       -75.93752872     72.104110    0.00000    0.86620    0.00000    4
    6      0.142D-02      0.112D-03       -75.93753365     72.097441    0.00000    0.86269    0.00000    5
    7      0.289D-03      0.214D-04       -75.93753378     72.097769    0.00000    0.86227    0.00000    6
    8      0.521D-04      0.293D-05       -75.93753379     72.097732    0.00000    0.86225    0.00000    5
    9      0.595D-05      0.119D-05       -75.93753379     72.097755    0.00000    0.86223    0.00000    6
   10      0.363D-05      0.345D-06       -75.93753379     72.097749    0.00000    0.86222    0.00000    6
   11      0.134D-05      0.418D-07       -75.93753379     72.097750    0.00000    0.86222    0.00000    6
   12      0.140D-06      0.716D-08       -75.93753379     72.097749    0.00000    0.86222    0.00000    6
   13      0.182D-07      0.206D-08       -75.93753379     72.097749    0.00000    0.86222    0.00000    6
   14      0.377D-08      0.407D-09       -75.93753379     72.097749    0.00000    0.86222    0.00000    6
   15      0.766D-09      0.206D-09       -75.93753379     72.097749    0.00000    0.86222    0.00000    6
   16      0.461D-09      0.401D-10       -75.93753379     72.097749    0.00000    0.86222    0.00000    6
   17      0.729D-10      0.968D-11       -75.93753379     72.097749    0.00000    0.86222    0.00000    0

 Final occupancy:   3   1   1   0

 !RHF STATE 1.1 Energy                -75.937533787791
 Nuclear energy                         6.97311128
 One-electron energy                 -118.95951973
 Two-electron energy                   36.04887467
 Virial quotient                       -1.00877133
 !RHF STATE 1.1 Dipole moment           0.00000000     0.86222258     0.00000000
 Dipole moment /Debye                   0.00000000     2.19140767     0.00000000

 Orbital energies:

         1.1          2.1          3.1          4.1          5.1
    -20.600013    -1.241182    -0.520702     0.092987     0.454192

         1.2          2.2          3.2
     -0.576513     0.155987     0.435627

         1.3          2.3          3.3
     -0.492475     0.744300     0.961137

         1.4          2.4
      0.802488     1.928206


 **********************************************************************************************************************************
 DATASETS  * FILE   NREC   LENGTH (MB)   RECORD NAMES
              1      18        2.63       500      610      700      900      950      970     1000      129      960     1100   
                                          VAR    BASINP    GEOM    SYMINP    ZMAT    AOBASIS   BASIS     P2S    ABASIS      S 
                                         1400     1410     1200     1210     1080     1600     1650     1700   
                                           T        V       H0       H01     AOSYM     SMH    MOLCAS    OPER   

              2       3        0.32       700     1000     2100   
                                         GEOM     BASIS     RHF  

 PROGRAMS   *        TOTAL       RHF       INT
 CPU TIMES  *         0.45      0.01      0.38
 REAL TIME  *         0.69 SEC
 DISK USED  *        25.65 MB      
 SF USED    *         0.00 MB      
 GA USED    *         0.00 MB       (max)       0.00 MB       (current)
 **********************************************************************************************************************************


1PROGRAM * CCSD (Unrestricted open-shell coupled cluster)     Authors: C. Hampel, H.-J. Werner, 1991, M. Deegan, P.J. Knowles, 1992


 Convergence thresholds:  THRVAR = 1.00D-08  THRDEN = 1.00D-10

 CCSD(T)     terms to be evaluated (factor= 1.000)


 Number of core orbitals:           1 (   1   0   0   0 )
 Number of closed-shell orbitals:   4 (   2   1   1   0 )
 Number of external orbitals:      53 (  20  16  10   7 )

 Memory could be reduced to 0.77 Mwords without degradation in triples

 Number of N-1 electron functions:               8
 Number of N-2 electron functions:              28
 Number of singly external CSFs:               132
 Number of doubly external CSFs:             15806
 Total number of CSFs:                       15938

 Molecular orbitals read from record     2100.2  Type=RHF/CANONICAL (state 1.1)

 Integral transformation finished. Total CPU:   0.00 sec, npass=  1  Memory used:   0.12 MW

 Starting RMP2 calculation

 ITER.      SQ.NORM     CORR.ENERGY   TOTAL ENERGY   ENERGY CHANGE        DEN1      VAR(S)    VAR(P)  DIIS     TIME
   1      1.08420210    -0.28479646   -76.22233025    -0.28479646    -0.00104878  0.62D-22  0.45D-03  1  1     0.01
   2      1.08525609    -0.28592402   -76.22345781    -0.00112756    -0.00000130  0.66D-24  0.69D-06  2  2     0.01
   3      1.08528676    -0.28594364   -76.22347743    -0.00001962    -0.00000000  0.60D-26  0.12D-08  3  3     0.01
   4      1.08528724    -0.28594378   -76.22347757    -0.00000014    -0.00000000  0.46D-28  0.13D-11  4  4     0.01
   5      1.08528725    -0.28594378   -76.22347757    -0.00000000    -0.00000000  0.46D-30  0.19D-14  5  5     0.01
   6      1.08528725    -0.28594378   -76.22347757     0.00000000    -0.00000000  0.48D-32  0.30D-17  6  6     0.01

 Norm of t1 vector:      0.00000000      S-energy:    -0.00000000      T1 diagnostic:  0.00000000
 Norm of t2 vector:      0.29203980      P-energy:    -0.28594378
                                         Alpha-Beta:  -0.21793564
                                         Alpha-Alpha: -0.03400407
                                         Beta-Beta:   -0.03400407

 Spin contamination <S**2-Sz**2-Sz>     0.00000000
  Reference energy                    -75.937533787791
  RHF-RMP2 correlation energy          -0.285943783348
 !RHF-RMP2 energy                     -76.223477571139

 Starting UCCSD calculation

 ITER.      SQ.NORM     CORR.ENERGY   TOTAL ENERGY   ENERGY CHANGE        DEN1      VAR(S)    VAR(P)  DIIS     TIME
   1      1.08234966    -0.27896299   -76.21649677    -0.27896299    -0.00879694  0.10D-02  0.19D-02  1  1     0.01
   2      1.09167572    -0.28732868   -76.22486246    -0.00836569    -0.00102623  0.67D-04  0.41D-03  2  2     0.02
   3      1.09690274    -0.28973192   -76.22726570    -0.00240324    -0.00010290  0.15D-04  0.36D-04  3  3     0.03
   4      1.09905688    -0.29050062   -76.22803441    -0.00076871    -0.00000889  0.31D-05  0.26D-05  4  4     0.03
   5      1.09950275    -0.29059372   -76.22812751    -0.00009310    -0.00000138  0.76D-06  0.28D-06  5  5     0.04
   6      1.09963130    -0.29060839   -76.22814218    -0.00001467    -0.00000020  0.12D-06  0.39D-07  6  6     0.05
   7      1.09966885    -0.29061175   -76.22814554    -0.00000336    -0.00000002  0.12D-07  0.45D-08  6  1     0.05
   8      1.09968080    -0.29061152   -76.22814531     0.00000023    -0.00000000  0.93D-09  0.55D-09  6  2     0.06
   9      1.09968279    -0.29061192   -76.22814570    -0.00000040    -0.00000000  0.40D-10  0.77D-10  6  3     0.07
  10      1.09968324    -0.29061169   -76.22814547     0.00000023    -0.00000000  0.34D-11  0.95D-11  6  4     0.07
  11      1.09968335    -0.29061177   -76.22814555    -0.00000008    -0.00000000  0.24D-12  0.86D-12  6  5     0.08
  12      1.09968336    -0.29061175   -76.22814554     0.00000002    -0.00000000  0.32D-13  0.90D-13  6  6     0.08
  13      1.09968331    -0.29061174   -76.22814553     0.00000001    -0.00000000  0.27D-14  0.67D-14  6  2     0.09
  14      1.09968330    -0.29061174   -76.22814553     0.00000000    -0.00000000  0.42D-15  0.38D-15  6  1     0.10
  15      1.09968330    -0.29061174   -76.22814552     0.00000000    -0.00000000  0.67D-16  0.48D-16  6  3     0.10
  16      1.09968330    -0.29061174   -76.22814552     0.00000000    -0.00000000  0.97D-17  0.42D-17  6  4     0.11
  17      1.09968330    -0.29061174   -76.22814552     0.00000000    -0.00000000  0.61D-18  0.39D-18  6  5     0.12
  18      1.09968330    -0.29061174   -76.22814552    -0.00000000    -0.00000000  0.74D-19  0.57D-19  6  6     0.12

 Norm of t1 vector:      0.05121944      S-energy:     0.00000000      T1 diagnostic:  0.01280486
                                                                       D1 diagnostic:  0.02510213
 Norm of t2 vector:      0.31154432      P-energy:    -0.29061174
                                         Alpha-Beta:  -0.23438519
                                         Alpha-Alpha: -0.02811327
                                         Beta-Beta:   -0.02811327

 Doubles amplitudes (print threshold =  0.500E-01):

         I         J         SYM. A    SYM. B    A         B      T(IJ, AB) [Alpha-Beta]

         2         2         1         1         1         1     -0.05322023
         3         3         2         2         1         1     -0.05830489

 Spin contamination <S**2-Sz**2-Sz>     0.00000000

 Memory could be reduced to 0.78 Mwords without degradation in triples
 

 RESULTS
 =======

  Reference energy                    -75.937533787791
  UCCSD singles energy                  0.000000000001
  UCCSD pair energy                    -0.290611735898
  UCCSD correlation energy             -0.290611735897
  Triples (T) contribution             -0.010817991805
  Total correlation energy             -0.301429727702
 
  RHF-UCCSD energy                    -76.228145523688
  RHF-UCCSD[T] energy                 -76.239393545706
  RHF-UCCSD-T energy                  -76.238686477319
 !RHF-UCCSD(T) energy                 -76.238963515493

 Program statistics:

 Available memory in ccsd:               999999732
 Min. memory needed in ccsd:                 67584
 Max. memory used in ccsd:                   84132
 Max. memory used in cckext:                106140 (18 integral passes)
 Max. memory used in cckint:                119873 ( 1 integral passes)



 **********************************************************************************************************************************
 DATASETS  * FILE   NREC   LENGTH (MB)   RECORD NAMES
              1      18        2.63       500      610      700      900      950      970     1000      129      960     1100   
                                          VAR    BASINP    GEOM    SYMINP    ZMAT    AOBASIS   BASIS     P2S    ABASIS      S 
                                         1400     1410     1200     1210     1080     1600     1650     1700   
                                           T        V       H0       H01     AOSYM     SMH    MOLCAS    OPER   

              2       3        0.32       700     1000     2100   
                                         GEOM     BASIS     RHF  

 PROGRAMS   *        TOTAL  UCCSD(T)       RHF       INT
 CPU TIMES  *         0.63      0.18      0.01      0.38
 REAL TIME  *         0.94 SEC
 DISK USED  *        31.15 MB      
 SF USED    *         5.59 MB      
 GA USED    *         0.00 MB       (max)       0.00 MB       (current)
 **********************************************************************************************************************************

        UCCSD(T)        RHF-SCF 
    -76.23896352    -75.93753379
 **********************************************************************************************************************************
 Variable memory released
