
 Primary working directories    : /tmp/333988.32.gen6.q
 Secondary working directories  : /tmp/333988.32.gen6.q
 Wavefunction directory         : /home/vulcan/mel64643/wfu/
 Main file repository           : /tmp/333988.32.gen6.q/

 ARCHNAME  : Linux/x86_64
 FC        : /opt/intel/compilers_and_libraries_2016.1.150/linux/bin/intel64/ifort
 FCVERSION : 16.0.1
 BLASLIB   : -mkl
 id        : ccgc

 Nodes     nprocs
 n083         3
 Number of processes for MPI-2 version of Molpro:   nprocs(total)=    4   nprocs(compute)=    3   nprocs(helper)=    1
 ga_uses_ma=false, calling ma_init with nominal heap.
 GA-space will be limited to   8.0 MW (determined by -G option)

 Using customized tuning parameters: mindgm=10; mindgv=16; mindgc=4; mindgr=1; noblas=0; mincuda=1000; minvec=7
 default implementation of scratch files=sf  

 ***,Optimization of min3
 memory,1000,m
 gthresh,energy=1.0d-10,orbital=1.0d-10,oneint=1.0d-16,twoint=1.0d-16,optgrad=1.0d-6,compress=1.0d-13
 geomtyp=xyz
 
  bohr
  geometry = {
  12
  arbitrary comment
  C         -3.1018400857          1.5856362171          0.0186942629
  C         -0.8592996023         -0.0708434961         -0.6556954207
  C         -1.1193762338         -2.7797003214          0.2451321635
  O          1.3121262384          1.1052234904          0.5903667132
  O          3.4484954756          0.1201808719         -0.2518281247
  H         -4.8102088092          0.8524903112         -0.8734682092
  H         -2.8100691731          3.5254499041         -0.6133025190
  H         -3.3927276192          1.6005237166          2.0616225714
  H         -0.4917487125         -0.0167940247         -2.6846294746
  H         -2.6962242749         -3.6971713599         -0.7181110958
  H         -1.4665232413         -2.8222607584          2.2792895021
  H          0.6058132398         -3.8292561680         -0.1583368752
 }
 
 basis=cc-pvtz
 {rhf;maxit,200}
 {uccsd(t);maxit,200}

 Variables initialized (661), CPU time= 0.00 sec
 Commands  initialized (458), CPU time= 0.00 sec, 486 directives.
 Default parameters read. Elapsed time= 0.06 sec

 Checking input...
 Passed
1


                                         ***  PROGRAM SYSTEM MOLPRO  ***
                         Copyright, University College Cardiff Consultants Limited, 2008

                                    Version 2010.1 linked May 16 2016 07:17:05


 **********************************************************************************************************************************
 LABEL *   Optimization of min3                                                          
 Linux-4.4.3/n083(x86_64) 64 bit mpp version                                             DATE: 15-Jul-20          TIME: 12:20:52  
 **********************************************************************************************************************************

 SHA1:             9e8077add272b0f3cad6f7df79ec5211205f459d
 **********************************************************************************************************************************

 THRESHOLDS:

 ZERO    =  1.00D-12  ONEINT  =  1.00D-16  TWOINT  =  1.00D-16  PREFAC  =  1.00D-14  LOCALI  =  1.00D-09  EORDER  =  1.00D-04
 ENERGY  =  1.00D-10  ETEST   =  0.00D+00  EDENS   =  0.00D+00  THRDEDEF=  1.00D-06  GRADIENT=  1.00D-02  STEP    =  1.00D-03
 ORBITAL =  1.00D-10  CIVEC   =  1.00D-05  COEFF   =  1.00D-04  PRINTCI =  5.00D-02  PUNCHCI =  9.90D+01  OPTGRAD =  1.00D-06
 OPTENERG=  1.00D-06  OPTSTEP =  3.00D-04  THRGRAD =  1.00D-10  COMPRESS=  1.00D-13  VARMIN  =  1.00D-07  VARMAX  =  1.00D-03
 THRDOUB =  0.00D+00  THRDIV  =  1.00D-05  THRRED  =  1.00D-07  THRPSP  =  1.00D+00  THRDC   =  1.00D-10  THRCS   =  1.00D-10
 THRNRM  =  1.00D-08  THREQ   =  0.00D+00  THRDE   =  1.00D+00  THRREF  =  1.00D-05  SPARFAC =  1.00D+00  THRDLP  =  1.00D-07
 THRDIA  =  1.00D-10  THRDLS  =  1.00D-07  THRGPS  =  0.00D+00  THRKEX  =  0.00D+00  THRDIS  =  2.00D-01  THRVAR  =  1.00D-10
 THRLOC  =  1.00D-06  THRGAP  =  1.00D-06  THRLOCT = -1.00D+00  THRGAPT = -1.00D+00  THRORB  =  1.00D-06  THRMLTP =  0.00D+00
 THRCPQCI=  1.00D-10  KEXTA   =  0.00D+00  THRCOARS=  0.00D+00  SYMTOL  =  1.00D-06  GRADTOL =  1.00D-06  THROVL  =  1.00D-08
 THRORTH =  1.00D-08  GRID    =  1.00D-06  GRIDMAX =  1.00D-03  DTMAX   =  0.00D+00

 SETTING GEOMTYP        =    XYZ
 ZUNIT=BOHR
 

 Variable memory set to 1000000000 words,  buffer space   230000 words

 SETTING BASIS          =    CC-PVTZ


 Recomputing integrals since basis changed


 Using spherical harmonics

 Library entry C      S cc-pVTZ              selected for orbital group  1
 Library entry C      P cc-pVTZ              selected for orbital group  1
 Library entry C      D cc-pVTZ              selected for orbital group  1
 Library entry C      F cc-pVTZ              selected for orbital group  1
 Library entry O      S cc-pVTZ              selected for orbital group  2
 Library entry O      P cc-pVTZ              selected for orbital group  2
 Library entry O      D cc-pVTZ              selected for orbital group  2
 Library entry O      F cc-pVTZ              selected for orbital group  2
 Library entry H      S cc-pVTZ              selected for orbital group  3
 Library entry H      P cc-pVTZ              selected for orbital group  3
 Library entry H      D cc-pVTZ              selected for orbital group  3

1PROGRAM * SEWARD (Integral evaluation for generally contracted gaussian basis sets)     Author: Roland Lindh, 1990

 Geometry written to block  1 of record 700


 Point group  C1  



 ATOMIC COORDINATES

 NR  ATOM    CHARGE       X              Y              Z

   1  C       6.00   -3.101840086    1.585636217    0.018694263
   2  C       6.00   -0.859299602   -0.070843496   -0.655695421
   3  C       6.00   -1.119376234   -2.779700321    0.245132163
   4  O       8.00    1.312126238    1.105223490    0.590366713
   5  O       8.00    3.448495476    0.120180872   -0.251828125
   6  H       1.00   -4.810208809    0.852490311   -0.873468209
   7  H       1.00   -2.810069173    3.525449904   -0.613302519
   8  H       1.00   -3.392727619    1.600523717    2.061622571
   9  H       1.00   -0.491748713   -0.016794025   -2.684629475
  10  H       1.00   -2.696224275   -3.697171360   -0.718111096
  11  H       1.00   -1.466523241   -2.822260758    2.279289502
  12  H       1.00    0.605813240   -3.829256168   -0.158336875

 Bond lengths in Bohr (Angstrom)

 1-2  2.868399258  1-6  2.062033097  1-7  2.060928756  1-8  2.063587475  2-3  2.866537195
     ( 1.517891514)     ( 1.091180919)     ( 1.090596527)     ( 1.092003461)     ( 1.516906152)

  2- 4  2.766025050   2- 9  2.062665362   3-10  2.063017312   3-11  2.064005454   3-12  2.059279840
       ( 1.463717416)       ( 1.091515500)       ( 1.091701743)       ( 1.092224645)       ( 1.089723958)

 4-5  2.498734604
     ( 1.322273404)

 Bond angles

  1-2-3  113.63503022   1-2-4  105.20615154   1-2-9  110.82072774   2-1-6  109.91777181

  2- 1- 7  111.14776182   2- 1- 8  110.31175242   2- 3-10  110.05231313   2- 3-11  110.14868848

  2- 3-12  110.12413637   2- 4- 5  110.59370007   3- 2- 4  109.35687424   3- 2- 9  110.49017020

  4-2-9  106.98330094   6-1-7  108.61838752   6-1-8  108.30708153   7-1-8  108.46662620

 10- 3-11  108.81008542  10- 3-12  108.79565066  11- 3-12  108.87402881

 NUCLEAR CHARGE:                   41
 NUMBER OF PRIMITIVE AOS:         354
 NUMBER OF SYMMETRY AOS:          322
 NUMBER OF CONTRACTIONS:          248   ( 248A   )
 NUMBER OF CORE ORBITALS:           5   (   5A   )
 NUMBER OF VALENCE ORBITALS:       27   (  27A   )


 NUCLEAR REPULSION ENERGY  186.61777408


 Eigenvalues of metric

         1 0.810E-03 0.962E-03 0.110E-02 0.124E-02 0.137E-02 0.150E-02 0.159E-02 0.164E-02


 Contracted 2-electron integrals neglected if value below      1.0D-16
 AO integral compression algorithm  1   Integral accuracy      1.0D-16

     3371.434 MB (compressed) written to integral file ( 82.1%)

     Node minimum: 819.724 MB, node maximum: 1279.263 MB


 NUMBER OF SORTED TWO-ELECTRON INTEGRALS:  158903334.     BUFFER LENGTH:  32768
 NUMBER OF SEGMENTS:  10  SEGMENT LENGTH:   15997437      RECORD LENGTH: 524288

 Memory used in sort:      16.55 MW

 SORT1 READ   513517132. AND WROTE   152614978. INTEGRALS IN    442 RECORDS. CPU TIME:     8.55 SEC, REAL TIME:     9.65 SEC
 SORT2 READ   459344189. AND WROTE   476679126. INTEGRALS IN  14562 RECORDS. CPU TIME:     1.59 SEC, REAL TIME:     2.63 SEC

 Node minimum:   158882750.  Node maximum:   158903334. integrals

 OPERATOR DM      FOR CENTER  0  COORDINATES:    0.000000    0.000000    0.000000


 **********************************************************************************************************************************
 DATASETS  * FILE   NREC   LENGTH (MB)   RECORD NAMES
              1      18        5.04       500      610      700      900      950      970     1000      129      960     1100   
                                          VAR    BASINP    GEOM    SYMINP    ZMAT    AOBASIS   BASIS     P2S    ABASIS      S 
                                         1400     1410     1200     1210     1080     1600     1650     1700   
                                           T        V       H0       H01     AOSYM     SMH    MOLCAS    OPER   

 PROGRAMS   *        TOTAL       INT
 CPU TIMES  *        16.88     16.82
 REAL TIME  *        19.73 SEC
 DISK USED  *         9.10 GB      
 GA USED    *         0.01 MB       (max)       0.00 MB       (current)
 **********************************************************************************************************************************

1PROGRAM * RHF-SCF (OPEN SHELL)       Authors: W. Meyer, H.-J. Werner


 NUMBER OF ELECTRONS:      21+   20-    SPACE SYMMETRY=1    SPIN SYMMETRY: Doublet 
 CONVERGENCE THRESHOLDS:    1.00E-10 (Density)    1.00E-11 (Energy)
 MAX. NUMBER OF ITERATIONS:      200
 INTERPOLATION TYPE:            DIIS
 INTERPOLATION STEPS:              2 (START)      1 (STEP)
 LEVEL SHIFTS:                 -0.30 (CLOSED)  0.00 (OPEN) 



 Orbital guess generated from atomic densities. Full valence occupancy:   32

 Molecular orbital dump at record        2100.2

 ITERATION    DDIFF          GRAD             ENERGY        2-EL.EN.            DIPOLE MOMENTS         DIIS
    1      0.000D+00      0.000D+00      -267.26082736    559.760353   -1.76508   -0.06684   -0.09673    0
    2      0.000D+00      0.327D-02      -267.33464147    562.620580   -1.00922   -0.43121   -0.36105    1
    3      0.472D-02      0.230D-02      -267.36125714    561.572850   -1.18182   -0.24273   -0.21794    2
    4      0.212D-02      0.546D-03      -267.36951156    561.757946   -0.97034   -0.31555   -0.29876    3
    5      0.926D-03      0.485D-03      -267.37373149    561.799659   -0.91519   -0.31747   -0.30280    4
    6      0.583D-03      0.271D-03      -267.37562704    561.766040   -0.87466   -0.31054   -0.30045    5
    7      0.482D-03      0.131D-03      -267.37595135    561.751816   -0.88496   -0.29905   -0.29239    6
    8      0.254D-03      0.355D-04      -267.37597311    561.749361   -0.88427   -0.29590   -0.29100    7
    9      0.850D-04      0.190D-04      -267.37598414    561.749519   -0.88688   -0.29639   -0.29102    8
   10      0.449D-04      0.817D-05      -267.37598593    561.749387   -0.88810   -0.29575   -0.29072    9
   11      0.198D-04      0.319D-05      -267.37598618    561.749365   -0.88868   -0.29560   -0.29056    9
   12      0.782D-05      0.147D-05      -267.37598624    561.749599   -0.88883   -0.29570   -0.29061    9
   13      0.373D-05      0.532D-06      -267.37598625    561.749645   -0.88885   -0.29575   -0.29063    9
   14      0.154D-05      0.309D-06      -267.37598625    561.749650   -0.88883   -0.29577   -0.29064    9
   15      0.955D-06      0.170D-06      -267.37598626    561.749661   -0.88883   -0.29578   -0.29064    9
   16      0.616D-06      0.102D-06      -267.37598626    561.749665   -0.88882   -0.29578   -0.29064    9
   17      0.387D-06      0.762D-07      -267.37598626    561.749660   -0.88882   -0.29578   -0.29064    9
   18      0.429D-06      0.626D-07      -267.37598626    561.749659   -0.88882   -0.29578   -0.29064    9
   19      0.451D-06      0.505D-07      -267.37598626    561.749672   -0.88881   -0.29578   -0.29064    9
   20      0.859D-06      0.363D-07      -267.37598626    561.749670   -0.88881   -0.29578   -0.29063    9
   21      0.697D-06      0.180D-07      -267.37598626    561.749673   -0.88881   -0.29578   -0.29063    9
   22      0.367D-06      0.107D-07      -267.37598626    561.749675   -0.88881   -0.29578   -0.29063    9
   23      0.131D-06      0.474D-08      -267.37598626    561.749675   -0.88881   -0.29578   -0.29063    9
   24      0.348D-07      0.224D-08      -267.37598626    561.749675   -0.88881   -0.29578   -0.29063    9
   25      0.945D-08      0.966D-09      -267.37598626    561.749675   -0.88881   -0.29578   -0.29063    9
   26      0.699D-08      0.433D-09      -267.37598626    561.749675   -0.88881   -0.29578   -0.29063    9
   27      0.177D-08      0.202D-09      -267.37598626    561.749675   -0.88881   -0.29578   -0.29063    9
   28      0.548D-09      0.121D-09      -267.37598626    561.749675   -0.88881   -0.29578   -0.29063    9
   29      0.446D-09      0.708D-10      -267.37598626    561.749675   -0.88881   -0.29578   -0.29063    9
   30      0.537D-09      0.359D-10      -267.37598626    561.749675   -0.88881   -0.29578   -0.29063    9
   31      0.147D-09      0.238D-10      -267.37598626    561.749675   -0.88881   -0.29578   -0.29063    9
   32      0.281D-09      0.137D-10      -267.37598626    561.749675   -0.88881   -0.29578   -0.29063    9
   33      0.151D-09      0.996D-11      -267.37598626    561.749675   -0.88881   -0.29578   -0.29063    9
   34      0.129D-09      0.630D-11      -267.37598626    561.749675   -0.88881   -0.29578   -0.29063    9
   35      0.975D-10      0.639D-11      -267.37598626    561.749675   -0.88881   -0.29578   -0.29063    0

 Final alpha occupancy:  21
 Final beta  occupancy:  20

 !RHF STATE 1.1 Energy               -267.375986260885
 Nuclear energy                       186.61777408
 One-electron energy                 -734.86859783
 Two-electron energy                  280.87483749
 Virial quotient                       -1.00117638
 !RHF STATE 1.1 Dipole moment          -0.88880948    -0.29578053    -0.29063420
 Dipole moment /Debye                  -2.25898040    -0.75174989    -0.73867007

 Orbital energies:

         1.1          2.1          3.1          4.1          5.1          6.1          7.1          8.1          9.1         10.1
    -20.649050   -20.641406   -11.297600   -11.228861   -11.225297    -1.524562    -1.171186    -1.034586    -0.952522    -0.819348

        11.1         12.1         13.1         14.1         15.1         16.1         17.1         18.1         19.1         20.1
     -0.696301    -0.668603    -0.652657    -0.595287    -0.562954    -0.557080    -0.544626    -0.500404    -0.489333    -0.466086

        21.1         22.1         23.1
     -0.563426     0.137674     0.174940


 **********************************************************************************************************************************
 DATASETS  * FILE   NREC   LENGTH (MB)   RECORD NAMES
              1      18        5.04       500      610      700      900      950      970     1000      129      960     1100   
                                          VAR    BASINP    GEOM    SYMINP    ZMAT    AOBASIS   BASIS     P2S    ABASIS      S 
                                         1400     1410     1200     1210     1080     1600     1650     1700   
                                           T        V       H0       H01     AOSYM     SMH    MOLCAS    OPER   

              2       3        2.21       700     1000     2100   
                                         GEOM     BASIS     RHF  

 PROGRAMS   *        TOTAL       RHF       INT
 CPU TIMES  *        66.98     50.09     16.82
 REAL TIME  *        73.78 SEC
 DISK USED  *         9.14 GB      
 SF USED    *         0.25 MB      
 GA USED    *         0.01 MB       (max)       0.00 MB       (current)
 **********************************************************************************************************************************


1PROGRAM * CCSD (Unrestricted open-shell coupled cluster)     Authors: C. Hampel, H.-J. Werner, 1991, M. Deegan, P.J. Knowles, 1992


 Convergence thresholds:  THRVAR = 1.00D-08  THRDEN = 1.00D-10

 CCSD(T)     terms to be evaluated (factor= 1.000)


 Number of core orbitals:           5 (   5 )
 Number of closed-shell orbitals:  15 (  15 )
 Number of active  orbitals:        1 (   1 )
 Number of external orbitals:     227 ( 227 )

 Memory could be reduced to 332.02 Mwords without degradation in triples

 Number of N-1 electron functions:              31
 Number of N-2 electron functions:             465
 Number of singly external CSFs:              7068
 Number of doubly external CSFs:          18353430
 Total number of CSFs:                    18360498

 Molecular orbitals read from record     2100.2  Type=RHF/CANONICAL (state 1.1)

 Integral transformation finished. Total CPU:  20.63 sec, npass=  1  Memory used: 145.25 MW

 Starting RMP2 calculation

 ITER.      SQ.NORM     CORR.ENERGY   TOTAL ENERGY   ENERGY CHANGE        DEN1      VAR(S)    VAR(P)  DIIS     TIME
   1      1.26532112    -0.96750681  -268.34349307    -0.96750681    -0.00323570  0.26D-04  0.11D-02  1  1    24.02
   2      1.26810464    -0.97099554  -268.34698180    -0.00348874    -0.00000664  0.10D-05  0.23D-05  2  2    26.64
   3      1.26818439    -0.97104837  -268.34703463    -0.00005283    -0.00000008  0.53D-07  0.11D-07  3  3    29.40
   4      1.26818608    -0.97104818  -268.34703444     0.00000019    -0.00000000  0.16D-08  0.12D-09  4  4    32.42
   5      1.26818634    -0.97104826  -268.34703452    -0.00000008    -0.00000000  0.19D-10  0.45D-11  5  5    35.56
   6      1.26818639    -0.97104830  -268.34703456    -0.00000003    -0.00000000  0.51D-13  0.56D-13  6  6    38.84
   7      1.26818639    -0.97104830  -268.34703456     0.00000000    -0.00000000  0.15D-14  0.85D-15  6  1    42.11
   8      1.26818639    -0.97104830  -268.34703456     0.00000000    -0.00000000  0.16D-16  0.79D-17  6  2    45.38
   9      1.26818639    -0.97104830  -268.34703456    -0.00000000    -0.00000000  0.32D-18  0.10D-18  6  3    48.67

 Norm of t1 vector:      0.04584999      S-energy:    -0.00446439      T1 diagnostic:  0.00074218
 Norm of t2 vector:      0.51583347      P-energy:    -0.96658391
                                         Alpha-Beta:  -0.73702927
                                         Alpha-Alpha: -0.11897932
                                         Beta-Beta:   -0.11057531

 Spin contamination <S**2-Sz**2-Sz>     0.00144963
  Reference energy                   -267.375986260884
  RHF-RMP2 correlation energy          -0.971048295217
 !RHF-RMP2 energy                    -268.347034556101

 Starting UCCSD calculation

 ITER.      SQ.NORM     CORR.ENERGY   TOTAL ENERGY   ENERGY CHANGE        DEN1      VAR(S)    VAR(P)  DIIS     TIME
   1      1.27981449    -0.97922241  -268.35520867    -0.97922241    -0.02930350  0.65D-02  0.54D-02  1  1   125.49
   2      1.30619117    -1.00583440  -268.38182066    -0.02661198    -0.00362490  0.61D-03  0.96D-03  2  2   202.14
   3      1.32277765    -1.01264600  -268.38863226    -0.00681161    -0.00090760  0.75D-03  0.76D-04  3  3   279.16
   4      1.33395219    -1.01529640  -268.39128266    -0.00265040    -0.00038261  0.31D-03  0.32D-04  4  4   356.29
   5      1.34890064    -1.01728081  -268.39326707    -0.00198441    -0.00011705  0.10D-03  0.89D-05  5  5   433.44
   6      1.36033479    -1.01829699  -268.39428325    -0.00101618    -0.00001793  0.91D-05  0.32D-05  6  6   510.82
   7      1.36398392    -1.01853521  -268.39452148    -0.00023822    -0.00000312  0.16D-05  0.60D-06  6  1   588.10
   8      1.36458179    -1.01857700  -268.39456326    -0.00004178    -0.00000067  0.26D-06  0.15D-06  6  2   665.46
   9      1.36489839    -1.01859517  -268.39458143    -0.00001817    -0.00000015  0.68D-07  0.32D-07  6  4   742.92
  10      1.36488530    -1.01859395  -268.39458021     0.00000122    -0.00000002  0.12D-07  0.43D-08  6  3   820.25
  11      1.36494760    -1.01859904  -268.39458530    -0.00000509    -0.00000001  0.41D-08  0.10D-08  6  5   897.71
  12      1.36494054    -1.01859658  -268.39458284     0.00000246    -0.00000000  0.25D-08  0.27D-09  6  6   975.21
  13      1.36493626    -1.01859537  -268.39458163     0.00000121    -0.00000000  0.19D-08  0.11D-09  6  1  1052.69
  14      1.36492154    -1.01859360  -268.39457986     0.00000177    -0.00000000  0.14D-08  0.68D-10  6  2  1130.11
  15      1.36491209    -1.01859245  -268.39457871     0.00000115    -0.00000000  0.11D-08  0.57D-10  6  3  1207.52
  16      1.36490861    -1.01859237  -268.39457863     0.00000008    -0.00000000  0.57D-09  0.46D-10  6  4  1284.85
  17      1.36491145    -1.01859270  -268.39457896    -0.00000033    -0.00000000  0.17D-09  0.36D-10  6  5  1362.27
  18      1.36491810    -1.01859314  -268.39457940    -0.00000043    -0.00000000  0.31D-10  0.84D-11  6  6  1439.71
  19      1.36492205    -1.01859353  -268.39457979    -0.00000039    -0.00000000  0.23D-11  0.20D-11  6  2  1517.01
  20      1.36492160    -1.01859341  -268.39457967     0.00000013    -0.00000000  0.53D-12  0.17D-12  6  1  1594.32
  21      1.36492187    -1.01859345  -268.39457971    -0.00000004    -0.00000000  0.15D-12  0.56D-13  6  4  1671.73
  22      1.36492197    -1.01859346  -268.39457972    -0.00000001    -0.00000000  0.47D-13  0.10D-13  6  3  1749.12
  23      1.36492202    -1.01859347  -268.39457973    -0.00000001    -0.00000000  0.15D-13  0.42D-14  6  6  1826.62
  24      1.36492206    -1.01859347  -268.39457973    -0.00000000    -0.00000000  0.34D-14  0.89D-15  6  5  1904.06
  25      1.36492207    -1.01859347  -268.39457973     0.00000000    -0.00000000  0.10D-14  0.25D-15  6  1  1981.72
  26      1.36492208    -1.01859347  -268.39457973    -0.00000000    -0.00000000  0.37D-15  0.63D-16  6  2  2059.07
  27      1.36492208    -1.01859347  -268.39457973    -0.00000000    -0.00000000  0.71D-16  0.15D-16  6  4  2136.36

 Norm of t1 vector:      0.23042338      S-energy:    -0.00500994      T1 diagnostic:  0.02839079
                                                                       D1 diagnostic:  0.14549550
 Norm of t2 vector:      0.55841485      P-energy:    -1.01358353
                                         Alpha-Beta:  -0.80132693
                                         Alpha-Alpha: -0.10868039
                                         Beta-Beta:   -0.10357621

 Singles amplitudes (print threshold =  0.500E-01):

         I         SYM. A    A   T(IA) [Beta-Beta]

         8         1         1     -0.09740606
         9         1         1      0.09849524
        11         1         1     -0.05397821
        12         1         1     -0.07528829
        14         1         1     -0.10884205

 Spin contamination <S**2-Sz**2-Sz>     0.00174959

 Memory could be reduced to 360.52 Mwords without degradation in triples
 

 RESULTS
 =======

  Reference energy                   -267.375986260884
  UCCSD singles energy                 -0.005009944006
  UCCSD pair energy                    -1.013583527076
  UCCSD correlation energy             -1.018593471083
  Triples (T) contribution             -0.040815619794
  Total correlation energy             -1.059409090877
 
  RHF-UCCSD energy                   -268.394579731967
  RHF-UCCSD[T] energy                -268.438699671302
  RHF-UCCSD-T energy                 -268.434896277989
 !RHF-UCCSD(T) energy                -268.435395351761

 Program statistics:

 Available memory in ccsd:               999997692
 Min. memory needed in ccsd:              51505734
 Max. memory used in ccsd:                74803578
 Max. memory used in cckext:              59475747 (27 integral passes)
 Max. memory used in cckint:             145249478 ( 1 integral passes)



 **********************************************************************************************************************************
 DATASETS  * FILE   NREC   LENGTH (MB)   RECORD NAMES
              1      18        5.04       500      610      700      900      950      970     1000      129      960     1100   
                                          VAR    BASINP    GEOM    SYMINP    ZMAT    AOBASIS   BASIS     P2S    ABASIS      S 
                                         1400     1410     1200     1210     1080     1600     1650     1700   
                                           T        V       H0       H01     AOSYM     SMH    MOLCAS    OPER   

              2       3        2.21       700     1000     2100   
                                         GEOM     BASIS     RHF  

 PROGRAMS   *        TOTAL  UCCSD(T)       RHF       INT
 CPU TIMES  *      3672.73   3605.75     50.09     16.82
 REAL TIME  *      3752.71 SEC
 DISK USED  *        16.11 GB      
 SF USED    *         6.57 GB      
 GA USED    *         0.01 MB       (max)       0.00 MB       (current)
 **********************************************************************************************************************************

        UCCSD(T)        RHF-SCF 
   -268.43539535   -267.37598626
 **********************************************************************************************************************************
 Variable memory released
