
 Primary working directories    : /tmp/601556.3.gen4.q
 Secondary working directories  : /tmp/601556.3.gen4.q
 Wavefunction directory         : /home/vulcan/mel64643/wfu/
 Main file repository           : /tmp/601556.3.gen4.q/

 ARCHNAME  : Linux/x86_64
 FC        : /opt/intel/compilers_and_libraries_2016.1.150/linux/bin/intel64/ifort
 FCVERSION : 16.0.1
 BLASLIB   : -mkl
 id        : ccgc

 Nodes     nprocs
 n067         1
 ga_uses_ma=false, calling ma_init with nominal heap.
 GA-space will be limited to   8.0 MW (determined by -G option)

 Using customized tuning parameters: mindgm=10; mindgv=16; mindgc=4; mindgr=1; noblas=0; mincuda=1000; minvec=7
 default implementation of scratch files=df  

 ***,Optimization of min3
 memory,1000,m
 gthresh,energy=1.0d-12,orbital=1.0d-10,oneint=1.0d-16,twoint=1.0d-16,optgrad=1.0d-6,compress=1.0d-13
 geomtyp=xyz
 
  bohr
  geometry = {
  6
  arbitrary comment
  C   -1.3750721198   -0.0242793215    0.0008453298
  O    1.3060148947    0.1206914277    0.0035763503
  H   -2.0778696261    1.9096106066   -0.0013707110
  H   -2.1107418542   -0.9781500034    1.6827152832
  H   -2.1072322803   -0.9805233069   -1.6811603829
  H    1.9411768257   -1.5774815224   -0.0046142792
 }
 
 basis=cc-pvtz
 {rhf;maxit,200}
 {ccsd(t);maxit,200}

 Variables initialized (661), CPU time= 0.01 sec
 Commands  initialized (458), CPU time= 0.00 sec, 486 directives.
 Default parameters read. Elapsed time= 0.05 sec

 Checking input...
 Passed
1


                                         ***  PROGRAM SYSTEM MOLPRO  ***
                         Copyright, University College Cardiff Consultants Limited, 2008

                                    Version 2010.1 linked May 16 2016 07:17:05


 **********************************************************************************************************************************
 LABEL *   Optimization of min3                                                          
 Linux-4.4.3/n067(x86_64) 64 bit mpp version                                             DATE: 06-Nov-21          TIME: 15:41:16  
 **********************************************************************************************************************************

 SHA1:             9e8077add272b0f3cad6f7df79ec5211205f459d
 **********************************************************************************************************************************

 THRESHOLDS:

 ZERO    =  1.00D-12  ONEINT  =  1.00D-16  TWOINT  =  1.00D-16  PREFAC  =  1.00D-14  LOCALI  =  1.00D-09  EORDER  =  1.00D-04
 ENERGY  =  1.00D-12  ETEST   =  0.00D+00  EDENS   =  0.00D+00  THRDEDEF=  1.00D-06  GRADIENT=  1.00D-02  STEP    =  1.00D-03
 ORBITAL =  1.00D-10  CIVEC   =  1.00D-05  COEFF   =  1.00D-04  PRINTCI =  5.00D-02  PUNCHCI =  9.90D+01  OPTGRAD =  1.00D-06
 OPTENERG=  1.00D-06  OPTSTEP =  3.00D-04  THRGRAD =  1.00D-10  COMPRESS=  1.00D-13  VARMIN  =  1.00D-07  VARMAX  =  1.00D-03
 THRDOUB =  0.00D+00  THRDIV  =  1.00D-05  THRRED  =  1.00D-07  THRPSP  =  1.00D+00  THRDC   =  1.00D-10  THRCS   =  1.00D-10
 THRNRM  =  1.00D-08  THREQ   =  0.00D+00  THRDE   =  1.00D+00  THRREF  =  1.00D-05  SPARFAC =  1.00D+00  THRDLP  =  1.00D-07
 THRDIA  =  1.00D-10  THRDLS  =  1.00D-07  THRGPS  =  0.00D+00  THRKEX  =  0.00D+00  THRDIS  =  2.00D-01  THRVAR  =  1.00D-10
 THRLOC  =  1.00D-06  THRGAP  =  1.00D-06  THRLOCT = -1.00D+00  THRGAPT = -1.00D+00  THRORB  =  1.00D-06  THRMLTP =  0.00D+00
 THRCPQCI=  1.00D-10  KEXTA   =  0.00D+00  THRCOARS=  0.00D+00  SYMTOL  =  1.00D-06  GRADTOL =  1.00D-06  THROVL  =  1.00D-08
 THRORTH =  1.00D-08  GRID    =  1.00D-06  GRIDMAX =  1.00D-03  DTMAX   =  0.00D+00

 SETTING GEOMTYP        =    XYZ
 ZUNIT=BOHR
 

 Variable memory set to 1000000000 words,  buffer space   230000 words

 SETTING BASIS          =    CC-PVTZ


 Recomputing integrals since basis changed


 Using spherical harmonics

 Library entry C      S cc-pVTZ              selected for orbital group  1
 Library entry C      P cc-pVTZ              selected for orbital group  1
 Library entry C      D cc-pVTZ              selected for orbital group  1
 Library entry C      F cc-pVTZ              selected for orbital group  1
 Library entry O      S cc-pVTZ              selected for orbital group  2
 Library entry O      P cc-pVTZ              selected for orbital group  2
 Library entry O      D cc-pVTZ              selected for orbital group  2
 Library entry O      F cc-pVTZ              selected for orbital group  2
 Library entry H      S cc-pVTZ              selected for orbital group  3
 Library entry H      P cc-pVTZ              selected for orbital group  3
 Library entry H      D cc-pVTZ              selected for orbital group  3

1PROGRAM * SEWARD (Integral evaluation for generally contracted gaussian basis sets)     Author: Roland Lindh, 1990

 Geometry written to block  1 of record 700


 Point group  C1  



 ATOMIC COORDINATES

 NR  ATOM    CHARGE       X              Y              Z

   1  C       6.00   -1.375072120   -0.024279321    0.000845330
   2  O       8.00    1.306014895    0.120691428    0.003576350
   3  H       1.00   -2.077869626    1.909610607   -0.001370711
   4  H       1.00   -2.110741854   -0.978150003    1.682715283
   5  H       1.00   -2.107232280   -0.980523307   -1.681160383
   6  H       1.00    1.941176826   -1.577481522   -0.004614279

 Bond lengths in Bohr (Angstrom)

 1-2  2.685004945  1-3  2.057634443  1-4  2.068759478  1-5  2.068720445  2-6  1.813088286
     ( 1.420843423)     ( 1.088853252)     ( 1.094740366)     ( 1.094719711)     ( 0.959444999)

 Bond angles

  1-2-6  107.41160529   2-1-3  106.87670219   2-1-4  112.28156501   2-1-5  112.28336130

  3-1-4  108.22620354   3-1-5  108.22091580   4-1-5  108.78526468

 NUCLEAR CHARGE:                   18
 NUMBER OF PRIMITIVE AOS:         162
 NUMBER OF SYMMETRY AOS:          148
 NUMBER OF CONTRACTIONS:          116   ( 116A   )
 NUMBER OF CORE ORBITALS:           2   (   2A   )
 NUMBER OF VALENCE ORBITALS:       12   (  12A   )


 NUCLEAR REPULSION ENERGY   40.30775552


 Eigenvalues of metric

         1 0.133E-02 0.180E-02 0.191E-02 0.235E-02 0.330E-02 0.461E-02 0.738E-02 0.100E-01


 Contracted 2-electron integrals neglected if value below      1.0D-16
 AO integral compression algorithm  1   Integral accuracy      1.0D-16

     209.977 MB (compressed) written to integral file ( 98.5%)

     Node minimum: 209.977 MB, node maximum: 209.977 MB


 NUMBER OF SORTED TWO-ELECTRON INTEGRALS:   23028291.     BUFFER LENGTH:  32768
 NUMBER OF SEGMENTS:   2  SEGMENT LENGTH:   15997996      RECORD LENGTH: 524288

 Memory used in sort:      16.56 MW

 SORT1 READ    26631627. AND WROTE    22815911. INTEGRALS IN     67 RECORDS. CPU TIME:     0.24 SEC, REAL TIME:     0.39 SEC
 SORT2 READ    22815911. AND WROTE    23028291. INTEGRALS IN    801 RECORDS. CPU TIME:     0.20 SEC, REAL TIME:     0.30 SEC

 FILE SIZES:   FILE 1:   187.0 MBYTE,  FILE 4:   281.1 MBYTE,   TOTAL:    468.0 MBYTE

 OPERATOR DM      FOR CENTER  0  COORDINATES:    0.000000    0.000000    0.000000


 **********************************************************************************************************************************
 DATASETS  * FILE   NREC   LENGTH (MB)   RECORD NAMES
              1      19      187.14       500      610      700      900      950      970     1000      129      960     1100   
                                          VAR    BASINP    GEOM    SYMINP    ZMAT    AOBASIS   BASIS     P2S    ABASIS      S 
                                         1400     1410     1200     1210     1080     1600     1650     1300     1700   
                                           T        V       H0       H01     AOSYM     SMH    MOLCAS    ERIS     OPER   

 PROGRAMS   *        TOTAL       INT
 CPU TIMES  *         1.54      1.49
 REAL TIME  *         2.08 SEC
 DISK USED  *       678.65 MB      
 GA USED    *         0.00 MB       (max)       0.00 MB       (current)
 **********************************************************************************************************************************

1PROGRAM * RHF-SCF (CLOSED SHELL)       Authors: W. Meyer, H.-J. Werner


 NUMBER OF ELECTRONS:       9+    9-    SPACE SYMMETRY=1    SPIN SYMMETRY: Singlet 
 CONVERGENCE THRESHOLDS:    1.00E-10 (Density)    1.00E-13 (Energy)
 MAX. NUMBER OF ITERATIONS:      200
 INTERPOLATION TYPE:            DIIS
 INTERPOLATION STEPS:              2 (START)      1 (STEP)
 LEVEL SHIFTS:                  0.00 (CLOSED)  0.00 (OPEN) 



 Orbital guess generated from atomic densities. Full valence occupancy:   14

 Molecular orbital dump at record        2100.2

 ITERATION    DDIFF          GRAD             ENERGY        2-EL.EN.            DIPOLE MOMENTS         DIIS
    1      0.000D+00      0.000D+00      -115.05317646    164.437728   -0.48600   -0.90497   -0.00525    0
    2      0.000D+00      0.474D-02      -115.08149185    161.988530   -0.29811   -0.50138   -0.00310    1
    3      0.784D-02      0.254D-02      -115.08857557    163.158675   -0.38986   -0.59914   -0.00362    2
    4      0.257D-02      0.497D-03      -115.08908242    163.003262   -0.38296   -0.59316   -0.00359    3
    5      0.686D-03      0.981D-04      -115.08911334    163.010366   -0.38658   -0.58843   -0.00356    4
    6      0.186D-03      0.186D-04      -115.08911470    163.008946   -0.38698   -0.58843   -0.00356    5
    7      0.479D-04      0.393D-05      -115.08911476    163.008035   -0.38717   -0.58822   -0.00356    6
    8      0.910D-05      0.119D-05      -115.08911476    163.008498   -0.38720   -0.58819   -0.00356    7
    9      0.233D-05      0.323D-06      -115.08911476    163.008393   -0.38721   -0.58818   -0.00356    6
   10      0.767D-06      0.597D-07      -115.08911476    163.008404   -0.38721   -0.58818   -0.00356    6
   11      0.158D-06      0.150D-07      -115.08911476    163.008407   -0.38721   -0.58818   -0.00356    6
   12      0.298D-07      0.632D-08      -115.08911476    163.008406   -0.38721   -0.58818   -0.00356    7
   13      0.111D-07      0.171D-08      -115.08911476    163.008406   -0.38721   -0.58818   -0.00356    7
   14      0.347D-08      0.353D-09      -115.08911476    163.008406   -0.38721   -0.58818   -0.00356    7
   15      0.849D-09      0.905D-10      -115.08911476    163.008406   -0.38721   -0.58818   -0.00356    7
   16      0.184D-09      0.226D-10      -115.08911476    163.008406   -0.38721   -0.58818   -0.00356    7
   17      0.518D-10      0.974D-11      -115.08911476    163.008406   -0.38721   -0.58818   -0.00356    0

 Final occupancy:   9

 !RHF STATE 1.1 Energy               -115.089114763038
 Nuclear energy                        40.30775552
 One-electron energy                 -236.90107323
 Two-electron energy                   81.50420295
 Virial quotient                       -1.00128818
 !RHF STATE 1.1 Dipole moment          -0.38721457    -0.58818103    -0.00356347
 Dipole moment /Debye                  -0.98413681    -1.49490915    -0.00905684

 Orbital energies:

         1.1          2.1          3.1          4.1          5.1          6.1          7.1          8.1          9.1         10.1
    -20.552620   -11.269754    -1.354102    -0.923076    -0.687873    -0.617659    -0.590047    -0.502056    -0.449146     0.138409

        11.1
      0.178612


 **********************************************************************************************************************************
 DATASETS  * FILE   NREC   LENGTH (MB)   RECORD NAMES
              1      19      187.14       500      610      700      900      950      970     1000      129      960     1100   
                                          VAR    BASINP    GEOM    SYMINP    ZMAT    AOBASIS   BASIS     P2S    ABASIS      S 
                                         1400     1410     1200     1210     1080     1600     1650     1300     1700   
                                           T        V       H0       H01     AOSYM     SMH    MOLCAS    ERIS     OPER   

              2       3        0.63       700     1000     2100   
                                         GEOM     BASIS     RHF  

 PROGRAMS   *        TOTAL       RHF       INT
 CPU TIMES  *         4.28      2.74      1.49
 REAL TIME  *         5.21 SEC
 DISK USED  *       678.65 MB      
 GA USED    *         0.00 MB       (max)       0.00 MB       (current)
 **********************************************************************************************************************************


1PROGRAM * CCSD (Closed-shell coupled cluster)     Authors: C. Hampel, H.-J. Werner, 1991, M. Deegan, P.J. Knowles, 1992


 Convergence thresholds:  THRVAR = 1.00D-08  THRDEN = 1.00D-12

 CCSD(T)     terms to be evaluated (factor= 1.000)


 Number of core orbitals:           2 (   2 )
 Number of closed-shell orbitals:   7 (   7 )
 Number of external orbitals:     107 ( 107 )

 Molecular orbitals read from record     2100.2  Type=RHF/CANONICAL (state 1.1)

 Number of N-1 electron functions:               7
 Number of N-2 electron functions:              28
 Number of singly external CSFs:               749
 Number of doubly external CSFs:            280875
 Total number of CSFs:                      281625

 Length of J-op  integral file:               0.00 MB
 Length of K-op  integral file:               0.96 MB
 Length of 3-ext integral record:             0.00 MB

 Memory could be reduced to 12.77 Mwords without degradation in triples

 Integral transformation finished. Total CPU:   0.59 sec, npass=  1  Memory used:   7.23 MW

 Reference energy:                   -115.08911476

 MP2 singlet pair energy:              -0.28103028
 MP2 triplet pair energy:              -0.14730393
 MP2 correlation energy:               -0.42833421
 MP2 total energy:                   -115.51744897

 SCS-MP2 correlation energy:           -0.42889211   (PS=  1.200000  PT=  0.333333)
 SCS-MP2 total energy:               -115.51800687

 ITER.      SQ.NORM     CORR.ENERGY   TOTAL ENERGY   ENERGY CHANGE        DEN1      VAR(S)    VAR(P)  DIIS     TIME
   1      1.11803177    -0.44561896  -115.53473372    -0.01728475    -0.00693412  0.12D-02  0.18D-02  1  1     1.21
   2      1.12591328    -0.44680402  -115.53591878    -0.00118506    -0.00944913  0.16D-04  0.22D-03  2  2     1.89
   3      1.12850478    -0.44688061  -115.53599537    -0.00007659    -0.00178365  0.75D-05  0.10D-04  3  3     2.57
   4      1.12914484    -0.44688203  -115.53599680    -0.00000143    -0.00033291  0.35D-06  0.84D-06  4  4     3.27
   5      1.12925030    -0.44688387  -115.53599863    -0.00000183    -0.00003994  0.11D-06  0.65D-07  5  5     3.96
   6      1.12927528    -0.44688170  -115.53599646     0.00000217    -0.00000746  0.18D-07  0.50D-08  6  6     4.64
   7      1.12927887    -0.44688161  -115.53599637     0.00000009    -0.00000027  0.26D-08  0.90D-09  6  2     5.32
   8      1.12928021    -0.44688156  -115.53599632     0.00000005     0.00000002  0.42D-09  0.11D-09  6  1     6.01
   9      1.12928095    -0.44688150  -115.53599627     0.00000005    -0.00000003  0.28D-10  0.17D-10  6  3     6.70
  10      1.12928103    -0.44688152  -115.53599628    -0.00000002     0.00000007  0.25D-11  0.19D-11  6  4     7.37
  11      1.12928089    -0.44688153  -115.53599629    -0.00000001     0.00000011  0.23D-12  0.12D-12  6  6     8.05
  12      1.12928087    -0.44688153  -115.53599629    -0.00000000     0.00000001  0.27D-13  0.11D-13  6  5     8.74
  13      1.12928087    -0.44688153  -115.53599629    -0.00000000    -0.00000000  0.56D-14  0.17D-14  6  2     9.43
  14      1.12928088    -0.44688153  -115.53599629     0.00000000    -0.00000000  0.43D-15  0.14D-15  6  1    10.10
  15      1.12928088    -0.44688153  -115.53599629    -0.00000000    -0.00000000  0.63D-16  0.28D-16  6  3    10.79
  16      1.12928088    -0.44688153  -115.53599629     0.00000000     0.00000000  0.18D-16  0.34D-17  6  4    11.47
  17      1.12928088    -0.44688153  -115.53599629    -0.00000000     0.00000000  0.12D-17  0.73D-18  6  5    12.16
  18      1.12928088    -0.44688153  -115.53599629    -0.00000000     0.00000000  0.97D-19  0.46D-19  6  6    12.85
  19      1.12928088    -0.44688153  -115.53599629     0.00000000    -0.00000000  0.20D-19  0.10D-19  6  2    13.53
  20      1.12928088    -0.44688153  -115.53599629     0.00000000    -0.00000000  0.16D-20  0.79D-21  6  1    14.21

 Norm of t1 vector:      0.04468539      S-energy:    -0.00000000      T1 diagnostic:  0.00844475
                                                                       D1 diagnostic:  0.01722632


 Total CPU time for triples:      7.17 sec


 RESULTS
 =======

  Reference energy                   -115.089114763039
  CCSD singlet pair energy             -0.313137439239
  CCSD triplet pair energy             -0.133744091088
  CCSD correlation energy              -0.446881530329

  Triples (T) contribution             -0.014790158031
  Total correlation energy             -0.461671688360

  CCSD total energy                  -115.535996293368
  CCSD[T] energy                     -115.551252627959
  CCSD-T energy                      -115.550520793768
 !CCSD(T) total energy               -115.550786451399

 Timing summary (sec):

 STEP                 CPU(USER)    SYS     CPU(TOT)    WALL
 Transformation          0.60      0.08      0.68      0.67
 CCSD iterations        13.62      0.70     14.32     14.37
 Triples                 7.17      0.13      7.30      7.30

 Program statistics:

 Available memory in ccsd:               999999704
 Min. memory needed in ccsd:                915605
 Max. memory used in ccsd:                 1141922
 Max. memory used in cckext:                874802 (20 integral passes)



 **********************************************************************************************************************************
 DATASETS  * FILE   NREC   LENGTH (MB)   RECORD NAMES
              1      20      226.54       500      610      700      900      950      970     1000      129      960     1100   
                                          VAR    BASINP    GEOM    SYMINP    ZMAT    AOBASIS   BASIS     P2S    ABASIS      S 
                                         1400     1410     1200     1210     1080     1600     1650     1300     1700     1380   
                                           T        V       H0       H01     AOSYM     SMH    MOLCAS    ERIS     OPER     JKOP   

              2       3        0.63       700     1000     2100   
                                         GEOM     BASIS     RHF  

 PROGRAMS   *        TOTAL   CCSD(T)       RHF       INT
 CPU TIMES  *        25.68     21.40      2.74      1.49
 REAL TIME  *        27.58 SEC
 DISK USED  *       678.65 MB      
 GA USED    *         0.00 MB       (max)       0.00 MB       (current)
 **********************************************************************************************************************************

        CCSD(T)         RHF-SCF 
   -115.55078645   -115.08911476
 **********************************************************************************************************************************
 Variable memory released
