
 Primary working directories    : /tmp/786284.2.gen4.q
 Secondary working directories  : /tmp/786284.2.gen4.q
 Wavefunction directory         : /home/vulcan/nlk36701/wfu/
 Main file repository           : /tmp/786284.2.gen4.q/

 ARCHNAME  : Linux/x86_64
 FC        : /opt/intel/compilers_and_libraries_2016.1.150/linux/bin/intel64/ifort
 FCVERSION : 16.0.1
 BLASLIB   : -mkl
 id        : ccgc

 Nodes     nprocs
 n051         1
 ga_uses_ma=false, calling ma_init with nominal heap.
 GA-space will be limited to   8.0 MW (determined by -G option)

 Using customized tuning parameters: mindgm=10; mindgv=16; mindgc=4; mindgr=1; noblas=0; mincuda=1000; minvec=7
 default implementation of scratch files=df  

 ***,Optimization of min3
 memory,1000,m
 gthresh,energy=1.0d-12,orbital=1.0d-10,oneint=1.0d-16,twoint=1.0d-16,optgrad=1.0d-6,compress=1.0d-13
 geomtyp=xyz
 
  bohr
  geometry = {
  3
  arbitrary comment
  H    0.0000000000   -1.4194802640    0.9984183345
  O    0.0000000000   -0.0000000334   -0.1304930753
  H    0.0000000000    1.4194802975    0.9984183608
 }
 
 basis=cc-pvtz
 {rhf;maxit,200}
 {ccsd(t);maxit,200}

 Variables initialized (661), CPU time= 0.01 sec
 Commands  initialized (458), CPU time= 0.00 sec, 486 directives.
 Default parameters read. Elapsed time= 0.04 sec

 Checking input...
 Passed
1


                                         ***  PROGRAM SYSTEM MOLPRO  ***
                         Copyright, University College Cardiff Consultants Limited, 2008

                                    Version 2010.1 linked May 16 2016 07:17:05


 **********************************************************************************************************************************
 LABEL *   Optimization of min3                                                          
 Linux-4.4.3/n051(x86_64) 64 bit mpp version                                             DATE: 03-Aug-22          TIME: 13:51:36  
 **********************************************************************************************************************************

 SHA1:             9e8077add272b0f3cad6f7df79ec5211205f459d
 **********************************************************************************************************************************

 THRESHOLDS:

 ZERO    =  1.00D-12  ONEINT  =  1.00D-16  TWOINT  =  1.00D-16  PREFAC  =  1.00D-14  LOCALI  =  1.00D-09  EORDER  =  1.00D-04
 ENERGY  =  1.00D-12  ETEST   =  0.00D+00  EDENS   =  0.00D+00  THRDEDEF=  1.00D-06  GRADIENT=  1.00D-02  STEP    =  1.00D-03
 ORBITAL =  1.00D-10  CIVEC   =  1.00D-05  COEFF   =  1.00D-04  PRINTCI =  5.00D-02  PUNCHCI =  9.90D+01  OPTGRAD =  1.00D-06
 OPTENERG=  1.00D-06  OPTSTEP =  3.00D-04  THRGRAD =  1.00D-10  COMPRESS=  1.00D-13  VARMIN  =  1.00D-07  VARMAX  =  1.00D-03
 THRDOUB =  0.00D+00  THRDIV  =  1.00D-05  THRRED  =  1.00D-07  THRPSP  =  1.00D+00  THRDC   =  1.00D-10  THRCS   =  1.00D-10
 THRNRM  =  1.00D-08  THREQ   =  0.00D+00  THRDE   =  1.00D+00  THRREF  =  1.00D-05  SPARFAC =  1.00D+00  THRDLP  =  1.00D-07
 THRDIA  =  1.00D-10  THRDLS  =  1.00D-07  THRGPS  =  0.00D+00  THRKEX  =  0.00D+00  THRDIS  =  2.00D-01  THRVAR  =  1.00D-10
 THRLOC  =  1.00D-06  THRGAP  =  1.00D-06  THRLOCT = -1.00D+00  THRGAPT = -1.00D+00  THRORB  =  1.00D-06  THRMLTP =  0.00D+00
 THRCPQCI=  1.00D-10  KEXTA   =  0.00D+00  THRCOARS=  0.00D+00  SYMTOL  =  1.00D-06  GRADTOL =  1.00D-06  THROVL  =  1.00D-08
 THRORTH =  1.00D-08  GRID    =  1.00D-06  GRIDMAX =  1.00D-03  DTMAX   =  0.00D+00

 SETTING GEOMTYP        =    XYZ
 ZUNIT=BOHR
 

 Variable memory set to 1000000000 words,  buffer space   230000 words

 SETTING BASIS          =    CC-PVTZ


 Recomputing integrals since basis changed


 Using spherical harmonics

 Library entry H      S cc-pVTZ              selected for orbital group  1
 Library entry H      P cc-pVTZ              selected for orbital group  1
 Library entry H      D cc-pVTZ              selected for orbital group  1
 Library entry O      S cc-pVTZ              selected for orbital group  2
 Library entry O      P cc-pVTZ              selected for orbital group  2
 Library entry O      D cc-pVTZ              selected for orbital group  2
 Library entry O      F cc-pVTZ              selected for orbital group  2

1PROGRAM * SEWARD (Integral evaluation for generally contracted gaussian basis sets)     Author: Roland Lindh, 1990

 Geometry written to block  1 of record 700


 Point group  C2v 



 ATOMIC COORDINATES

 NR  ATOM    CHARGE       X              Y              Z

   1  H       1.00    0.000000000   -1.419480281    0.998418348
   2  H       1.00    0.000000000    1.419480281    0.998418348
   3  O       8.00    0.000000000    0.000000000   -0.130493075

 Bond lengths in Bohr (Angstrom)

 1-3  1.813660737  2-3  1.813660737
     ( 0.959747927)     ( 0.959747927)

 Bond angles

  1-3-2  103.00960141

 NUCLEAR CHARGE:                   10
 NUMBER OF PRIMITIVE AOS:          81
 NUMBER OF SYMMETRY AOS:           74
 NUMBER OF CONTRACTIONS:           58   (  23A1  +  11B1  +  17B2  +   7A2  )
 NUMBER OF CORE ORBITALS:           1   (   1A1  +   0B1  +   0B2  +   0A2  )
 NUMBER OF VALENCE ORBITALS:        6   (   3A1  +   1B1  +   2B2  +   0A2  )


 NUCLEAR REPULSION ENERGY    9.17417818


 Eigenvalues of metric

         1 0.260E-02 0.582E-02 0.109E-01 0.420E-01 0.841E-01 0.114E+00 0.167E+00 0.270E+00
         2 0.403E-01 0.109E+00 0.245E+00 0.448E+00 0.526E+00 0.703E+00 0.110E+01 0.134E+01
         3 0.476E-02 0.762E-02 0.481E-01 0.689E-01 0.921E-01 0.170E+00 0.277E+00 0.324E+00
         4 0.116E+00 0.316E+00 0.540E+00 0.881E+00 0.121E+01 0.132E+01 0.229E+01


 Contracted 2-electron integrals neglected if value below      1.0D-16
 AO integral compression algorithm  1   Integral accuracy      1.0D-16

     4.456 MB (compressed) written to integral file ( 99.6%)

     Node minimum: 4.456 MB, node maximum: 4.456 MB


 NUMBER OF SORTED TWO-ELECTRON INTEGRALS:     396151.     BUFFER LENGTH:  32768
 NUMBER OF SEGMENTS:   1  SEGMENT LENGTH:     396151      RECORD LENGTH: 524288

 Memory used in sort:       0.95 MW

 SORT1 READ      546378. AND WROTE      367096. INTEGRALS IN      2 RECORDS. CPU TIME:     0.01 SEC, REAL TIME:     0.01 SEC
 SORT2 READ      367096. AND WROTE      396151. INTEGRALS IN     17 RECORDS. CPU TIME:     0.02 SEC, REAL TIME:     0.02 SEC

 FILE SIZES:   FILE 1:     5.6 MBYTE,  FILE 4:     8.4 MBYTE,   TOTAL:     14.1 MBYTE

 OPERATOR DM      FOR CENTER  0  COORDINATES:    0.000000    0.000000    0.000000


 **********************************************************************************************************************************
 DATASETS  * FILE   NREC   LENGTH (MB)   RECORD NAMES
              1      19        5.66       500      610      700      900      950      970     1000      129      960     1100   
                                          VAR    BASINP    GEOM    SYMINP    ZMAT    AOBASIS   BASIS     P2S    ABASIS      S 
                                         1400     1410     1200     1210     1080     1600     1650     1300     1700   
                                           T        V       H0       H01     AOSYM     SMH    MOLCAS    ERIS     OPER   

 PROGRAMS   *        TOTAL       INT
 CPU TIMES  *         0.20      0.15
 REAL TIME  *         1.75 SEC
 DISK USED  *        19.05 MB      
 GA USED    *         0.00 MB       (max)       0.00 MB       (current)
 **********************************************************************************************************************************

1PROGRAM * RHF-SCF (CLOSED SHELL)       Authors: W. Meyer, H.-J. Werner


 NUMBER OF ELECTRONS:       5+    5-
 CONVERGENCE THRESHOLDS:    1.00E-10 (Density)    1.00E-13 (Energy)
 MAX. NUMBER OF ITERATIONS:      200
 INTERPOLATION TYPE:            DIIS
 INTERPOLATION STEPS:              2 (START)      1 (STEP)
 LEVEL SHIFTS:                  0.00 (CLOSED)  0.00 (OPEN) 



 Orbital guess generated from atomic densities. Full valence occupancy:    4   1   2   0

 Molecular orbital dump at record        2100.2

 Initial alpha occupancy:   3   1   1   0
 Initial beta  occupancy:   3   1   1   0
 Wave function symmetry:    1

 ITERATION    DDIFF          GRAD             ENERGY        2-EL.EN.            DIPOLE MOMENTS         DIIS
    1      0.000D+00      0.000D+00       -76.01856418     77.730547    0.00000    0.00000    1.16116    0
    2      0.000D+00      0.191D-01       -76.04659903     74.299820    0.00000    0.00000    0.71401    1
    3      0.331D-01      0.114D-01       -76.05664965     75.763258    0.00000    0.00000    0.81563    2
    4      0.109D-01      0.109D-02       -76.05683922     75.683631    0.00000    0.00000    0.81032    3
    5      0.161D-02      0.306D-03       -76.05685931     75.695504    0.00000    0.00000    0.80768    4
    6      0.560D-03      0.582D-04       -76.05686036     75.694130    0.00000    0.00000    0.80704    5
    7      0.127D-03      0.100D-04       -76.05686039     75.694242    0.00000    0.00000    0.80689    6
    8      0.258D-04      0.147D-05       -76.05686039     75.694185    0.00000    0.00000    0.80687    5
    9      0.336D-05      0.272D-06       -76.05686039     75.694213    0.00000    0.00000    0.80687    6
   10      0.609D-06      0.581D-07       -76.05686039     75.694207    0.00000    0.00000    0.80687    6
   11      0.113D-06      0.122D-07       -76.05686039     75.694208    0.00000    0.00000    0.80687    6
   12      0.334D-07      0.254D-08       -76.05686039     75.694208    0.00000    0.00000    0.80687    6
   13      0.600D-08      0.543D-09       -76.05686039     75.694208    0.00000    0.00000    0.80687    6
   14      0.150D-08      0.155D-09       -76.05686039     75.694208    0.00000    0.00000    0.80687    6
   15      0.425D-09      0.385D-10       -76.05686039     75.694208    0.00000    0.00000    0.80687    6
   16      0.935D-10      0.113D-10       -76.05686039     75.694208    0.00000    0.00000    0.80687    0

 Final occupancy:   3   1   1   0

 !RHF STATE 1.1 Energy                -76.056860394987
 Nuclear energy                         9.17417818
 One-electron energy                 -123.07814242
 Two-electron energy                   37.84710385
 Virial quotient                       -1.00076970
 !RHF STATE 1.1 Dipole moment           0.00000000     0.00000000     0.80686894
 Dipole moment /Debye                   0.00000000     0.00000000     2.05072197

 Orbital energies:

         1.1          2.1          3.1          4.1          5.1
    -20.555923    -1.345514    -0.580236     0.141717     0.606206

         1.2          2.2          3.2
     -0.504772     0.787102     0.948667

         1.3          2.3          3.3
     -0.705523     0.204136     0.540671

         1.4          2.4
      0.863815     2.061776


 **********************************************************************************************************************************
 DATASETS  * FILE   NREC   LENGTH (MB)   RECORD NAMES
              1      19        5.66       500      610      700      900      950      970     1000      129      960     1100   
                                          VAR    BASINP    GEOM    SYMINP    ZMAT    AOBASIS   BASIS     P2S    ABASIS      S 
                                         1400     1410     1200     1210     1080     1600     1650     1300     1700   
                                           T        V       H0       H01     AOSYM     SMH    MOLCAS    ERIS     OPER   

              2       3        0.32       700     1000     2100   
                                         GEOM     BASIS     RHF  

 PROGRAMS   *        TOTAL       RHF       INT
 CPU TIMES  *         0.23      0.03      0.15
 REAL TIME  *         1.80 SEC
 DISK USED  *        19.05 MB      
 GA USED    *         0.00 MB       (max)       0.00 MB       (current)
 **********************************************************************************************************************************


1PROGRAM * CCSD (Closed-shell coupled cluster)     Authors: C. Hampel, H.-J. Werner, 1991, M. Deegan, P.J. Knowles, 1992


 Convergence thresholds:  THRVAR = 1.00D-08  THRDEN = 1.00D-12

 CCSD(T)     terms to be evaluated (factor= 1.000)


 Number of core orbitals:           1 (   1   0   0   0 )
 Number of closed-shell orbitals:   4 (   2   1   1   0 )
 Number of external orbitals:      53 (  20  10  16   7 )

 Molecular orbitals read from record     2100.2  Type=RHF/CANONICAL (state 1.1)

 Number of N-1 electron functions:               4
 Number of N-2 electron functions:              10
 Number of singly external CSFs:                66
 Number of doubly external CSFs:              5929
 Total number of CSFs:                        5996

 Length of J-op  integral file:               0.00 MB
 Length of K-op  integral file:               0.10 MB
 Length of 3-ext integral record:             0.00 MB

 Memory could be reduced to 0.56 Mwords without degradation in triples

 Integral transformation finished. Total CPU:   0.01 sec, npass=  1  Memory used:   0.12 MW

 Reference energy:                    -76.05686039

 MP2 singlet pair energy:              -0.16641460
 MP2 triplet pair energy:              -0.09537620
 MP2 correlation energy:               -0.26179080
 MP2 total energy:                    -76.31865120

 SCS-MP2 correlation energy:           -0.25904271   (PS=  1.200000  PT=  0.333333)
 SCS-MP2 total energy:                -76.31590310

 ITER.      SQ.NORM     CORR.ENERGY   TOTAL ENERGY   ENERGY CHANGE        DEN1      VAR(S)    VAR(P)  DIIS     TIME
   1      1.06067462    -0.26717927   -76.32403966    -0.00538847    -0.00038600  0.45D-03  0.82D-03  1  1     0.01
   2      1.06382525    -0.26759793   -76.32445833    -0.00041866    -0.00449034  0.77D-05  0.87D-04  2  2     0.02
   3      1.06486110    -0.26766032   -76.32452072    -0.00006239    -0.00081799  0.15D-05  0.40D-05  3  3     0.03
   4      1.06513179    -0.26767048   -76.32453088    -0.00001016    -0.00016240  0.10D-06  0.20D-06  4  4     0.04
   5      1.06516810    -0.26766786   -76.32452826     0.00000262    -0.00001862  0.35D-07  0.11D-07  5  5     0.04
   6      1.06517413    -0.26766771   -76.32452810     0.00000015    -0.00000173  0.53D-08  0.12D-08  6  6     0.05
   7      1.06517575    -0.26766783   -76.32452823    -0.00000013    -0.00000031  0.82D-09  0.16D-09  6  1     0.05
   8      1.06517635    -0.26766785   -76.32452824    -0.00000001     0.00000042  0.29D-10  0.12D-10  6  2     0.06
   9      1.06517656    -0.26766783   -76.32452823     0.00000002    -0.00000008  0.12D-11  0.11D-11  6  3     0.07
  10      1.06517659    -0.26766783   -76.32452822     0.00000000     0.00000002  0.40D-13  0.57D-13  6  4     0.07
  11      1.06517660    -0.26766783   -76.32452822     0.00000000    -0.00000001  0.17D-14  0.42D-14  6  5     0.08
  12      1.06517660    -0.26766783   -76.32452822    -0.00000000     0.00000000  0.15D-15  0.29D-15  6  6     0.08
  13      1.06517660    -0.26766783   -76.32452822    -0.00000000     0.00000000  0.28D-16  0.23D-16  6  1     0.09
  14      1.06517660    -0.26766783   -76.32452822    -0.00000000     0.00000000  0.46D-17  0.23D-17  6  2     0.10
  15      1.06517660    -0.26766783   -76.32452822    -0.00000000     0.00000000  0.13D-17  0.20D-18  6  3     0.10
  16      1.06517660    -0.26766783   -76.32452822    -0.00000000     0.00000000  0.11D-18  0.18D-19  6  4     0.11
  17      1.06517660    -0.26766783   -76.32452822    -0.00000000     0.00000000  0.90D-20  0.23D-20  6  5     0.12
  18      1.06517660    -0.26766783   -76.32452822    -0.00000000    -0.00000000  0.40D-21  0.19D-21  6  6     0.12

 Norm of t1 vector:      0.02631286      S-energy:    -0.00000000      T1 diagnostic:  0.00657821
                                                                       D1 diagnostic:  0.01085216


 Total CPU time for triples:      0.02 sec


 RESULTS
 =======

  Reference energy                    -76.056860394987
  CCSD singlet pair energy             -0.182640359665
  CCSD triplet pair energy             -0.085027465479
  CCSD correlation energy              -0.267667825144

  Triples (T) contribution             -0.007680185317
  Total correlation energy             -0.275348010461

  CCSD total energy                   -76.324528220131
  CCSD[T] energy                      -76.332402763047
  CCSD-T energy                       -76.332070924077
 !CCSD(T) total energy                -76.332208405448

 Timing summary (sec):

 STEP                 CPU(USER)    SYS     CPU(TOT)    WALL
 Transformation          0.01      0.01      0.02      0.01
 CCSD iterations         0.11      0.01      0.12      0.17
 Triples                 0.02      0.00      0.02      0.02

 Program statistics:

 Available memory in ccsd:               999999836
 Min. memory needed in ccsd:                 31875
 Max. memory used in ccsd:                   36141
 Max. memory used in cckext:                 65678 (18 integral passes)



 **********************************************************************************************************************************
 DATASETS  * FILE   NREC   LENGTH (MB)   RECORD NAMES
              1      20        6.43       500      610      700      900      950      970     1000      129      960     1100   
                                          VAR    BASINP    GEOM    SYMINP    ZMAT    AOBASIS   BASIS     P2S    ABASIS      S 
                                         1400     1410     1200     1210     1080     1600     1650     1300     1700     1380   
                                           T        V       H0       H01     AOSYM     SMH    MOLCAS    ERIS     OPER     JKOP   

              2       3        0.32       700     1000     2100   
                                         GEOM     BASIS     RHF  

 PROGRAMS   *        TOTAL   CCSD(T)       RHF       INT
 CPU TIMES  *         0.38      0.15      0.03      0.15
 REAL TIME  *         3.42 SEC
 DISK USED  *        19.05 MB      
 GA USED    *         0.00 MB       (max)       0.00 MB       (current)
 **********************************************************************************************************************************

        CCSD(T)         RHF-SCF 
    -76.33220841    -76.05686039
 **********************************************************************************************************************************
 Variable memory released
