 Entering Gaussian System, Link 0=g03
 trademark of Gaussian, Inc.
 
 -----------------------------
 #p XXXX/GEN Freq
 -----------------------------

                          Input orientation:                          
 ---------------------------------------------------------------------
 Center     Atomic     Atomic              Coordinates (Angstroms)
 Number     Number      Type              X           Y           Z
 ---------------------------------------------------------------------
    1          6             0       -0.725280   -0.012214    0.000002
    2          8             0        0.692187    0.063965    0.000002
    3          1             0       -1.104842    1.023537   -0.000340
    4          1             0       -1.128924   -0.522743    0.899553
    5          1             0       -1.128894   -0.523296   -0.899249
    6          1             0        1.012935   -0.847247   -0.000010
 ---------------------------------------------------------------------
                        Standard orientation:                         
 ---------------------------------------------------------------------
 Center     Atomic     Atomic              Coordinates (Angstroms)
 Number     Number      Type              X           Y           Z
 ---------------------------------------------------------------------
    1          6             0       -0.725280   -0.012214    0.000002
    2          8             0        0.692187    0.063965    0.000002
    3          1             0       -1.104842    1.023537   -0.000340
    4          1             0       -1.128924   -0.522743    0.899553
    5          1             0       -1.128894   -0.523296   -0.899249
    6          1             0        1.012935   -0.847247   -0.000010
 ---------------------------------------------------------------------
                     1                      2                      3  
                     A                      A                      A  
 Frequencies --   347.7400              1075.2100              1101.8100
 Red. masses --     0.0000                 0.0000                 0.0000
 Frc consts  --     0.0000                 0.0000                 0.0000
 IR Inten    --   110.4838                86.6448                17.0523
 Atom AN      X      Y      Z        X      Y      Z        X      Y      Z      
   1   6     0.00  -0.00   0.01     0.31  -0.21  -0.00     0.59   0.17   0.00    
   2   8    -0.00   0.00  -0.24    -0.44   0.01   0.00    -0.54  -0.06  -0.00    
   3   1     0.00   0.00   0.29     0.54   0.11   0.00    -0.16  -0.07  -0.00    
   4   1     0.05  -0.22  -0.10    -0.17   0.19   0.03     0.29  -0.11  -0.03    
   5   1    -0.05   0.22  -0.10    -0.17   0.19  -0.03     0.29  -0.10   0.03    
   6   1    -0.00  -0.00   0.86     0.44   0.21  -0.00    -0.32  -0.07   0.00    
                     4                      5                      6  
                     A                      A                      A  
 Frequencies --  1173.2600              1406.5200              1485.5600
 Red. masses --     0.0000                 0.0000                 0.0000
 Frc consts  --     0.0000                 0.0000                 0.0000
 IR Inten    --     1.6805                28.0722                 9.7905
 Atom AN      X      Y      Z        X      Y      Z        X      Y      Z      
   1   6     0.00   0.00  -0.43     0.07  -0.37   0.00     0.35  -0.06   0.00    
   2   8    -0.00   0.00   0.22     0.08   0.28   0.00     0.04  -0.02   0.00    
   3   1    -0.00   0.00   0.24     0.33   0.00   0.00    -0.59  -0.25  -0.00    
   4   1     0.56   0.08   0.17    -0.10   0.19   0.11    -0.40   0.26  -0.05    
   5   1    -0.56  -0.08   0.17    -0.10   0.19  -0.11    -0.40   0.26   0.05    
   6   1    -0.00  -0.00  -0.00    -0.71  -0.20  -0.00     0.02   0.00   0.00    
                     7                      8                      9  
                     A                      A                      A  
 Frequencies --  1491.8300              1509.9100              3004.3900
 Red. masses --     0.0000                 0.0000                 0.0000
 Frc consts  --     0.0000                 0.0000                 0.0000
 IR Inten    --     1.2436                 3.1453                60.0438
 Atom AN      X      Y      Z        X      Y      Z        X      Y      Z      
   1   6     0.00  -0.00  -0.20     0.14   0.12  -0.00     0.15   0.09  -0.00    
   2   8     0.00  -0.00  -0.03     0.03   0.08  -0.00     0.01  -0.00   0.00    
   3   1    -0.00   0.00   0.71     0.22   0.08  -0.00    -0.10   0.28  -0.00    
   4   1    -0.29   0.37   0.06    -0.34  -0.41  -0.39    -0.22  -0.30   0.55    
   5   1     0.29  -0.37   0.06    -0.35  -0.41   0.39    -0.22  -0.30  -0.55    
   6   1     0.00  -0.00  -0.01    -0.14  -0.04  -0.00     0.00  -0.00  -0.00    
                     10                     11                     12 
                     A                      A                      A  
 Frequencies --  3061.0600              3141.0400              3841.3700
 Red. masses --     0.0000                 0.0000                 0.0000
 Frc consts  --     0.0000                 0.0000                 0.0000
 IR Inten    --    82.1802                36.1771                18.7531
 Atom AN      X      Y      Z        X      Y      Z        X      Y      Z      
   1   6     0.00   0.00   0.31     0.05  -0.29   0.00     0.00   0.01  -0.00    
   2   8    -0.00  -0.00  -0.00    -0.00   0.01  -0.00    -0.09   0.22   0.00    
   3   1    -0.00   0.00   0.02    -0.30   0.86  -0.00     0.00  -0.01   0.00    
   4   1     0.23   0.32  -0.54     0.06   0.07  -0.16     0.00  -0.00   0.00    
   5   1    -0.23  -0.32  -0.54     0.06   0.07   0.16     0.00  -0.00  -0.00    
   6   1     0.00   0.00  -0.00    -0.00  -0.02   0.00     0.34  -0.91  -0.00    
