[Molden Format]                                                                 
[ATOMS] AU                                                                      
C        1    6       -1.3705808318       -0.0230809811        0.0000031200     
O        2    8        1.3080439695        0.1208771398        0.0000031651     
H        3    1       -2.0878489375        1.9342047757       -0.0006424819     
H        4    1       -2.1333565755       -0.9878417389        1.6999087956     
H        5    1       -2.1333004061       -0.9888858155       -1.6993347904     
H        6    1        1.9141700604       -1.6010638562       -0.0000189046     
[Molden Format]                                                                 
[GTO]                                                                           
  1 0
s   9 1.00
   6665.00000000000       6.920000000000000E-004                                
   1000.00000000000       5.329000000000000E-003                                
   228.000000000000       2.707700000000000E-002                                
   64.7100000000000       0.101718000000000                                     
   21.0600000000000       0.274740000000000                                     
   7.49500000000000       0.448564000000000                                     
   2.79700000000000       0.285074000000000                                     
  0.521500000000000       1.520400000000000E-002                                
  0.159600000000000      -3.191000000000000E-003                                
s   9 1.00
   6665.00000000000      -1.460000000000000E-004                                
   1000.00000000000      -1.154000000000000E-003                                
   228.000000000000      -5.725000000000000E-003                                
   64.7100000000000      -2.331200000000000E-002                                
   21.0600000000000      -6.395500000000000E-002                                
   7.49500000000000      -0.149981000000000                                     
   2.79700000000000      -0.127262000000000                                     
  0.521500000000000       0.544529000000000                                     
  0.159600000000000       0.580496000000000                                     
s   9 1.00
   6665.00000000000       0.000000000000000E+000                                
   1000.00000000000       0.000000000000000E+000                                
   228.000000000000       0.000000000000000E+000                                
   64.7100000000000       0.000000000000000E+000                                
   21.0600000000000       0.000000000000000E+000                                
   7.49500000000000       0.000000000000000E+000                                
   2.79700000000000       0.000000000000000E+000                                
  0.521500000000000       0.000000000000000E+000                                
  0.159600000000000        1.00000000000000                                     
p   4 1.00
   9.43900000000000       3.810900000000000E-002                                
   2.00200000000000       0.209480000000000                                     
  0.545600000000000       0.508557000000000                                     
  0.151700000000000       0.468842000000000                                     
p   4 1.00
   9.43900000000000       0.000000000000000E+000                                
   2.00200000000000       0.000000000000000E+000                                
  0.545600000000000       0.000000000000000E+000                                
  0.151700000000000        1.00000000000000                                     
d   1 1.00
  0.550000000000000        1.00000000000000                                     
 
  2 0
s   9 1.00
   11720.0000000000       7.100000000000000E-004                                
   1759.00000000000       5.470000000000000E-003                                
   400.800000000000       2.783700000000000E-002                                
   113.700000000000       0.104800000000000                                     
   37.0300000000000       0.283062000000000                                     
   13.2700000000000       0.448719000000000                                     
   5.02500000000000       0.270952000000000                                     
   1.01300000000000       1.545800000000000E-002                                
  0.302300000000000      -2.585000000000000E-003                                
s   9 1.00
   11720.0000000000      -1.600000000000000E-004                                
   1759.00000000000      -1.263000000000000E-003                                
   400.800000000000      -6.267000000000000E-003                                
   113.700000000000      -2.571600000000000E-002                                
   37.0300000000000      -7.092400000000000E-002                                
   13.2700000000000      -0.165411000000000                                     
   5.02500000000000      -0.116955000000000                                     
   1.01300000000000       0.557368000000000                                     
  0.302300000000000       0.572759000000000                                     
s   9 1.00
   11720.0000000000       0.000000000000000E+000                                
   1759.00000000000       0.000000000000000E+000                                
   400.800000000000       0.000000000000000E+000                                
   113.700000000000       0.000000000000000E+000                                
   37.0300000000000       0.000000000000000E+000                                
   13.2700000000000       0.000000000000000E+000                                
   5.02500000000000       0.000000000000000E+000                                
   1.01300000000000       0.000000000000000E+000                                
  0.302300000000000        1.00000000000000                                     
p   4 1.00
   17.7000000000000       4.301800000000000E-002                                
   3.85400000000000       0.228913000000000                                     
   1.04600000000000       0.508728000000000                                     
  0.275300000000000       0.460531000000000                                     
p   4 1.00
   17.7000000000000       0.000000000000000E+000                                
   3.85400000000000       0.000000000000000E+000                                
   1.04600000000000       0.000000000000000E+000                                
  0.275300000000000        1.00000000000000                                     
d   1 1.00
   1.18500000000000        1.00000000000000                                     
 
  3 0
s   4 1.00
   13.0100000000000       1.968500000000000E-002                                
   1.96200000000000       0.137977000000000                                     
  0.444600000000000       0.478148000000000                                     
  0.122000000000000       0.501240000000000                                     
s   4 1.00
   13.0100000000000       0.000000000000000E+000                                
   1.96200000000000       0.000000000000000E+000                                
  0.444600000000000       0.000000000000000E+000                                
  0.122000000000000        1.00000000000000                                     
p   1 1.00
  0.727000000000000        1.00000000000000                                     
 
  4 0
s   4 1.00
   13.0100000000000       1.968500000000000E-002                                
   1.96200000000000       0.137977000000000                                     
  0.444600000000000       0.478148000000000                                     
  0.122000000000000       0.501240000000000                                     
s   4 1.00
   13.0100000000000       0.000000000000000E+000                                
   1.96200000000000       0.000000000000000E+000                                
  0.444600000000000       0.000000000000000E+000                                
  0.122000000000000        1.00000000000000                                     
p   1 1.00
  0.727000000000000        1.00000000000000                                     
 
                                                                                
  5 0                                                                           
s   4 1.00                                                                      
   13.0100000000000       1.968500000000000E-002                                
   1.96200000000000       0.137977000000000                                     
  0.444600000000000       0.478148000000000                                     
  0.122000000000000       0.501240000000000                                     
s   4 1.00                                                                      
   13.0100000000000       0.000000000000000E+000                                
   1.96200000000000       0.000000000000000E+000                                
  0.444600000000000       0.000000000000000E+000                                
  0.122000000000000        1.00000000000000                                     
p   1 1.00                                                                      
  0.727000000000000        1.00000000000000                                     
                                                                                
  6 0                                                                           
s   4 1.00                                                                      
   13.0100000000000       1.968500000000000E-002                                
   1.96200000000000       0.137977000000000                                     
  0.444600000000000       0.478148000000000                                     
  0.122000000000000       0.501240000000000                                     
s   4 1.00                                                                      
   13.0100000000000       0.000000000000000E+000                                
   1.96200000000000       0.000000000000000E+000                                
  0.444600000000000       0.000000000000000E+000                                
  0.122000000000000        1.00000000000000                                     
p   1 1.00                                                                      
  0.727000000000000        1.00000000000000                                     
                                                                                
[MO]                                                                            
 Sym= A                                                                         
 Ene=  -20.5531127431287                                                        
 Spin= Alpha                                                                    
 Occup= 1.0                                                                     
  1       -0.0000005430                                                         
  2        0.0000611541                                                         
  3        0.0024006390                                                         
  4        0.0004540127                                                         
  5       -0.0000037765                                                         
  6        0.0000000092                                                         
  7        0.0008572275                                                         
  8        0.0000349782                                                         
  9       -0.0000000866                                                         
 10       -0.0000879190                                                         
 11        0.0000359556                                                         
 12        0.0000519634                                                         
 13       -0.0000629187                                                         
 14        0.0000000032                                                         
 15       -0.0000000031                                                         
 16        1.0006362114                                                         
 17        0.0031190443                                                         
 18       -0.0038987508                                                         
 19       -0.0012413812                                                         
 20       -0.0020258155                                                         
 21       -0.0000000089                                                         
 22        0.0020569415                                                         
 23        0.0014407587                                                         
 24        0.0000000186                                                         
 25       -0.0001283696                                                         
 26        0.0000853647                                                         
 27        0.0000430049                                                         
 28       -0.0000911449                                                         
 29       -0.0000000007                                                         
 30        0.0000000024                                                         
 31       -0.0005325268                                                         
 32        0.0001039122                                                         
 33       -0.0001110643                                                         
 34        0.0000621221                                                         
 35       -0.0000000093                                                         
 36       -0.0005146926                                                         
 37        0.0001498497                                                         
 38       -0.0001483318                                                         
 39       -0.0000282029                                                         
 40        0.0000280388                                                         
 41       -0.0005146986                                                         
 42        0.0001497432                                                         
 43       -0.0001483307                                                         
 44       -0.0000282304                                                         
 45       -0.0000280187                                                         
 46        0.0000147844                                                         
 47        0.0000665844                                                         
 48        0.0001283873                                                         
 49       -0.0006704734                                                         
 50       -0.0000000110                                                         
 Sym= A                                                                         
 Ene=  -11.2798280520547                                                        
 Spin= Alpha                                                                    
 Occup= 1.0                                                                     
  1        1.0013665176                                                         
  2        0.0078035149                                                         
  3       -0.0084245485                                                         
  4        0.0008568226                                                         
  5       -0.0000685823                                                         
  6       -0.0000000373                                                         
  7        0.0001248896                                                         
  8        0.0001081078                                                         
  9        0.0000000121                                                         
 10        0.0000082722                                                         
 11       -0.0000022597                                                         
 12       -0.0000060125                                                         
 13       -0.0000030659                                                         
 14       -0.0000000096                                                         
 15       -0.0000000193                                                         
 16        0.0001227670                                                         
 17        0.0008296899                                                         
 18       -0.0010467124                                                         
 19       -0.0003554792                                                         
 20        0.0000020366                                                         
 21        0.0000000005                                                         
 22        0.0007483032                                                         
 23        0.0003360918                                                         
 24        0.0000000122                                                         
 25       -0.0001357148                                                         
 26        0.0000152905                                                         
 27        0.0001204243                                                         
 28       -0.0000125965                                                         
 29       -0.0000000046                                                         
 30       -0.0000000013                                                         
 31        0.0002031635                                                         
 32        0.0011121379                                                         
 33       -0.0001470900                                                         
 34        0.0002380493                                                         
 35       -0.0000000704                                                         
 36        0.0002129598                                                         
 37        0.0011857237                                                         
 38       -0.0001358890                                                         
 39       -0.0001326345                                                         
 40        0.0002157327                                                         
 41        0.0002129924                                                         
 42        0.0011856593                                                         
 43       -0.0001358844                                                         
 44       -0.0001327778                                                         
 45       -0.0002156621                                                         
 46        0.0005867664                                                         
 47       -0.0000753019                                                         
 48       -0.0003070729                                                         
 49        0.0000675826                                                         
 50        0.0000000042                                                         
 Sym= A                                                                         
 Ene=  -1.35098184240194                                                        
 Spin= Alpha                                                                    
 Occup= 1.0                                                                     
  1        0.0094069753                                                         
  2       -0.2680602408                                                         
  3        0.1171857786                                                         
  4       -0.1548178529                                                         
  5        0.0003653920                                                         
  6        0.0000002931                                                         
  7        0.0574275277                                                         
  8        0.0070749691                                                         
  9        0.0000004249                                                         
 10       -0.0173516989                                                         
 11        0.0086506963                                                         
 12        0.0087010026                                                         
 13        0.0028158795                                                         
 14        0.0000000276                                                         
 15        0.0000003123                                                         
 16        0.0103143742                                                         
 17       -0.8343393756                                                         
 18        0.0610961743                                                         
 19        0.0744810070                                                         
 20        0.0881303992                                                         
 21        0.0000013798                                                         
 22       -0.0008633037                                                         
 23       -0.0431494913                                                         
 24       -0.0000006751                                                         
 25       -0.0037440190                                                         
 26        0.0000481605                                                         
 27        0.0036958586                                                         
 28       -0.0004216438                                                         
 29        0.0000000286                                                         
 30       -0.0000001008                                                         
 31       -0.0612643167                                                         
 32        0.0252227912                                                         
 33       -0.0044356375                                                         
 34        0.0059079881                                                         
 35       -0.0000022069                                                         
 36       -0.0587527821                                                         
 37        0.0264073209                                                         
 38       -0.0051942854                                                         
 39       -0.0034723910                                                         
 40        0.0060281360                                                         
 41       -0.0587567220                                                         
 42        0.0264125138                                                         
 43       -0.0051943508                                                         
 44       -0.0034761768                                                         
 45       -0.0060268566                                                         
 46       -0.2937321578                                                         
 47        0.1413622132                                                         
 48        0.0148117558                                                         
 49       -0.0340406660                                                         
 50       -0.0000004601                                                         
 Sym= A                                                                         
 Ene= -0.915868628276187                                                        
 Spin= Alpha                                                                    
 Occup= 1.0                                                                     
  1        0.0147300704                                                         
  2       -0.7200408033                                                         
  3        0.1963386545                                                         
  4        0.0835922665                                                         
  5       -0.0193822381                                                         
  6        0.0000062331                                                         
  7       -0.0100291816                                                         
  8        0.0137714290                                                         
  9       -0.0000050930                                                         
 10        0.0006719224                                                         
 11       -0.0013383957                                                         
 12        0.0006664733                                                         
 13       -0.0030973877                                                         
 14       -0.0000001818                                                         
 15        0.0000002026                                                         
 16        0.0017534168                                                         
 17        0.2568154363                                                         
 18       -0.0174454020                                                         
 19        0.2558138049                                                         
 20       -0.0990022714                                                         
 21        0.0000004078                                                         
 22       -0.0190927753                                                         
 23        0.0367033117                                                         
 24        0.0000008020                                                         
 25       -0.0078088015                                                         
 26        0.0055054761                                                         
 27        0.0023033254                                                         
 28       -0.0052402692                                                         
 29       -0.0000001740                                                         
 30        0.0000000725                                                         
 31       -0.3282589181                                                         
 32        0.1332795881                                                         
 33       -0.0060703437                                                         
 34        0.0239889564                                                         
 35       -0.0000076711                                                         
 36       -0.3120315921                                                         
 37        0.1308068715                                                         
 38       -0.0074477666                                                         
 39       -0.0117735983                                                         
 40        0.0194639333                                                         
 41       -0.3120313019                                                         
 42        0.1308030514                                                         
 43       -0.0074473252                                                         
 44       -0.0117854343                                                         
 45       -0.0194562331                                                         
 46        0.2541320315                                                         
 47       -0.1062975456                                                         
 48       -0.0054151587                                                         
 49        0.0230141627                                                         
 50        0.0000005191                                                         
 Sym= A                                                                         
 Ene= -0.681855583314534                                                        
 Spin= Alpha                                                                    
 Occup= 1.0                                                                     
  1        0.0033948383                                                         
  2       -0.0735894669                                                         
  3        0.0057571958                                                         
  4        0.2678157665                                                         
  5        0.3058324528                                                         
  6        0.0000025672                                                         
  7       -0.0577974178                                                         
  8       -0.0457930711                                                         
  9       -0.0000034141                                                         
 10        0.0141103313                                                         
 11       -0.0033154844                                                         
 12       -0.0107948469                                                         
 13        0.0172869209                                                         
 14        0.0000002991                                                         
 15       -0.0000081363                                                         
 16        0.0002802913                                                         
 17        0.1719590400                                                         