
    -----------------------------------------------------------------------
          Psi4: An Open-Source Ab Initio Electronic Structure Package
                               Psi4 1.4a2.dev629 

                         Git: Rev {master} 2938fc2 dirty


    D. G. A. Smith, L. A. Burns, A. C. Simmonett, R. M. Parrish,
    M. C. Schieber, R. Galvelis, P. Kraus, H. Kruse, R. Di Remigio,
    A. Alenaizan, A. M. James, S. Lehtola, J. P. Misiewicz, M. Scheurer,
    R. A. Shaw, J. B. Schriber, Y. Xie, Z. L. Glick, D. A. Sirianni,
    J. S. O'Brien, J. M. Waldrop, A. Kumar, E. G. Hohenstein,
    B. P. Pritchard, B. R. Brooks, H. F. Schaefer III, A. Yu. Sokolov,
    K. Patkowski, A. E. DePrince III, U. Bozkaya, R. A. King,
    F. A. Evangelista, J. M. Turney, T. D. Crawford, C. D. Sherrill,
    J. Chem. Phys. 152(18) 184108 (2020). https://doi.org/10.1063/5.0006002

                            Additional Code Authors
    E. T. Seidl, C. L. Janssen, E. F. Valeev, M. L. Leininger,
    J. F. Gonthier, R. M. Richard, H. R. McAlexander, M. Saitow, X. Wang,
    P. Verma, and M. H. Lechner

             Previous Authors, Complete List of Code Contributors,
                       and Citations for Specific Modules
    https://github.com/psi4/psi4/blob/master/codemeta.json
    https://github.com/psi4/psi4/graphs/contributors
    http://psicode.org/psi4manual/master/introduction.html#citing-psifour

    -----------------------------------------------------------------------


    Psi4 started on: Monday, 06 September 2021 06:16PM

    Process ID: 16868
    Host:       n004
    PSIDATADIR: /opt/psi/4/master/share/psi4
    Memory:     500.0 MiB
    Threads:    1
    
  ==> Input File <==

--------------------------------------------------------------------------
# o-Benzyne preliminary computations

memory 14 gb

molecule {
  0 1
  units bohr
 H   -0.0000000000   -1.4324558220    0.9949211737
 O    0.0000000000   -0.0000000000   -0.1234987273
 H    0.0000000000    1.4324558220    0.9949211737
}

set {
  basis cc-pvdz
  reference rhf
  e_convergence 10 
  d_convergence 10
  r_convergence 8
  maxiter 300
  freeze_core True
}

e, wfn = energy('ccsd(t)', return_wfn = True)
psi4.print_out('Giraffe The Energy is %.12f \n'%(e))
--------------------------------------------------------------------------

  Memory set to  13.039 GiB by Python driver.

Scratch directory: /tmp/

*** tstart() called on n004
*** at Mon Sep  6 18:16:37 2021

   => Loading Basis Set <=

    Name: CC-PVDZ
    Role: ORBITAL
    Keyword: BASIS
    atoms 1, 3 entry H          line    22 file /opt/psi/4/master/share/psi4/basis/cc-pvdz.gbs 
    atoms 2    entry O          line   198 file /opt/psi/4/master/share/psi4/basis/cc-pvdz.gbs 


         ---------------------------------------------------------
                                   SCF
               by Justin Turney, Rob Parrish, Andy Simmonett
                          and Daniel G. A. Smith
                              RHF Reference
                        1 Threads,  13351 MiB Core
         ---------------------------------------------------------

  ==> Geometry <==

    Molecular point group: c2v
    Full point group: C2v

    Geometry (in Bohr), charge = 0, multiplicity = 1:

       Center              X                  Y                   Z               Mass       
    ------------   -----------------  -----------------  -----------------  -----------------
         H            0.000000000000    -1.432455822000     0.993252079497     1.007825032230
         O            0.000000000000     0.000000000000    -0.125167821503    15.994914619570
         H           -0.000000000000     1.432455822000     0.993252079497     1.007825032230

  Running in c2v symmetry.

  Rotational constants: A =     26.88529  B =     14.55515  C =      9.44294 [cm^-1]
  Rotational constants: A = 806000.71638  B = 436352.35406  C = 283092.07610 [MHz]
  Nuclear repulsion =    9.153036450757845

  Charge       = 0
  Multiplicity = 1
  Electrons    = 10
  Nalpha       = 5
  Nbeta        = 5

  ==> Algorithm <==

  SCF Algorithm Type is PK.
  DIIS enabled.
  MOM disabled.
  Fractional occupation disabled.
  Guess Type is SAD.
  Energy threshold   = 1.00e-10
  Density threshold  = 1.00e-10
  Integral threshold = 0.00e+00

  ==> Primary Basis <==

  Basis Set: CC-PVDZ
    Blend: CC-PVDZ
    Number of shells: 12
    Number of basis function: 24
    Number of Cartesian functions: 25
    Spherical Harmonics?: true
    Max angular momentum: 2

  ==> Integral Setup <==

  Using in-core PK algorithm.
   Calculation information:
      Number of atoms:                   3
      Number of AO shells:              12
      Number of primitives:             32
      Number of atomic orbitals:        25
      Number of basis functions:        24

      Integral cutoff                 1.00e-12
      Number of threads:                 1

  Performing in-core PK
  Using 90300 doubles for integral storage.
  We computed 3081 shell quartets total.
  Whereas there are 3081 unique shell quartets.

  ==> DiskJK: Disk-Based J/K Matrices <==

    J tasked:                  Yes
    K tasked:                  Yes
    wK tasked:                  No
    Memory [MiB]:            10013
    Schwarz Cutoff:          1E-12

    OpenMP threads:              1

  Minimum eigenvalue in the overlap matrix is 3.2760399371E-02.
  Reciprocal condition number of the overlap matrix is 1.0410405272E-02.
    Using symmetric orthogonalization.

  ==> Pre-Iterations <==

  SCF Guess: Superposition of Atomic Densities via on-the-fly atomic UHF (no occupation information).

   -------------------------
    Irrep   Nso     Nmo    
   -------------------------
     A1        11      11 
     A2         2       2 
     B1         4       4 
     B2         7       7 
   -------------------------
    Total      24      24
   -------------------------

  ==> Iterations <==

                        Total Energy        Delta E     RMS |[F,P]|

   @RHF iter SAD:   -75.50590375306913   -7.55059e+01   0.00000e+00 
   @RHF iter   1:   -75.95350691813049   -4.47603e-01   3.03109e-02 DIIS
   @RHF iter   2:   -76.00686844398911   -5.33615e-02   1.74062e-02 DIIS
   @RHF iter   3:   -76.02614381031444   -1.92754e-02   1.58812e-03 DIIS
   @RHF iter   4:   -76.02653405769729   -3.90247e-04   3.67946e-04 DIIS
   @RHF iter   5:   -76.02655392732585   -1.98696e-05   6.73554e-05 DIIS
   @RHF iter   6:   -76.02655486195945   -9.34634e-07   1.06072e-05 DIIS
   @RHF iter   7:   -76.02655488748324   -2.55238e-08   1.46975e-06 DIIS
   @RHF iter   8:   -76.02655488798993   -5.06688e-10   3.44067e-07 DIIS
   @RHF iter   9:   -76.02655488802246   -3.25286e-11   5.99469e-08 DIIS
   @RHF iter  10:   -76.02655488802328   -8.24230e-13   4.93860e-09 DIIS
   @RHF iter  11:   -76.02655488802336   -7.10543e-14   8.62667e-10 DIIS
   @RHF iter  12:   -76.02655488802338   -2.84217e-14   4.90231e-11 DIIS
  Energy and wave function converged.


  ==> Post-Iterations <==

    Orbital Energies [Eh]
    ---------------------

    Doubly Occupied:                                                      

       1A1   -20.551475     2A1    -1.334815     1B2    -0.696014  
       3A1    -0.566724     1B1    -0.493003  

    Virtual:                                                              

       4A1     0.184721     2B2     0.255649     3B2     0.784508  
       5A1     0.852293     6A1     1.164188     2B1     1.200204  
       4B2     1.254072     7A1     1.440932     1A2     1.476669  
       3B1     1.671188     8A1     1.867211     5B2     1.932794  
       6B2     2.441119     9A1     2.480125     4B1     3.284216  
       2A2     3.332734    10A1     3.506694    11A1     3.857394  
       7B2     4.145157  

    Final Occupation by Irrep:
             A1    A2    B1    B2 
    DOCC [     3,    0,    1,    1 ]

  @RHF Final Energy:   -76.02655488802338

   => Energetics <=

    Nuclear Repulsion Energy =              9.1530364507578454
    One-Electron Energy =                -123.0751215202629396
    Two-Electron Energy =                  37.8955301814817105
    Total Energy =                        -76.0265548880233837

Computation Completed


Properties will be evaluated at   0.000000,   0.000000,   0.000000 [a0]

Properties computed using the SCF density matrix

  Nuclear Dipole Moment: [e a0]
     X:     0.0000      Y:     0.0000      Z:     0.9852

  Electronic Dipole Moment: [e a0]
     X:     0.0000      Y:     0.0000      Z:    -0.1716

  Dipole Moment: [e a0]
     X:     0.0000      Y:     0.0000      Z:     0.8136     Total:     0.8136

  Dipole Moment: [D]
     X:     0.0000      Y:     0.0000      Z:     2.0678     Total:     2.0678


*** tstop() called on n004 at Mon Sep  6 18:16:39 2021
Module time:
	user time   =       1.17 seconds =       0.02 minutes
	system time =       0.01 seconds =       0.00 minutes
	total time  =          2 seconds =       0.03 minutes
Total time:
	user time   =       1.17 seconds =       0.02 minutes
	system time =       0.01 seconds =       0.00 minutes
	total time  =          2 seconds =       0.03 minutes
 MINTS: Wrapper to libmints.
   by Justin Turney

   Calculation information:
      Number of threads:                 1
      Number of atoms:                   3
      Number of AO shells:              12
      Number of SO shells:               9
      Number of primitives:             32
      Number of atomic orbitals:        25
      Number of basis functions:        24

      Number of irreps:                  4
      Integral cutoff                 0.00e+00
      Number of functions per irrep: [  11    2    4    7 ]

 OEINTS: Overlap, kinetic, potential, dipole, and quadrupole integrals
         stored in file 35.

      Computing two-electron integrals...done
      Computed 11584 non-zero two-electron integrals.
        Stored in file 33.


*** tstart() called on n004
*** at Mon Sep  6 18:16:39 2021


	Wfn Parameters:
	--------------------
	Wavefunction         = CCSD_T
	Number of irreps     = 4
	Number of MOs        = 24
	Number of active MOs = 23
	AO-Basis             = NONE
	Semicanonical        = false
	Reference            = RHF
	Print Level          = 1

	IRREP	# MOs	# FZDC	# DOCC	# SOCC	# VIRT	# FZVR
	-----	-----	------	------	------	------	------
	 A1	   11	    1	    2	    0	    8	    0
	 A2	   2	    0	    0	    0	    2	    0
	 B1	   4	    0	    1	    0	    3	    0
	 B2	   7	    0	    1	    0	    6	    0
	Transforming integrals...
	IWL integrals will be deleted.
	(OO|OO)...
	Presorting SO-basis two-electron integrals.
	Sorting File: SO Ints (nn|nn) nbuckets = 1
	Transforming the one-electron integrals and constructing Fock matrices
	Starting first half-transformation.
	Sorting half-transformed integrals.
	First half integral transformation complete.
	Starting second half-transformation.
	Two-electron integral transformation complete.
	(OO|OV)...
	Starting second half-transformation.
	Two-electron integral transformation complete.
	(OO|VV)...
	Starting second half-transformation.
	Two-electron integral transformation complete.
	(OV|OO)...
	Starting first half-transformation.
	Sorting half-transformed integrals.
	First half integral transformation complete.
	Starting second half-transformation.
	Two-electron integral transformation complete.
	(OV|OV)...
	Starting second half-transformation.
	Two-electron integral transformation complete.
	(OV|VV)...
	Starting second half-transformation.
	Two-electron integral transformation complete.
	(VV|OO)...
	Starting first half-transformation.
	Sorting half-transformed integrals.
	First half integral transformation complete.
	Starting second half-transformation.
	Two-electron integral transformation complete.
	(VV|OV)...
	Starting second half-transformation.
	Two-electron integral transformation complete.
	(VV|VV)...
	Starting second half-transformation.
	Two-electron integral transformation complete.
	Frozen core energy     =    -61.30606255111638

	Size of irrep 0 of <ab|cd> integrals:      0.013 (MW) /      0.102 (MB)
	Size of irrep 1 of <ab|cd> integrals:      0.005 (MW) /      0.037 (MB)
	Size of irrep 2 of <ab|cd> integrals:      0.005 (MW) /      0.041 (MB)
	Size of irrep 3 of <ab|cd> integrals:      0.012 (MW) /      0.093 (MB)
	Total:                                     0.034 (MW) /      0.274 (MB)

	Size of irrep 0 of <ia|bc> integrals:      0.003 (MW) /      0.023 (MB)
	Size of irrep 1 of <ia|bc> integrals:      0.001 (MW) /      0.007 (MB)
	Size of irrep 2 of <ia|bc> integrals:      0.001 (MW) /      0.009 (MB)
	Size of irrep 3 of <ia|bc> integrals:      0.002 (MW) /      0.019 (MB)
	Total:                                     0.007 (MW) /      0.058 (MB)

	Size of irrep 0 of tijab amplitudes:       0.001 (MW) /      0.005 (MB)
	Size of irrep 1 of tijab amplitudes:       0.000 (MW) /      0.001 (MB)
	Size of irrep 2 of tijab amplitudes:       0.000 (MW) /      0.002 (MB)
	Size of irrep 3 of tijab amplitudes:       0.000 (MW) /      0.003 (MB)
	Total:                                     0.002 (MW) /      0.012 (MB)

	Nuclear Rep. energy          =      9.15303645075785
	SCF energy                   =    -76.02655488802338
	One-electron energy          =    -41.56594671959052
	Two-electron energy          =     17.69241793192568
	Reference energy             =    -76.02655488802338

*** tstop() called on n004 at Mon Sep  6 18:16:39 2021
Module time:
	user time   =       0.04 seconds =       0.00 minutes
	system time =       0.05 seconds =       0.00 minutes
	total time  =          0 seconds =       0.00 minutes
Total time:
	user time   =       1.26 seconds =       0.02 minutes
	system time =       0.07 seconds =       0.00 minutes
	total time  =          2 seconds =       0.03 minutes
            **************************
            *                        *
            *        CCENERGY        *
            *                        *
            **************************

    Nuclear Rep. energy (wfn)     =    9.153036450757845
    SCF energy          (wfn)     =  -76.026554888023384
    Reference energy    (file100) =  -76.026554888023384

    Input parameters:
    -----------------
    Wave function   =     CCSD_T
    Reference wfn   =     RHF
    Brueckner       =     No
    Memory (Mbytes) =     14000.0
    Maxiter         =    300
    R_Convergence   =     1.0e-08
    E_Convergence   =     1.0e-10
    Restart         =     Yes
    DIIS            =     Yes
    AO Basis        =     NONE
    ABCD            =     NEW
    Cache Level     =     2
    Cache Type      =     LOW
    Print Level     =     1
    Num. of threads =     1
    # Amps to Print =     10
    Print MP2 Amps? =     No
    Analyze T2 Amps =     No
    Print Pair Ener =     No
    Local CC        =     No
    SCS-MP2         =     False
    SCSN-MP2        =     False
    SCS-CCSD        =     False

MP2 correlation energy -0.2019902407318619
                Solving CC Amplitude Equations
                ------------------------------
  Iter             Energy              RMS        T1Diag      D1Diag    New D1Diag    D2Diag
  ----     ---------------------    ---------   ----------  ----------  ----------   --------
     0        -0.201990240731862    0.000e+00    0.000000    0.000000    0.000000    0.109911
     1        -0.207130162754484    2.679e-02    0.004539    0.008677    0.008677    0.116912
     2        -0.211116688984647    9.472e-03    0.005379    0.009999    0.009999    0.122318
     3        -0.211533921783408    2.464e-03    0.005869    0.010879    0.010879    0.123548
     4        -0.211545390478283    5.691e-04    0.005917    0.011104    0.011104    0.123748
     5        -0.211556681417853    1.704e-04    0.005944    0.011219    0.011219    0.123783
     6        -0.211554736031582    5.665e-05    0.005953    0.011266    0.011266    0.123775
     7        -0.211554503171112    1.516e-05    0.005957    0.011281    0.011281    0.123773
     8        -0.211554372713639    2.623e-06    0.005957    0.011283    0.011283    0.123773
     9        -0.211554326172488    6.338e-07    0.005957    0.011283    0.011283    0.123773
    10        -0.211554340643263    1.281e-07    0.005957    0.011283    0.011283    0.123773
    11        -0.211554339253814    2.739e-08    0.005957    0.011283    0.011283    0.123773
    12        -0.211554339670031    4.609e-09    0.005957    0.011283    0.011283    0.123773
    13        -0.211554339550263    1.004e-09    0.005957    0.011283    0.011283    0.123773
    14        -0.211554339542339    2.012e-10    0.005957    0.011283    0.011283    0.123773
    15        -0.211554339539397    5.544e-11    0.005957    0.011283    0.011283    0.123773

    Iterations converged.


    Largest TIA Amplitudes:
              1   0         0.0076318273
              3  17        -0.0073929252
              3  13         0.0059750603
              1   5        -0.0050479146
              3  15         0.0046597050
              0   2         0.0042502745
              0   0         0.0037320417
              2  11         0.0033076853
              2  10         0.0030868041
              1   1         0.0030721367

    Largest TIjAb Amplitudes:
      2   2  10  10        -0.0514228000
      3   3  14  14        -0.0362184202
      1   1   2   2        -0.0352646901
      3   3  13  13        -0.0297790848
      1   2   2  10         0.0285393799
      2   1  10   2         0.0285393799
      3   3   1   1        -0.0282810781
      1   1  14  14        -0.0257207694
      2   3  10  15         0.0228145545
      3   2  15  10         0.0228145545

    SCF energy       (wfn)                    =  -76.026554888023384
    Reference energy (file100)                =  -76.026554888023384

    Opposite-spin MP2 correlation energy      =   -0.151214860916990
    Same-spin MP2 correlation energy          =   -0.050775379814872
    Singles MP2 correlation energy            =   -0.000000000000000
    MP2 correlation energy                    =   -0.201990240731862
      * MP2 total energy                      =  -76.228545128755243

    Opposite-spin CCSD correlation energy     =   -0.166239647787405
    Same-spin CCSD correlation energy         =   -0.045314691751992
    Singles CCSD correlation energy           =    0.000000000000000
    CCSD correlation energy                   =   -0.211554339539397
      * CCSD total energy                     =  -76.238109227562788

            **************************
            *                        *
            *        CCTRIPLES       *
            *                        *
            **************************


    Wave function   =    CCSD_T
    Reference wfn   =      RHF

    Nuclear Rep. energy (wfn)                =    9.153036450757845
    SCF energy          (wfn)                =  -76.026554888023384
    Reference energy    (file100)            =  -76.026554888023384
    CCSD energy         (file100)            =   -0.211554339539397
    Total CCSD energy   (file100)            =  -76.238109227562788

    Number of ijk index combinations:               20
    Memory available in words        :      1750000000
    ~Words needed per explicit thread:            2048
    Number of threads for explicit ijk threading:    1

    MKL num_threads set to 1 for explicit threading.

    (T) energy                                =   -0.003059298877897
      * CCSD(T) total energy                  =  -76.241168526440674

Giraffe The Energy is -76.241168526441 

    Psi4 stopped on: Monday, 06 September 2021 06:16PM
    Psi4 wall time for execution: 0:00:05.55

*** Psi4 exiting successfully. Buy a developer a beer!
