
    -----------------------------------------------------------------------
          Psi4: An Open-Source Ab Initio Electronic Structure Package
                               Psi4 1.4a2.dev629 

                         Git: Rev {master} 2938fc2 dirty


    D. G. A. Smith, L. A. Burns, A. C. Simmonett, R. M. Parrish,
    M. C. Schieber, R. Galvelis, P. Kraus, H. Kruse, R. Di Remigio,
    A. Alenaizan, A. M. James, S. Lehtola, J. P. Misiewicz, M. Scheurer,
    R. A. Shaw, J. B. Schriber, Y. Xie, Z. L. Glick, D. A. Sirianni,
    J. S. O'Brien, J. M. Waldrop, A. Kumar, E. G. Hohenstein,
    B. P. Pritchard, B. R. Brooks, H. F. Schaefer III, A. Yu. Sokolov,
    K. Patkowski, A. E. DePrince III, U. Bozkaya, R. A. King,
    F. A. Evangelista, J. M. Turney, T. D. Crawford, C. D. Sherrill,
    J. Chem. Phys. 152(18) 184108 (2020). https://doi.org/10.1063/5.0006002

                            Additional Code Authors
    E. T. Seidl, C. L. Janssen, E. F. Valeev, M. L. Leininger,
    J. F. Gonthier, R. M. Richard, H. R. McAlexander, M. Saitow, X. Wang,
    P. Verma, and M. H. Lechner

             Previous Authors, Complete List of Code Contributors,
                       and Citations for Specific Modules
    https://github.com/psi4/psi4/blob/master/codemeta.json
    https://github.com/psi4/psi4/graphs/contributors
    http://psicode.org/psi4manual/master/introduction.html#citing-psifour

    -----------------------------------------------------------------------


    Psi4 started on: Saturday, 19 September 2020 05:49PM

    Process ID: 14978
    Host:       n044
    PSIDATADIR: /opt/psi/4/master/share/psi4
    Memory:     500.0 MiB
    Threads:    1
    
  ==> Input File <==

--------------------------------------------------------------------------
# o-Benzyne preliminary computations

memory 14 gb

molecule {
  0 1
  C   -1.3671324426   -0.0233977643    0.0000057269
  O    1.2962455556    0.1202950928    0.0000021271
  H   -2.0723287767    1.9025960091   -0.0009196172
  H   -2.0995782773   -0.9751712280    1.6763540632
  H   -2.0994900673   -0.9766825043   -1.6755220023
  H    1.9354197683   -1.5727780655   -0.0000132878
  units bohr
}

set {
  basis=cc-pVTZ
  reference rhf
  e_convergence 10 
  d_convergence 10
  r_convergence 8
  maxiter 300
}

energy('ccsd(t)')
--------------------------------------------------------------------------

  Memory set to  13.039 GiB by Python driver.

Scratch directory: /tmp/

*** tstart() called on n044
*** at Sat Sep 19 17:49:54 2020

   => Loading Basis Set <=

    Name: CC-PVTZ
    Role: ORBITAL
    Keyword: BASIS
    atoms 1   entry C          line   186 file /opt/psi/4/master/share/psi4/basis/cc-pvtz.gbs 
    atoms 2   entry O          line   262 file /opt/psi/4/master/share/psi4/basis/cc-pvtz.gbs 
    atoms 3-6 entry H          line    23 file /opt/psi/4/master/share/psi4/basis/cc-pvtz.gbs 


         ---------------------------------------------------------
                                   SCF
               by Justin Turney, Rob Parrish, Andy Simmonett
                          and Daniel G. A. Smith
                              RHF Reference
                        1 Threads,  13351 MiB Core
         ---------------------------------------------------------

  ==> Geometry <==

    Molecular point group: c1
    Full point group: C1

    Geometry (in Bohr), charge = 0, multiplicity = 1:

       Center              X                  Y                   Z               Mass       
    ------------   -----------------  -----------------  -----------------  -----------------
         C           -1.365816057281    -0.023666553351     0.000005692167    12.000000000000
         O            1.297561940919     0.120026303749     0.000002092367    15.994914619570
         H           -2.071012391381     1.902327220049    -0.000919651933     1.007825032230
         H           -2.098261891981    -0.975440017051     1.676354028467     1.007825032230
         H           -2.098173681981    -0.976951293351    -1.675522037033     1.007825032230
         H            1.936736153619    -1.573046854551    -0.000013322533     1.007825032230

  Running in c1 symmetry.

  Rotational constants: A =      4.31216  B =      0.83664  C =      0.80706 [cm^-1]
  Rotational constants: A = 129275.18139  B =  25081.89044  C =  24195.02223 [MHz]
  Nuclear repulsion =   40.504448952564736

  Charge       = 0
  Multiplicity = 1
  Electrons    = 18
  Nalpha       = 9
  Nbeta        = 9

  ==> Algorithm <==

  SCF Algorithm Type is PK.
  DIIS enabled.
  MOM disabled.
  Fractional occupation disabled.
  Guess Type is SAD.
  Energy threshold   = 1.00e-10
  Density threshold  = 1.00e-10
  Integral threshold = 0.00e+00

  ==> Primary Basis <==

  Basis Set: CC-PVTZ
    Blend: CC-PVTZ
    Number of shells: 44
    Number of basis function: 116
    Number of Cartesian functions: 130
    Spherical Harmonics?: true
    Max angular momentum: 3

  ==> Integral Setup <==

  Using in-core PK algorithm.
   Calculation information:
      Number of atoms:                   6
      Number of AO shells:              44
      Number of primitives:             84
      Number of atomic orbitals:       130
      Number of basis functions:       116

      Integral cutoff                 1.00e-12
      Number of threads:                 1

  Performing in-core PK
  Using 46056582 doubles for integral storage.
  We computed 490499 shell quartets total.
  Whereas there are 490545 unique shell quartets.

  ==> DiskJK: Disk-Based J/K Matrices <==

    J tasked:                  Yes
    K tasked:                  Yes
    wK tasked:                  No
    Memory [MiB]:            10013
    Schwarz Cutoff:          1E-12

    OpenMP threads:              1

  Minimum eigenvalue in the overlap matrix is 1.8277870575E-03.
  Reciprocal condition number of the overlap matrix is 2.7525989317E-04.
    Using symmetric orthogonalization.

  ==> Pre-Iterations <==

  SCF Guess: Superposition of Atomic Densities via on-the-fly atomic UHF (no occupation information).

   -------------------------
    Irrep   Nso     Nmo    
   -------------------------
     A        116     116 
   -------------------------
    Total     116     116
   -------------------------

  ==> Iterations <==

                        Total Energy        Delta E     RMS |[F,P]|

   @RHF iter SAD:  -114.43756977326993   -1.14438e+02   0.00000e+00 
   @RHF iter   1:  -115.01453057801328   -5.76961e-01   3.42320e-03 DIIS
   @RHF iter   2:  -115.07179626283256   -5.72657e-02   1.95031e-03 DIIS
   @RHF iter   3:  -115.08856376662087   -1.67675e-02   3.00750e-04 DIIS
   @RHF iter   4:  -115.08944585133523   -8.82085e-04   8.75224e-05 DIIS
   @RHF iter   5:  -115.08951857164206   -7.27203e-05   2.13227e-05 DIIS
   @RHF iter   6:  -115.08952338154512   -4.80990e-06   4.71857e-06 DIIS
   @RHF iter   7:  -115.08952374673184   -3.65187e-07   1.09583e-06 DIIS
   @RHF iter   8:  -115.08952376819872   -2.14669e-08   2.26834e-07 DIIS
   @RHF iter   9:  -115.08952376910861   -9.09893e-10   4.21300e-08 DIIS
   @RHF iter  10:  -115.08952376913807   -2.94591e-11   1.07459e-08 DIIS
   @RHF iter  11:  -115.08952376913970   -1.63425e-12   2.17143e-09 DIIS
   @RHF iter  12:  -115.08952376914010   -3.97904e-13   3.86639e-10 DIIS
   @RHF iter  13:  -115.08952376913984    2.55795e-13   7.13588e-11 DIIS
  Energy and wave function converged.


  ==> Post-Iterations <==

    Orbital Energies [Eh]
    ---------------------

    Doubly Occupied:                                                      

       1A    -20.552192     2A    -11.267463     3A     -1.357679  
       4A     -0.924055     5A     -0.690484     6A     -0.619717  
       7A     -0.592779     8A     -0.501480     9A     -0.448479  

    Virtual:                                                              

      10A      0.138556    11A      0.178977    12A      0.220722  
      13A      0.224426    14A      0.291503    15A      0.386716  
      16A      0.404310    17A      0.547455    18A      0.585891  
      19A      0.624175    20A      0.625620    21A      0.640284  
      22A      0.690883    23A      0.705549    24A      0.722405  
      25A      0.832591    26A      0.865628    27A      0.872459  
      28A      0.927332    29A      1.070256    30A      1.102681  
      31A      1.178299    32A      1.190489    33A      1.264347  
      34A      1.272016    35A      1.285345    36A      1.367116  
      37A      1.447856    38A      1.493213    39A      1.524171  
      40A      1.547068    41A      1.584117    42A      1.622725  
      43A      1.777891    44A      2.093419    45A      2.181518  
      46A      2.201716    47A      2.304148    48A      2.324707  
      49A      2.490677    50A      2.510318    51A      2.576523  
      52A      2.803897    53A      2.953329    54A      3.058247  
      55A      3.110706    56A      3.120307    57A      3.143919  
      58A      3.226216    59A      3.246089    60A      3.315304  
      61A      3.316933    62A      3.346144    63A      3.386955  
      64A      3.504132    65A      3.616179    66A      3.635108  
      67A      3.702923    68A      3.712277    69A      3.748254  
      70A      3.764428    71A      3.818779    72A      3.846359  
      73A      3.906596    74A      4.011329    75A      4.029123  
      76A      4.120391    77A      4.163449    78A      4.174710  
      79A      4.250465    80A      4.259353    81A      4.292273  
      82A      4.405040    83A      4.442580    84A      4.470443  
      85A      4.564566    86A      4.585551    87A      4.719191  
      88A      4.790623    89A      5.000454    90A      5.039928  
      91A      5.060348    92A      5.208271    93A      5.278553  
      94A      5.317933    95A      5.376658    96A      5.441322  
      97A      5.551805    98A      5.553619    99A      5.570861  
     100A      5.799280   101A      5.949483   102A      6.195664  
     103A      6.219988   104A      6.254755   105A      6.445303  
     106A      6.649808   107A      7.001735   108A      7.127490  
     109A      7.188204   110A      7.237867   111A      7.360232  
     112A      7.443893   113A      7.595314   114A      7.920092  
     115A     12.172316   116A     13.787602  

    Final Occupation by Irrep:
              A 
    DOCC [     9 ]

  @RHF Final Energy:  -115.08952376913984

   => Energetics <=

    Nuclear Repulsion Energy =             40.5044489525647364
    One-Electron Energy =                -237.2792905991300643
    Two-Electron Energy =                  81.6853178774254900
    Total Energy =                       -115.0895237691398449

Computation Completed


Properties will be evaluated at   0.000000,   0.000000,   0.000000 [a0]

Properties computed using the SCF density matrix

  Nuclear Dipole Moment: [e a0]
     X:    -2.1451      Y:    -0.8049      Z:    -0.0001

  Electronic Dipole Moment: [e a0]
     X:     1.7703      Y:     0.2177      Z:     0.0000

  Dipole Moment: [e a0]
     X:    -0.3748      Y:    -0.5872      Z:    -0.0000     Total:     0.6966

  Dipole Moment: [D]
     X:    -0.9527      Y:    -1.4925      Z:    -0.0001     Total:     1.7707


*** tstop() called on n044 at Sat Sep 19 17:49:58 2020
Module time:
	user time   =       3.51 seconds =       0.06 minutes
	system time =       0.02 seconds =       0.00 minutes
	total time  =          4 seconds =       0.07 minutes
Total time:
	user time   =       3.51 seconds =       0.06 minutes
	system time =       0.02 seconds =       0.00 minutes
	total time  =          4 seconds =       0.07 minutes
 MINTS: Wrapper to libmints.
   by Justin Turney

   Calculation information:
      Number of threads:                 1
      Number of atoms:                   6
      Number of AO shells:              44
      Number of SO shells:              44
      Number of primitives:             84
      Number of atomic orbitals:       130
      Number of basis functions:       116

      Number of irreps:                  1
      Integral cutoff                 0.00e+00
      Number of functions per irrep: [ 116 ]

 OEINTS: Overlap, kinetic, potential, dipole, and quadrupole integrals
         stored in file 35.

      Computing two-electron integrals...done
      Computed 22877291 non-zero two-electron integrals.
        Stored in file 33.


*** tstart() called on n044
*** at Sat Sep 19 17:50:00 2020


	Wfn Parameters:
	--------------------
	Wavefunction         = CCSD_T
	Number of irreps     = 1
	Number of MOs        = 116
	Number of active MOs = 116
	AO-Basis             = NONE
	Semicanonical        = false
	Reference            = RHF
	Print Level          = 1

	IRREP	# MOs	# FZDC	# DOCC	# SOCC	# VIRT	# FZVR
	-----	-----	------	------	------	------	------
	 A	   116	    0	    9	    0	    107	    0
	Transforming integrals...
	IWL integrals will be deleted.
	(OO|OO)...
	Presorting SO-basis two-electron integrals.
	Sorting File: SO Ints (nn|nn) nbuckets = 1
	Transforming the one-electron integrals and constructing Fock matrices
	Starting first half-transformation.
	Sorting half-transformed integrals.
	First half integral transformation complete.
	Starting second half-transformation.
	Two-electron integral transformation complete.
	(OO|OV)...
	Starting second half-transformation.
	Two-electron integral transformation complete.
	(OO|VV)...
	Starting second half-transformation.
	Two-electron integral transformation complete.
	(OV|OO)...
	Starting first half-transformation.
	Sorting half-transformed integrals.
	First half integral transformation complete.
	Starting second half-transformation.
	Two-electron integral transformation complete.
	(OV|OV)...
	Starting second half-transformation.
	Two-electron integral transformation complete.
	(OV|VV)...
	Starting second half-transformation.
	Two-electron integral transformation complete.
	(VV|OO)...
	Starting first half-transformation.
	Sorting half-transformed integrals.
	First half integral transformation complete.
	Starting second half-transformation.
	Two-electron integral transformation complete.
	(VV|OV)...
	Starting second half-transformation.
	Two-electron integral transformation complete.
	(VV|VV)...
	Starting second half-transformation.
	Two-electron integral transformation complete.
	Frozen core energy     =      0.00000000000000

	Size of irrep 0 of <ab|cd> integrals:    131.080 (MW) /   1048.637 (MB)
	Total:                                   131.080 (MW) /   1048.637 (MB)

	Size of irrep 0 of <ia|bc> integrals:     11.025 (MW) /     88.203 (MB)
	Total:                                    11.025 (MW) /     88.203 (MB)

	Size of irrep 0 of tijab amplitudes:       0.927 (MW) /      7.419 (MB)
	Total:                                     0.927 (MW) /      7.419 (MB)

	Nuclear Rep. energy          =     40.50444895256474
	SCF energy                   =   -115.08952376913984
	One-electron energy          =   -237.27929063096477
	Two-electron energy          =     81.68531790925984
	Reference energy             =   -115.08952376914019

*** tstop() called on n044 at Sat Sep 19 17:50:13 2020
Module time:
	user time   =      10.47 seconds =       0.17 minutes
	system time =       2.74 seconds =       0.05 minutes
	total time  =         13 seconds =       0.22 minutes
Total time:
	user time   =      15.73 seconds =       0.26 minutes
	system time =       2.95 seconds =       0.05 minutes
	total time  =         19 seconds =       0.32 minutes
            **************************
            *                        *
            *        CCENERGY        *
            *                        *
            **************************

    Nuclear Rep. energy (wfn)     =   40.504448952564736
    SCF energy          (wfn)     = -115.089523769139845
    Reference energy    (file100) = -115.089523769140186

    Input parameters:
    -----------------
    Wave function   =     CCSD_T
    Reference wfn   =     RHF
    Brueckner       =     No
    Memory (Mbytes) =     14000.0
    Maxiter         =    300
    R_Convergence   =     1.0e-08
    E_Convergence   =     1.0e-10
    Restart         =     Yes
    DIIS            =     Yes
    AO Basis        =     NONE
    ABCD            =     NEW
    Cache Level     =     2
    Cache Type      =     LOW
    Print Level     =     1
    Num. of threads =     1
    # Amps to Print =     10
    Print MP2 Amps? =     No
    Analyze T2 Amps =     No
    Print Pair Ener =     No
    Local CC        =     No
    SCS-MP2         =     False
    SCSN-MP2        =     False
    SCS-CCSD        =     False

MP2 correlation energy -0.4573157136171886
                Solving CC Amplitude Equations
                ------------------------------
  Iter             Energy              RMS        T1Diag      D1Diag    New D1Diag    D2Diag
  ----     ---------------------    ---------   ----------  ----------  ----------   --------
     0        -0.457315713617189    0.000e+00    0.000000    0.000000    0.000000    0.127664
     1        -0.464895134185916    4.753e-02    0.006463    0.014665    0.014665    0.128840
     2        -0.474825472555061    1.556e-02    0.006575    0.014636    0.014636    0.134470
     3        -0.476283441133812    5.443e-03    0.007364    0.016755    0.016755    0.135914
     4        -0.476180964827108    1.194e-03    0.007416    0.016823    0.016823    0.136123
     5        -0.476220108653601    4.292e-04    0.007447    0.016925    0.016925    0.136210
     6        -0.476228597274169    1.205e-04    0.007456    0.016962    0.016962    0.136215
     7        -0.476226475360102    4.454e-05    0.007458    0.016976    0.016976    0.136212
     8        -0.476226342381796    1.656e-05    0.007459    0.016984    0.016984    0.136211
     9        -0.476226450976373    4.823e-06    0.007460    0.016986    0.016986    0.136211
    10        -0.476226210355808    1.538e-06    0.007460    0.016986    0.016986    0.136211
    11        -0.476226276467549    4.714e-07    0.007460    0.016986    0.016986    0.136211
    12        -0.476226262466232    1.144e-07    0.007460    0.016986    0.016986    0.136211
    13        -0.476226265474848    4.068e-08    0.007460    0.016986    0.016986    0.136211
    14        -0.476226266598638    1.157e-08    0.007460    0.016986    0.016986    0.136211
    15        -0.476226266644931    4.789e-09    0.007460    0.016986    0.016986    0.136211
    16        -0.476226266673568    1.500e-09    0.007460    0.016986    0.016986    0.136211

    Iterations converged.


    Largest TIA Amplitudes:
              5   6        -0.0079801392
              5  14         0.0077114838
              5   9         0.0070316674
              8  14        -0.0063204644
              6   3        -0.0059200386
              6   7         0.0057794159
              7   8         0.0057593763
              5   2         0.0057434744
              8   6         0.0052408876
              6   5        -0.0051234423

    Largest TIjAb Amplitudes:
      5   5   9   9        -0.0228602314
      8   8  14  14        -0.0213213446
      7   7  12  12        -0.0205469876
      6   6   7   7        -0.0201067264
      4   4   7   7        -0.0193810269
      6   6   8   8        -0.0167271035
      7   7   7   7        -0.0153022174
      5   5  14  14        -0.0151805828
      5   8   9   9        -0.0148972961
      8   5   9   9        -0.0148972961

    SCF energy       (wfn)                    = -115.089523769139845
    Reference energy (file100)                = -115.089523769140186

    Opposite-spin MP2 correlation energy      =   -0.353743933404340
    Same-spin MP2 correlation energy          =   -0.103571780212848
    Singles MP2 correlation energy            =   -0.000000000000000
    MP2 correlation energy                    =   -0.457315713617189
      * MP2 total energy                      = -115.546839482757377

    Opposite-spin CCSD correlation energy     =   -0.381686506279808
    Same-spin CCSD correlation energy         =   -0.094539760393759
    Singles CCSD correlation energy           =    0.000000000000000
    CCSD correlation energy                   =   -0.476226266673568
      * CCSD total energy                     = -115.565750035813750

            **************************
            *                        *
            *        CCTRIPLES       *
            *                        *
            **************************


    Wave function   =    CCSD_T
    Reference wfn   =      RHF

    Nuclear Rep. energy (wfn)                =   40.504448952564736
    SCF energy          (wfn)                = -115.089523769139845
    Reference energy    (file100)            = -115.089523769140186
    CCSD energy         (file100)            =   -0.476226266673568
    Total CCSD energy   (file100)            = -115.565750035813750

    Number of ijk index combinations:              165
    Memory available in words        :      1750000000
    ~Words needed per explicit thread:         4900172
    Number of threads for explicit ijk threading:    1

    MKL num_threads set to 1 for explicit threading.

    (T) energy                                =   -0.015015775348405
      * CCSD(T) total energy                  = -115.580765811162152


    Psi4 stopped on: Saturday, 19 September 2020 05:51PM
    Psi4 wall time for execution: 0:01:19.72

*** Psi4 exiting successfully. Buy a developer a beer!
