
 Primary working directories    : /tmp/601555.68.gen6.q
 Secondary working directories  : /tmp/601555.68.gen6.q
 Wavefunction directory         : /home/vulcan/mel64643/wfu/
 Main file repository           : /tmp/601555.68.gen6.q/

 ARCHNAME  : Linux/x86_64
 FC        : /opt/intel/compilers_and_libraries_2016.1.150/linux/bin/intel64/ifort
 FCVERSION : 16.0.1
 BLASLIB   : -mkl
 id        : ccgc

 Nodes     nprocs
 n083         1
 ga_uses_ma=false, calling ma_init with nominal heap.
 GA-space will be limited to   8.0 MW (determined by -G option)

 Using customized tuning parameters: mindgm=10; mindgv=16; mindgc=4; mindgr=1; noblas=0; mincuda=1000; minvec=7
 default implementation of scratch files=df  

 ***,Optimization of min3
 memory,1000,m
 gthresh,energy=1.0d-12,orbital=1.0d-10,oneint=1.0d-16,twoint=1.0d-16,optgrad=1.0d-6,compress=1.0d-13
 geomtyp=xyz
 
  bohr
  geometry = {
  6
  arbitrary comment
  C   -1.3750737175   -0.0242785940    0.0011363070
  O    1.3060142553    0.1206932624    0.0042807286
  H   -2.0778678258    1.9096109845   -0.0021067299
  H   -2.1083790230   -0.9787051339    1.6819252960
  H   -2.1095946672   -0.9799702453   -1.6819510182
  H    1.9411768182   -1.5774823937   -0.0032929935
 }
 
 basis=cc-pvdz
 {rhf;maxit,200}
 {ccsd(t);maxit,200}

 Variables initialized (661), CPU time= 0.00 sec
 Commands  initialized (458), CPU time= 0.01 sec, 486 directives.
 Default parameters read. Elapsed time= 0.04 sec

 Checking input...
 Passed
1


                                         ***  PROGRAM SYSTEM MOLPRO  ***
                         Copyright, University College Cardiff Consultants Limited, 2008

                                    Version 2010.1 linked May 16 2016 07:17:05


 **********************************************************************************************************************************
 LABEL *   Optimization of min3                                                          
 Linux-4.4.3/n083(x86_64) 64 bit mpp version                                             DATE: 06-Nov-21          TIME: 15:39:15  
 **********************************************************************************************************************************

 SHA1:             9e8077add272b0f3cad6f7df79ec5211205f459d
 **********************************************************************************************************************************

 THRESHOLDS:

 ZERO    =  1.00D-12  ONEINT  =  1.00D-16  TWOINT  =  1.00D-16  PREFAC  =  1.00D-14  LOCALI  =  1.00D-09  EORDER  =  1.00D-04
 ENERGY  =  1.00D-12  ETEST   =  0.00D+00  EDENS   =  0.00D+00  THRDEDEF=  1.00D-06  GRADIENT=  1.00D-02  STEP    =  1.00D-03
 ORBITAL =  1.00D-10  CIVEC   =  1.00D-05  COEFF   =  1.00D-04  PRINTCI =  5.00D-02  PUNCHCI =  9.90D+01  OPTGRAD =  1.00D-06
 OPTENERG=  1.00D-06  OPTSTEP =  3.00D-04  THRGRAD =  1.00D-10  COMPRESS=  1.00D-13  VARMIN  =  1.00D-07  VARMAX  =  1.00D-03
 THRDOUB =  0.00D+00  THRDIV  =  1.00D-05  THRRED  =  1.00D-07  THRPSP  =  1.00D+00  THRDC   =  1.00D-10  THRCS   =  1.00D-10
 THRNRM  =  1.00D-08  THREQ   =  0.00D+00  THRDE   =  1.00D+00  THRREF  =  1.00D-05  SPARFAC =  1.00D+00  THRDLP  =  1.00D-07
 THRDIA  =  1.00D-10  THRDLS  =  1.00D-07  THRGPS  =  0.00D+00  THRKEX  =  0.00D+00  THRDIS  =  2.00D-01  THRVAR  =  1.00D-10
 THRLOC  =  1.00D-06  THRGAP  =  1.00D-06  THRLOCT = -1.00D+00  THRGAPT = -1.00D+00  THRORB  =  1.00D-06  THRMLTP =  0.00D+00
 THRCPQCI=  1.00D-10  KEXTA   =  0.00D+00  THRCOARS=  0.00D+00  SYMTOL  =  1.00D-06  GRADTOL =  1.00D-06  THROVL  =  1.00D-08
 THRORTH =  1.00D-08  GRID    =  1.00D-06  GRIDMAX =  1.00D-03  DTMAX   =  0.00D+00

 SETTING GEOMTYP        =    XYZ
 ZUNIT=BOHR
 

 Variable memory set to 1000000000 words,  buffer space   230000 words

 SETTING BASIS          =    CC-PVDZ


 Recomputing integrals since basis changed


 Using spherical harmonics

 Library entry C      S cc-pVDZ              selected for orbital group  1
 Library entry C      P cc-pVDZ              selected for orbital group  1
 Library entry C      D cc-pVDZ              selected for orbital group  1
 Library entry O      S cc-pVDZ              selected for orbital group  2
 Library entry O      P cc-pVDZ              selected for orbital group  2
 Library entry O      D cc-pVDZ              selected for orbital group  2
 Library entry H      S cc-pVDZ              selected for orbital group  3
 Library entry H      P cc-pVDZ              selected for orbital group  3

1PROGRAM * SEWARD (Integral evaluation for generally contracted gaussian basis sets)     Author: Roland Lindh, 1990

 Geometry written to block  1 of record 700


 Point group  C1  



 ATOMIC COORDINATES

 NR  ATOM    CHARGE       X              Y              Z

   1  C       6.00   -1.375073718   -0.024278594    0.001136307
   2  O       8.00    1.306014255    0.120693262    0.004280729
   3  H       1.00   -2.077867826    1.909610984   -0.002106730
   4  H       1.00   -2.108379023   -0.978705134    1.681925296
   5  H       1.00   -2.109594667   -0.979970245   -1.681951018
   6  H       1.00    1.941176818   -1.577482394   -0.003292993

 Bond lengths in Bohr (Angstrom)

 1-2  2.685006414  1-3  2.057634316  1-4  2.067297346  1-5  2.070181273  2-6  1.813088360
     ( 1.420844200)     ( 1.088853184)     ( 1.093966640)     ( 1.095492748)     ( 0.959445038)

 Bond angles

  1-2-6  107.41157726   2-1-3  106.87662458   2-1-4  112.22065505   2-1-5  112.34421411

  3-1-4  108.30284971   3-1-5  108.14452290   4-1-5  108.78522084

 NUCLEAR CHARGE:                   18
 NUMBER OF PRIMITIVE AOS:          82
 NUMBER OF SYMMETRY AOS:           80
 NUMBER OF CONTRACTIONS:           48   (  48A   )
 NUMBER OF CORE ORBITALS:           2   (   2A   )
 NUMBER OF VALENCE ORBITALS:       12   (  12A   )


 NUCLEAR REPULSION ENERGY   40.30775167


 Eigenvalues of metric

         1 0.966E-02 0.176E-01 0.368E-01 0.374E-01 0.381E-01 0.474E-01 0.478E-01 0.517E-01


 Contracted 2-electron integrals neglected if value below      1.0D-16
 AO integral compression algorithm  1   Integral accuracy      1.0D-16

     6.816 MB (compressed) written to integral file (100.0%)

     Node minimum: 6.816 MB, node maximum: 6.816 MB


 NUMBER OF SORTED TWO-ELECTRON INTEGRALS:     692076.     BUFFER LENGTH:  32768
 NUMBER OF SEGMENTS:   1  SEGMENT LENGTH:     692076      RECORD LENGTH: 524288

 Memory used in sort:       1.25 MW

 SORT1 READ      832256. AND WROTE      682150. INTEGRALS IN      2 RECORDS. CPU TIME:     0.01 SEC, REAL TIME:     0.01 SEC
 SORT2 READ      682150. AND WROTE      692076. INTEGRALS IN     26 RECORDS. CPU TIME:     0.01 SEC, REAL TIME:     0.02 SEC

 FILE SIZES:   FILE 1:     8.4 MBYTE,  FILE 4:     8.4 MBYTE,   TOTAL:     16.8 MBYTE

 OPERATOR DM      FOR CENTER  0  COORDINATES:    0.000000    0.000000    0.000000


 **********************************************************************************************************************************
 DATASETS  * FILE   NREC   LENGTH (MB)   RECORD NAMES
              1      19        8.43       500      610      700      900      950      970     1000      129      960     1100   
                                          VAR    BASINP    GEOM    SYMINP    ZMAT    AOBASIS   BASIS     P2S    ABASIS      S 
                                         1400     1410     1200     1210     1080     1600     1650     1300     1700   
                                           T        V       H0       H01     AOSYM     SMH    MOLCAS    ERIS     OPER   

 PROGRAMS   *        TOTAL       INT
 CPU TIMES  *         0.18      0.14
 REAL TIME  *         0.38 SEC
 DISK USED  *        24.27 MB      
 GA USED    *         0.00 MB       (max)       0.00 MB       (current)
 **********************************************************************************************************************************

1PROGRAM * RHF-SCF (CLOSED SHELL)       Authors: W. Meyer, H.-J. Werner


 NUMBER OF ELECTRONS:       9+    9-    SPACE SYMMETRY=1    SPIN SYMMETRY: Singlet 
 CONVERGENCE THRESHOLDS:    1.00E-10 (Density)    1.00E-13 (Energy)
 MAX. NUMBER OF ITERATIONS:      200
 INTERPOLATION TYPE:            DIIS
 INTERPOLATION STEPS:              2 (START)      1 (STEP)
 LEVEL SHIFTS:                  0.00 (CLOSED)  0.00 (OPEN) 



 Orbital guess generated from atomic densities. Full valence occupancy:   14

 Molecular orbital dump at record        2100.2

 ITERATION    DDIFF          GRAD             ENERGY        2-EL.EN.            DIPOLE MOMENTS         DIIS
    1      0.000D+00      0.000D+00      -115.01423553    164.387965   -0.49497   -0.90067   -0.00568    0
    2      0.000D+00      0.110D-01      -115.04259321    162.169728   -0.31638   -0.53561   -0.00296    1
    3      0.205D-01      0.530D-02      -115.04862447    163.194295   -0.40009   -0.61077   -0.00334    2
    4      0.639D-02      0.112D-02      -115.04908802    163.038187   -0.38996   -0.59966   -0.00319    3
    5      0.204D-02      0.202D-03      -115.04910902    163.044600   -0.39278   -0.59537   -0.00313    4
    6      0.433D-03      0.354D-04      -115.04910982    163.044753   -0.39309   -0.59517   -0.00313    5
    7      0.930D-04      0.736D-05      -115.04910985    163.043564   -0.39322   -0.59500   -0.00312    6
    8      0.150D-04      0.237D-05      -115.04910985    163.043946   -0.39326   -0.59497   -0.00312    7
    9      0.504D-05      0.490D-06      -115.04910985    163.043905   -0.39327   -0.59497   -0.00312    6
   10      0.141D-05      0.871D-07      -115.04910985    163.043904   -0.39328   -0.59497   -0.00312    6
   11      0.234D-06      0.325D-07      -115.04910985    163.043909   -0.39328   -0.59497   -0.00312    6
   12      0.589D-07      0.135D-07      -115.04910985    163.043907   -0.39328   -0.59497   -0.00312    7
   13      0.252D-07      0.302D-08      -115.04910985    163.043908   -0.39328   -0.59497   -0.00312    7
   14      0.752D-08      0.647D-09      -115.04910985    163.043908   -0.39328   -0.59497   -0.00312    7
   15      0.165D-08      0.149D-09      -115.04910985    163.043908   -0.39328   -0.59497   -0.00312    7
   16      0.332D-09      0.449D-10      -115.04910985    163.043908   -0.39328   -0.59497   -0.00312    7
   17      0.866D-10      0.148D-10      -115.04910985    163.043908   -0.39328   -0.59497   -0.00312    0

 Final occupancy:   9

 !RHF STATE 1.1 Energy               -115.049109849069
 Nuclear energy                        40.30775167
 One-electron energy                 -236.87881533
 Two-electron energy                   81.52195381
 Virial quotient                       -1.00092553
 !RHF STATE 1.1 Dipole moment          -0.39327646    -0.59497283    -0.00312345
 Dipole moment /Debye                  -0.99954358    -1.51217103    -0.00793849

 Orbital energies:

         1.1          2.1          3.1          4.1          5.1          6.1          7.1          8.1          9.1         10.1
    -20.549943   -11.274705    -1.349889    -0.921304    -0.682803    -0.613709    -0.584893    -0.497096    -0.443112     0.184568

        11.1
      0.224404


 **********************************************************************************************************************************
 DATASETS  * FILE   NREC   LENGTH (MB)   RECORD NAMES
              1      19        8.43       500      610      700      900      950      970     1000      129      960     1100   
                                          VAR    BASINP    GEOM    SYMINP    ZMAT    AOBASIS   BASIS     P2S    ABASIS      S 
                                         1400     1410     1200     1210     1080     1600     1650     1300     1700   
                                           T        V       H0       H01     AOSYM     SMH    MOLCAS    ERIS     OPER   

              2       3        0.39       700     1000     2100   
                                         GEOM     BASIS     RHF  

 PROGRAMS   *        TOTAL       RHF       INT
 CPU TIMES  *         0.25      0.07      0.14
 REAL TIME  *         0.47 SEC
 DISK USED  *        24.27 MB      
 GA USED    *         0.00 MB       (max)       0.00 MB       (current)
 **********************************************************************************************************************************


1PROGRAM * CCSD (Closed-shell coupled cluster)     Authors: C. Hampel, H.-J. Werner, 1991, M. Deegan, P.J. Knowles, 1992


 Convergence thresholds:  THRVAR = 1.00D-08  THRDEN = 1.00D-12

 CCSD(T)     terms to be evaluated (factor= 1.000)


 Number of core orbitals:           2 (   2 )
 Number of closed-shell orbitals:   7 (   7 )
 Number of external orbitals:      39 (  39 )

 Molecular orbitals read from record     2100.2  Type=RHF/CANONICAL (state 1.1)

 Number of N-1 electron functions:               7
 Number of N-2 electron functions:              28
 Number of singly external CSFs:               273
 Number of doubly external CSFs:             37401
 Total number of CSFs:                       37675

 Length of J-op  integral file:               0.00 MB
 Length of K-op  integral file:               0.19 MB
 Length of 3-ext integral record:             0.00 MB

 Memory could be reduced to 0.96 Mwords without degradation in triples

 Integral transformation finished. Total CPU:   0.01 sec, npass=  1  Memory used:   0.66 MW

 Reference energy:                   -115.04910985

 MP2 singlet pair energy:              -0.21864879
 MP2 triplet pair energy:              -0.11983709
 MP2 correlation energy:               -0.33848588
 MP2 total energy:                   -115.38759573

 SCS-MP2 correlation energy:           -0.33694385   (PS=  1.200000  PT=  0.333333)
 SCS-MP2 total energy:               -115.38605370

 ITER.      SQ.NORM     CORR.ENERGY   TOTAL ENERGY   ENERGY CHANGE        DEN1      VAR(S)    VAR(P)  DIIS     TIME
   1      1.10733673    -0.36128521  -115.41039506    -0.02279933    -0.01411779  0.91D-03  0.17D-02  1  1     0.04
   2      1.11586424    -0.36323059  -115.41234044    -0.00194538    -0.00925134  0.20D-04  0.16D-03  2  2     0.08
   3      1.11774693    -0.36335801  -115.41246786    -0.00012742    -0.00120477  0.95D-05  0.86D-05  3  3     0.11
   4      1.11826254    -0.36335666  -115.41246651     0.00000135    -0.00025510  0.34D-06  0.68D-06  4  4     0.14
   5      1.11836083    -0.36335707  -115.41246691    -0.00000041    -0.00003610  0.10D-06  0.49D-07  5  5     0.17
   6      1.11837994    -0.36335571  -115.41246556     0.00000136    -0.00000437  0.16D-07  0.41D-08  6  6     0.20
   7      1.11838471    -0.36335529  -115.41246514     0.00000042    -0.00000035  0.20D-08  0.72D-09  6  1     0.24
   8      1.11838598    -0.36335539  -115.41246524    -0.00000010     0.00000075  0.26D-09  0.72D-10  6  3     0.27
   9      1.11838704    -0.36335527  -115.41246511     0.00000012    -0.00000038  0.13D-10  0.10D-10  6  2     0.30
  10      1.11838697    -0.36335527  -115.41246512    -0.00000000     0.00000007  0.11D-11  0.88D-12  6  5     0.33
  11      1.11838700    -0.36335527  -115.41246511     0.00000000    -0.00000000  0.19D-12  0.51D-13  6  4     0.37
  12      1.11838699    -0.36335527  -115.41246512    -0.00000000     0.00000001  0.19D-13  0.10D-13  6  1     0.40
  13      1.11838699    -0.36335527  -115.41246512    -0.00000000    -0.00000000  0.24D-14  0.94D-15  6  6     0.43
  14      1.11838699    -0.36335527  -115.41246512     0.00000000    -0.00000000  0.22D-15  0.12D-15  6  3     0.47
  15      1.11838699    -0.36335527  -115.41246512    -0.00000000    -0.00000000  0.25D-16  0.17D-16  6  2     0.50
  16      1.11838699    -0.36335527  -115.41246512    -0.00000000    -0.00000000  0.57D-17  0.16D-17  6  5     0.53
  17      1.11838699    -0.36335527  -115.41246512    -0.00000000    -0.00000000  0.58D-18  0.26D-18  6  4     0.56
  18      1.11838699    -0.36335527  -115.41246512     0.00000000    -0.00000000  0.93D-19  0.44D-19  6  1     0.60
  19      1.11838699    -0.36335527  -115.41246512    -0.00000000    -0.00000000  0.12D-19  0.46D-20  6  6     0.63
  20      1.11838699    -0.36335527  -115.41246512     0.00000000     0.00000000  0.20D-20  0.65D-21  6  3     0.66

 Norm of t1 vector:      0.04167088      S-energy:    -0.00000000      T1 diagnostic:  0.00787506
                                                                       D1 diagnostic:  0.01751993


 Total CPU time for triples:      0.17 sec


 RESULTS
 =======

  Reference energy                   -115.049109849069
  CCSD singlet pair energy             -0.254604458158
  CCSD triplet pair energy             -0.108750809108
  CCSD correlation energy              -0.363355267267

  Triples (T) contribution             -0.007738649189
  Total correlation energy             -0.371093916455

  CCSD total energy                  -115.412465116336
  CCSD[T] energy                     -115.420493847333
  CCSD-T energy                      -115.420053751157
 !CCSD(T) total energy               -115.420203765524

 Timing summary (sec):

 STEP                 CPU(USER)    SYS     CPU(TOT)    WALL
 Transformation          0.01      0.01      0.02      0.02
 CCSD iterations         0.65      0.03      0.68      0.71
 Triples                 0.17      0.00      0.17      0.17

 Program statistics:

 Available memory in ccsd:               999999704
 Min. memory needed in ccsd:                136801
 Max. memory used in ccsd:                  163198
 Max. memory used in cckext:                182024 (20 integral passes)



 **********************************************************************************************************************************
 DATASETS  * FILE   NREC   LENGTH (MB)   RECORD NAMES
              1      20       10.96       500      610      700      900      950      970     1000      129      960     1100   
                                          VAR    BASINP    GEOM    SYMINP    ZMAT    AOBASIS   BASIS     P2S    ABASIS      S 
                                         1400     1410     1200     1210     1080     1600     1650     1300     1700     1380   
                                           T        V       H0       H01     AOSYM     SMH    MOLCAS    ERIS     OPER     JKOP   

              2       3        0.39       700     1000     2100   
                                         GEOM     BASIS     RHF  

 PROGRAMS   *        TOTAL   CCSD(T)       RHF       INT
 CPU TIMES  *         1.09      0.84      0.07      0.14
 REAL TIME  *         1.39 SEC
 DISK USED  *        25.69 MB      
 GA USED    *         0.00 MB       (max)       0.00 MB       (current)
 **********************************************************************************************************************************

        CCSD(T)         RHF-SCF 
   -115.42020377   -115.04910985
 **********************************************************************************************************************************
 Variable memory released
