
 Primary working directories    : /tmp/333988.37.gen4.q
 Secondary working directories  : /tmp/333988.37.gen4.q
 Wavefunction directory         : /home/vulcan/mel64643/wfu/
 Main file repository           : /tmp/333988.37.gen4.q/

 ARCHNAME  : Linux/x86_64
 FC        : /opt/intel/compilers_and_libraries_2016.1.150/linux/bin/intel64/ifort
 FCVERSION : 16.0.1
 BLASLIB   : -mkl
 id        : ccgc

 Nodes     nprocs
 n027         3
 Number of processes for MPI-2 version of Molpro:   nprocs(total)=    4   nprocs(compute)=    3   nprocs(helper)=    1
 ga_uses_ma=false, calling ma_init with nominal heap.
 GA-space will be limited to   8.0 MW (determined by -G option)

 Using customized tuning parameters: mindgm=10; mindgv=16; mindgc=4; mindgr=1; noblas=0; mincuda=1000; minvec=7
 default implementation of scratch files=sf  

 ***,Optimization of min3
 memory,1000,m
 gthresh,energy=1.0d-10,orbital=1.0d-10,oneint=1.0d-16,twoint=1.0d-16,optgrad=1.0d-6,compress=1.0d-13
 geomtyp=xyz
 
  bohr
  geometry = {
  12
  arbitrary comment
  C         -3.1016978546          1.5853611949          0.0206826369
  C         -0.8646492676         -0.0676379940         -0.6563916169
  C         -1.1182276162         -2.7852639560          0.2469795002
  O          1.3115373229          1.1047246307          0.5890324069
  O          3.4493311695          0.1201211957         -0.2517824271
  H         -4.8029255102          0.8483836805         -0.8815616545
  H         -2.8049324799          3.5215585496         -0.6193893850
  H         -3.3888243090          1.5998278872          2.0637364905
  H         -0.4591816310         -0.0152432735         -2.6779333641
  H         -2.7048014001         -3.6773777144         -0.7240778008
  H         -1.4717600613         -2.8070150056          2.2802224193
  H          0.6151478823         -3.8169356107         -0.1648633122
 }
 
 basis=cc-pvtz
 {rhf;maxit,200}
 {uccsd(t);maxit,200}

 Variables initialized (661), CPU time= 0.00 sec
 Commands  initialized (458), CPU time= 0.01 sec, 486 directives.
 Default parameters read. Elapsed time= 0.05 sec

 Checking input...
 Passed
1


                                         ***  PROGRAM SYSTEM MOLPRO  ***
                         Copyright, University College Cardiff Consultants Limited, 2008

                                    Version 2010.1 linked May 16 2016 07:17:05


 **********************************************************************************************************************************
 LABEL *   Optimization of min3                                                          
 Linux-4.4.3/n027(x86_64) 64 bit mpp version                                             DATE: 15-Jul-20          TIME: 14:17:38  
 **********************************************************************************************************************************

 SHA1:             9e8077add272b0f3cad6f7df79ec5211205f459d
 **********************************************************************************************************************************

 THRESHOLDS:

 ZERO    =  1.00D-12  ONEINT  =  1.00D-16  TWOINT  =  1.00D-16  PREFAC  =  1.00D-14  LOCALI  =  1.00D-09  EORDER  =  1.00D-04
 ENERGY  =  1.00D-10  ETEST   =  0.00D+00  EDENS   =  0.00D+00  THRDEDEF=  1.00D-06  GRADIENT=  1.00D-02  STEP    =  1.00D-03
 ORBITAL =  1.00D-10  CIVEC   =  1.00D-05  COEFF   =  1.00D-04  PRINTCI =  5.00D-02  PUNCHCI =  9.90D+01  OPTGRAD =  1.00D-06
 OPTENERG=  1.00D-06  OPTSTEP =  3.00D-04  THRGRAD =  1.00D-10  COMPRESS=  1.00D-13  VARMIN  =  1.00D-07  VARMAX  =  1.00D-03
 THRDOUB =  0.00D+00  THRDIV  =  1.00D-05  THRRED  =  1.00D-07  THRPSP  =  1.00D+00  THRDC   =  1.00D-10  THRCS   =  1.00D-10
 THRNRM  =  1.00D-08  THREQ   =  0.00D+00  THRDE   =  1.00D+00  THRREF  =  1.00D-05  SPARFAC =  1.00D+00  THRDLP  =  1.00D-07
 THRDIA  =  1.00D-10  THRDLS  =  1.00D-07  THRGPS  =  0.00D+00  THRKEX  =  0.00D+00  THRDIS  =  2.00D-01  THRVAR  =  1.00D-10
 THRLOC  =  1.00D-06  THRGAP  =  1.00D-06  THRLOCT = -1.00D+00  THRGAPT = -1.00D+00  THRORB  =  1.00D-06  THRMLTP =  0.00D+00
 THRCPQCI=  1.00D-10  KEXTA   =  0.00D+00  THRCOARS=  0.00D+00  SYMTOL  =  1.00D-06  GRADTOL =  1.00D-06  THROVL  =  1.00D-08
 THRORTH =  1.00D-08  GRID    =  1.00D-06  GRIDMAX =  1.00D-03  DTMAX   =  0.00D+00

 SETTING GEOMTYP        =    XYZ
 ZUNIT=BOHR
 

 Variable memory set to 1000000000 words,  buffer space   230000 words

 SETTING BASIS          =    CC-PVTZ


 Recomputing integrals since basis changed


 Using spherical harmonics

 Library entry C      S cc-pVTZ              selected for orbital group  1
 Library entry C      P cc-pVTZ              selected for orbital group  1
 Library entry C      D cc-pVTZ              selected for orbital group  1
 Library entry C      F cc-pVTZ              selected for orbital group  1
 Library entry O      S cc-pVTZ              selected for orbital group  2
 Library entry O      P cc-pVTZ              selected for orbital group  2
 Library entry O      D cc-pVTZ              selected for orbital group  2
 Library entry O      F cc-pVTZ              selected for orbital group  2
 Library entry H      S cc-pVTZ              selected for orbital group  3
 Library entry H      P cc-pVTZ              selected for orbital group  3
 Library entry H      D cc-pVTZ              selected for orbital group  3

1PROGRAM * SEWARD (Integral evaluation for generally contracted gaussian basis sets)     Author: Roland Lindh, 1990

 Geometry written to block  1 of record 700


 Point group  C1  



 ATOMIC COORDINATES

 NR  ATOM    CHARGE       X              Y              Z

   1  C       6.00   -3.101697855    1.585361195    0.020682637
   2  C       6.00   -0.864649268   -0.067637994   -0.656391617
   3  C       6.00   -1.118227616   -2.785263956    0.246979500
   4  O       8.00    1.311537323    1.104724631    0.589032407
   5  O       8.00    3.449331170    0.120121196   -0.251782427
   6  H       1.00   -4.802925510    0.848383681   -0.881561655
   7  H       1.00   -2.804932480    3.521558550   -0.619389385
   8  H       1.00   -3.388824309    1.599827887    2.063736491
   9  H       1.00   -0.459181631   -0.015243273   -2.677933364
  10  H       1.00   -2.704801400   -3.677377714   -0.724077801
  11  H       1.00   -1.471760061   -2.807015006    2.280222419
  12  H       1.00    0.615147882   -3.816935611   -0.164863312

 Bond lengths in Bohr (Angstrom)

 1-2  2.862729859  1-6  2.061881702  1-7  2.060733383  1-8  2.063181993  2-3  2.875042995
     ( 1.514891397)     ( 1.091100805)     ( 1.090493140)     ( 1.091788889)     ( 1.521407228)

  2- 4  2.767905923   2- 9  2.062469454   3-10  2.063016144   3-11  2.063864110   3-12  2.058774277
       ( 1.464712731)       ( 1.091411829)       ( 1.091701125)       ( 1.092149850)       ( 1.089456426)

 4-5  2.499315114
     ( 1.322580597)

 Bond angles

  1-2-3  113.73875934   1-2-4  105.27157177   1-2-9  111.76354736   2-1-6  109.56475852

  2- 1- 7  110.88716246   2- 1- 8  110.30425153   2- 3-10  109.18909148   2- 3-11  109.54941433

  2- 3-12  109.66726325   2- 4- 5  110.74837048   3- 2- 4  109.16741720   3- 2- 9  110.44625234

  4-2-9  106.00355973   6-1-7  108.58639353   6-1-8  108.72315399   7-1-8  108.72504776

 10- 3-11  109.11227886  10- 3-12  109.67273762  11- 3-12  109.63431561

 NUCLEAR CHARGE:                   41
 NUMBER OF PRIMITIVE AOS:         354
 NUMBER OF SYMMETRY AOS:          322
 NUMBER OF CONTRACTIONS:          248   ( 248A   )
 NUMBER OF CORE ORBITALS:           5   (   5A   )
 NUMBER OF VALENCE ORBITALS:       27   (  27A   )


 NUCLEAR REPULSION ENERGY  186.61854286


 Eigenvalues of metric

         1 0.807E-03 0.956E-03 0.110E-02 0.124E-02 0.137E-02 0.151E-02 0.160E-02 0.165E-02


 Contracted 2-electron integrals neglected if value below      1.0D-16
 AO integral compression algorithm  1   Integral accuracy      1.0D-16

     3374.055 MB (compressed) written to integral file ( 82.1%)

     Node minimum: 1070.072 MB, node maximum: 1196.950 MB


 NUMBER OF SORTED TWO-ELECTRON INTEGRALS:  158903334.     BUFFER LENGTH:  32768
 NUMBER OF SEGMENTS:  10  SEGMENT LENGTH:   15997437      RECORD LENGTH: 524288

 Memory used in sort:      16.55 MW

 SORT1 READ   513527147. AND WROTE   152660623. INTEGRALS IN    442 RECORDS. CPU TIME:    18.20 SEC, REAL TIME:    22.79 SEC
 SORT2 READ   459477004. AND WROTE   476679126. INTEGRALS IN  13698 RECORDS. CPU TIME:     1.88 SEC, REAL TIME:    14.05 SEC

 Node minimum:   158882750.  Node maximum:   158903334. integrals

 OPERATOR DM      FOR CENTER  0  COORDINATES:    0.000000    0.000000    0.000000


 **********************************************************************************************************************************
 DATASETS  * FILE   NREC   LENGTH (MB)   RECORD NAMES
              1      18        5.04       500      610      700      900      950      970     1000      129      960     1100   
                                          VAR    BASINP    GEOM    SYMINP    ZMAT    AOBASIS   BASIS     P2S    ABASIS      S 
                                         1400     1410     1200     1210     1080     1600     1650     1700   
                                           T        V       H0       H01     AOSYM     SMH    MOLCAS    OPER   

 PROGRAMS   *        TOTAL       INT
 CPU TIMES  *        27.58     27.52
 REAL TIME  *        46.14 SEC
 DISK USED  *         8.85 GB      
 GA USED    *         0.01 MB       (max)       0.00 MB       (current)
 **********************************************************************************************************************************

1PROGRAM * RHF-SCF (OPEN SHELL)       Authors: W. Meyer, H.-J. Werner


 NUMBER OF ELECTRONS:      21+   20-    SPACE SYMMETRY=1    SPIN SYMMETRY: Doublet 
 CONVERGENCE THRESHOLDS:    1.00E-10 (Density)    1.00E-11 (Energy)
 MAX. NUMBER OF ITERATIONS:      200
 INTERPOLATION TYPE:            DIIS
 INTERPOLATION STEPS:              2 (START)      1 (STEP)
 LEVEL SHIFTS:                 -0.30 (CLOSED)  0.00 (OPEN) 



 Orbital guess generated from atomic densities. Full valence occupancy:   32

 Molecular orbital dump at record        2100.2

 ITERATION    DDIFF          GRAD             ENERGY        2-EL.EN.            DIPOLE MOMENTS         DIIS
    1      0.000D+00      0.000D+00      -267.26082239    559.771808   -1.77678   -0.05768   -0.09981    0
    2      0.000D+00      0.326D-02      -267.33447325    562.631517   -1.01411   -0.42323   -0.36025    1
    3      0.471D-02      0.230D-02      -267.36101875    561.583988   -1.18833   -0.23579   -0.21793    2
    4      0.211D-02      0.546D-03      -267.36925323    561.770601   -0.97687   -0.30967   -0.29881    3
    5      0.926D-03      0.484D-03      -267.37348062    561.813933   -0.92133   -0.31255   -0.30299    4
    6      0.582D-03      0.272D-03      -267.37541547    561.781112   -0.87969   -0.30614   -0.30090    5
    7      0.486D-03      0.134D-03      -267.37575466    561.767196   -0.88966   -0.29474   -0.29283    6
    8      0.259D-03      0.360D-04      -267.37577713    561.764256   -0.88918   -0.29131   -0.29129    7
    9      0.866D-04      0.194D-04      -267.37578871    561.764496   -0.89172   -0.29188   -0.29136    8
   10      0.458D-04      0.829D-05      -267.37579056    561.764414   -0.89289   -0.29125   -0.29107    9
   11      0.201D-04      0.327D-05      -267.37579082    561.764352   -0.89353   -0.29108   -0.29090    9
   12      0.794D-05      0.150D-05      -267.37579089    561.764578   -0.89368   -0.29118   -0.29094    9
   13      0.374D-05      0.535D-06      -267.37579089    561.764635   -0.89369   -0.29124   -0.29097    9
   14      0.151D-05      0.303D-06      -267.37579090    561.764635   -0.89368   -0.29125   -0.29098    9
   15      0.845D-06      0.152D-06      -267.37579090    561.764643   -0.89368   -0.29126   -0.29098    9
   16      0.447D-06      0.785D-07      -267.37579090    561.764646   -0.89367   -0.29126   -0.29098    9
   17      0.210D-06      0.420D-07      -267.37579090    561.764642   -0.89367   -0.29126   -0.29098    9
   18      0.172D-06      0.301D-07      -267.37579090    561.764639   -0.89367   -0.29126   -0.29098    9
   19      0.124D-06      0.225D-07      -267.37579090    561.764643   -0.89367   -0.29126   -0.29098    9
   20      0.171D-06      0.186D-07      -267.37579090    561.764642   -0.89367   -0.29126   -0.29098    9
   21      0.229D-06      0.134D-07      -267.37579090    561.764644   -0.89367   -0.29126   -0.29098    9
   22      0.253D-06      0.891D-08      -267.37579090    561.764646   -0.89366   -0.29126   -0.29098    9
   23      0.170D-06      0.423D-08      -267.37579090    561.764646   -0.89366   -0.29126   -0.29098    9
   24      0.674D-07      0.237D-08      -267.37579090    561.764646   -0.89366   -0.29126   -0.29098    9
   25      0.204D-07      0.978D-09      -267.37579090    561.764646   -0.89366   -0.29126   -0.29098    9
   26      0.995D-08      0.417D-09      -267.37579090    561.764646   -0.89366   -0.29126   -0.29098    9
   27      0.126D-08      0.194D-09      -267.37579090    561.764646   -0.89366   -0.29126   -0.29098    9
   28      0.516D-09      0.967D-10      -267.37579090    561.764646   -0.89366   -0.29126   -0.29098    9
   29      0.509D-09      0.531D-10      -267.37579090    561.764646   -0.89366   -0.29126   -0.29098    9
   30      0.284D-09      0.256D-10      -267.37579090    561.764646   -0.89366   -0.29126   -0.29098    9
   31      0.769D-10      0.249D-10      -267.37579090    561.764646   -0.89366   -0.29126   -0.29098    0

 Final alpha occupancy:  21
 Final beta  occupancy:  20

 !RHF STATE 1.1 Energy               -267.375790897225
 Nuclear energy                       186.61854286
 One-electron energy                 -734.87665688
 Two-electron energy                  280.88232313
 Virial quotient                       -1.00117886
 !RHF STATE 1.1 Dipole moment          -0.89366498    -0.29126066    -0.29097721
 Dipole moment /Debye                  -2.27132105    -0.74026227    -0.73954186

 Orbital energies:

         1.1          2.1          3.1          4.1          5.1          6.1          7.1          8.1          9.1         10.1
    -20.648840   -20.640471   -11.297281   -11.229101   -11.225643    -1.523704    -1.170953    -1.034368    -0.952692    -0.818996

        11.1         12.1         13.1         14.1         15.1         16.1         17.1         18.1         19.1         20.1
     -0.695499    -0.668112    -0.651517    -0.595834    -0.563280    -0.558077    -0.545102    -0.501913    -0.487920    -0.465232

        21.1         22.1         23.1
     -0.562941     0.137679     0.175195


 **********************************************************************************************************************************
 DATASETS  * FILE   NREC   LENGTH (MB)   RECORD NAMES
              1      18        5.04       500      610      700      900      950      970     1000      129      960     1100   
                                          VAR    BASINP    GEOM    SYMINP    ZMAT    AOBASIS   BASIS     P2S    ABASIS      S 
                                         1400     1410     1200     1210     1080     1600     1650     1700   
                                           T        V       H0       H01     AOSYM     SMH    MOLCAS    OPER   

              2       3        2.21       700     1000     2100   
                                         GEOM     BASIS     RHF  

 PROGRAMS   *        TOTAL       RHF       INT
 CPU TIMES  *        77.42     49.84     27.52
 REAL TIME  *       100.51 SEC
 DISK USED  *         8.89 GB      
 SF USED    *         0.25 MB      
 GA USED    *         0.01 MB       (max)       0.00 MB       (current)
 **********************************************************************************************************************************


1PROGRAM * CCSD (Unrestricted open-shell coupled cluster)     Authors: C. Hampel, H.-J. Werner, 1991, M. Deegan, P.J. Knowles, 1992


 Convergence thresholds:  THRVAR = 1.00D-08  THRDEN = 1.00D-10

 CCSD(T)     terms to be evaluated (factor= 1.000)


 Number of core orbitals:           5 (   5 )
 Number of closed-shell orbitals:  15 (  15 )
 Number of active  orbitals:        1 (   1 )
 Number of external orbitals:     227 ( 227 )

 Memory could be reduced to 332.02 Mwords without degradation in triples

 Number of N-1 electron functions:              31
 Number of N-2 electron functions:             465
 Number of singly external CSFs:              7068
 Number of doubly external CSFs:          18353430
 Total number of CSFs:                    18360498

 Molecular orbitals read from record     2100.2  Type=RHF/CANONICAL (state 1.1)

 Integral transformation finished. Total CPU:  33.84 sec, npass=  1  Memory used: 145.25 MW

 Starting RMP2 calculation

 ITER.      SQ.NORM     CORR.ENERGY   TOTAL ENERGY   ENERGY CHANGE        DEN1      VAR(S)    VAR(P)  DIIS     TIME
   1      1.26543130    -0.96766581  -268.34345670    -0.96766581    -0.00323806  0.27D-04  0.11D-02  1  1    38.51
   2      1.26821828    -0.97115724  -268.34694814    -0.00349143    -0.00000667  0.10D-05  0.23D-05  2  2    42.03
   3      1.26829832    -0.97121020  -268.34700110    -0.00005296    -0.00000008  0.54D-07  0.11D-07  3  3    45.90
   4      1.26830004    -0.97121001  -268.34700091     0.00000019    -0.00000000  0.16D-08  0.12D-09  4  4    52.06
   5      1.26830030    -0.97121010  -268.34700100    -0.00000009    -0.00000000  0.19D-10  0.46D-11  5  5    56.46
   6      1.26830036    -0.97121013  -268.34700103    -0.00000003    -0.00000000  0.52D-13  0.56D-13  6  6    62.89
   7      1.26830036    -0.97121013  -268.34700103     0.00000000    -0.00000000  0.16D-14  0.86D-15  6  1    68.15
   8      1.26830036    -0.97121013  -268.34700103     0.00000000    -0.00000000  0.16D-16  0.80D-17  6  2    72.50
   9      1.26830036    -0.97121013  -268.34700103    -0.00000000    -0.00000000  0.33D-18  0.10D-18  6  3    76.94

 Norm of t1 vector:      0.04590742      S-energy:    -0.00446890      T1 diagnostic:  0.00074506
 Norm of t2 vector:      0.51593882      P-energy:    -0.96674123
                                         Alpha-Beta:  -0.73713076
                                         Alpha-Alpha: -0.11899225
                                         Beta-Beta:   -0.11061821

 Spin contamination <S**2-Sz**2-Sz>     0.00145523
  Reference energy                   -267.375790897228
  RHF-RMP2 correlation energy          -0.971210130899
 !RHF-RMP2 energy                    -268.347001028126

 Starting UCCSD calculation

 ITER.      SQ.NORM     CORR.ENERGY   TOTAL ENERGY   ENERGY CHANGE        DEN1      VAR(S)    VAR(P)  DIIS     TIME
   1      1.27990181    -0.97931057  -268.35510147    -0.97931057    -0.02934133  0.65D-02  0.54D-02  1  1   186.00
   2      1.30631586    -1.00594094  -268.38173184    -0.02663037    -0.00363755  0.62D-03  0.97D-03  2  2   294.26
   3      1.32297888    -1.01276840  -268.38855930    -0.00682746    -0.00091299  0.75D-03  0.76D-04  3  3   433.83
   4      1.33422354    -1.01542782  -268.39121871    -0.00265941    -0.00038594  0.31D-03  0.33D-04  4  4   559.72
   5      1.34931981    -1.01742715  -268.39321805    -0.00199934    -0.00011842  0.10D-03  0.90D-05  5  5   689.64
   6      1.36086753    -1.01845080  -268.39424169    -0.00102364    -0.00001833  0.94D-05  0.32D-05  6  6   839.11
   7      1.36460022    -1.01869420  -268.39448510    -0.00024341    -0.00000320  0.16D-05  0.61D-06  6  1   994.77
   8      1.36521106    -1.01873683  -268.39452773    -0.00004263    -0.00000068  0.27D-06  0.15D-06  6  2  1159.57
   9      1.36553623    -1.01875561  -268.39454651    -0.00001878    -0.00000015  0.68D-07  0.33D-07  6  4  1304.07
  10      1.36552301    -1.01875435  -268.39454525     0.00000126    -0.00000002  0.11D-07  0.44D-08  6  3  1445.47
  11      1.36558638    -1.01875949  -268.39455039    -0.00000514    -0.00000001  0.29D-08  0.98D-09  6  5  1589.18
  12      1.36556611    -1.01875541  -268.39454631     0.00000408    -0.00000000  0.12D-08  0.19D-09  6  2  1750.82
  13      1.36556145    -1.01875454  -268.39454544     0.00000087    -0.00000000  0.88D-09  0.64D-10  6  6  1887.38
  14      1.36555453    -1.01875359  -268.39454449     0.00000095    -0.00000000  0.70D-09  0.36D-10  6  1  2024.87
  15      1.36555183    -1.01875317  -268.39454407     0.00000042    -0.00000000  0.56D-09  0.27D-10  6  4  2172.76
  16      1.36555597    -1.01875368  -268.39454458    -0.00000051    -0.00000000  0.34D-09  0.24D-10  6  3  2296.57
  17      1.36556119    -1.01875425  -268.39454514    -0.00000056    -0.00000000  0.12D-09  0.20D-10  6  5  2450.19
  18      1.36556293    -1.01875425  -268.39454515    -0.00000001    -0.00000000  0.33D-10  0.60D-11  6  3  2603.68
  19      1.36556329    -1.01875434  -268.39454524    -0.00000008    -0.00000000  0.91D-11  0.22D-11  6  2  2764.75
  20      1.36556114    -1.01875406  -268.39454496     0.00000028    -0.00000000  0.24D-11  0.66D-12  6  6  2922.87
  21      1.36555989    -1.01875398  -268.39454487     0.00000008    -0.00000000  0.76D-12  0.17D-12  6  1  3081.08
  22      1.36555911    -1.01875390  -268.39454480     0.00000008    -0.00000000  0.15D-12  0.72D-13  6  4  3240.29
  23      1.36555866    -1.01875387  -268.39454477     0.00000003    -0.00000000  0.21D-13  0.80D-14  6  2  3390.52
  24      1.36555856    -1.01875387  -268.39454476     0.00000000    -0.00000000  0.74D-14  0.22D-14  6  5  3543.51
  25      1.36555850    -1.01875386  -268.39454476     0.00000001    -0.00000000  0.23D-14  0.60D-15  6  3  3680.89
  26      1.36555847    -1.01875386  -268.39454476     0.00000000    -0.00000000  0.17D-15  0.75D-16  6  4  3809.24
  27      1.36555847    -1.01875386  -268.39454475     0.00000000    -0.00000000  0.60D-16  0.19D-16  6  6  3939.93
  28      1.36555846    -1.01875386  -268.39454475     0.00000000    -0.00000000  0.17D-16  0.51D-17  6  1  4094.65
  29      1.36555846    -1.01875386  -268.39454475     0.00000000    -0.00000000  0.74D-17  0.13D-17  6  2  4221.70
  30      1.36555846    -1.01875386  -268.39454475    -0.00000000    -0.00000000  0.37D-17  0.56D-18  6  3  4351.55

 Norm of t1 vector:      0.23141678      S-energy:    -0.00501638      T1 diagnostic:  0.02851718
                                                                       D1 diagnostic:  0.14616858
 Norm of t2 vector:      0.55857384      P-energy:    -1.01373748
                                         Alpha-Beta:  -0.80143024
                                         Alpha-Alpha: -0.10868138
                                         Beta-Beta:   -0.10362586

 Singles amplitudes (print threshold =  0.500E-01):

         I         SYM. A    A   T(IA) [Beta-Beta]

         8         1         1     -0.09743858
         9         1         1      0.09854622
        11         1         1     -0.05237449
        12         1         1     -0.07587973
        14         1         1     -0.11198417

 Spin contamination <S**2-Sz**2-Sz>     0.00176454

 Memory could be reduced to 360.52 Mwords without degradation in triples
 

 RESULTS
 =======

  Reference energy                   -267.375790897228
  UCCSD singles energy                 -0.005016382208
  UCCSD pair energy                    -1.013737475106
  UCCSD correlation energy             -1.018753857314
  Triples (T) contribution             -0.040852954681
  Total correlation energy             -1.059606811996
 
  RHF-UCCSD energy                   -268.394544754542
  RHF-UCCSD[T] energy                -268.438721498442
  RHF-UCCSD-T energy                 -268.434900616118
 !RHF-UCCSD(T) energy                -268.435397709223

 Program statistics:

 Available memory in ccsd:               999997692
 Min. memory needed in ccsd:              51505734
 Max. memory used in ccsd:                74803578
 Max. memory used in cckext:              59475747 (30 integral passes)
 Max. memory used in cckint:             145249478 ( 1 integral passes)



 **********************************************************************************************************************************
 DATASETS  * FILE   NREC   LENGTH (MB)   RECORD NAMES
              1      18        5.04       500      610      700      900      950      970     1000      129      960     1100   
                                          VAR    BASINP    GEOM    SYMINP    ZMAT    AOBASIS   BASIS     P2S    ABASIS      S 
                                         1400     1410     1200     1210     1080     1600     1650     1700   
                                           T        V       H0       H01     AOSYM     SMH    MOLCAS    OPER   

              2       3        2.21       700     1000     2100   
                                         GEOM     BASIS     RHF  

 PROGRAMS   *        TOTAL  UCCSD(T)       RHF       INT
 CPU TIMES  *      6707.34   6629.92     49.84     27.52
 REAL TIME  *      6834.66 SEC
 DISK USED  *        15.87 GB      
 SF USED    *         6.57 GB      
 GA USED    *         0.01 MB       (max)       0.00 MB       (current)
 **********************************************************************************************************************************

        UCCSD(T)        RHF-SCF 
   -268.43539771   -267.37579090
 **********************************************************************************************************************************
 Variable memory released
