
    -----------------------------------------------------------------------
          Psi4: An Open-Source Ab Initio Electronic Structure Package
                               Psi4 1.4a2.dev629 

                         Git: Rev {master} 2938fc2 dirty


    D. G. A. Smith, L. A. Burns, A. C. Simmonett, R. M. Parrish,
    M. C. Schieber, R. Galvelis, P. Kraus, H. Kruse, R. Di Remigio,
    A. Alenaizan, A. M. James, S. Lehtola, J. P. Misiewicz, M. Scheurer,
    R. A. Shaw, J. B. Schriber, Y. Xie, Z. L. Glick, D. A. Sirianni,
    J. S. O'Brien, J. M. Waldrop, A. Kumar, E. G. Hohenstein,
    B. P. Pritchard, B. R. Brooks, H. F. Schaefer III, A. Yu. Sokolov,
    K. Patkowski, A. E. DePrince III, U. Bozkaya, R. A. King,
    F. A. Evangelista, J. M. Turney, T. D. Crawford, C. D. Sherrill,
    J. Chem. Phys. 152(18) 184108 (2020). https://doi.org/10.1063/5.0006002

                            Additional Code Authors
    E. T. Seidl, C. L. Janssen, E. F. Valeev, M. L. Leininger,
    J. F. Gonthier, R. M. Richard, H. R. McAlexander, M. Saitow, X. Wang,
    P. Verma, and M. H. Lechner

             Previous Authors, Complete List of Code Contributors,
                       and Citations for Specific Modules
    https://github.com/psi4/psi4/blob/master/codemeta.json
    https://github.com/psi4/psi4/graphs/contributors
    http://psicode.org/psi4manual/master/introduction.html#citing-psifour

    -----------------------------------------------------------------------


    Psi4 started on: Monday, 06 September 2021 06:16PM

    Process ID: 32319
    Host:       n012
    PSIDATADIR: /opt/psi/4/master/share/psi4
    Memory:     500.0 MiB
    Threads:    1
    
  ==> Input File <==

--------------------------------------------------------------------------
# o-Benzyne preliminary computations

memory 14 gb

molecule {
  0 1
  units bohr
 H   -0.0000000000   -1.4246254000    0.9959240800
 O    0.0000000000    0.0000000000   -0.1255045400
 H   -0.0000000000    1.4246254000    0.9959240800
}

set {
  basis cc-pvdz
  reference rhf
  e_convergence 10 
  d_convergence 10
  r_convergence 8
  maxiter 300
  freeze_core True
}

e, wfn = energy('ccsd(t)', return_wfn = True)
psi4.print_out('Giraffe The Energy is %.12f \n'%(e))
--------------------------------------------------------------------------

  Memory set to  13.039 GiB by Python driver.

Scratch directory: /tmp/

*** tstart() called on n012
*** at Mon Sep  6 18:16:08 2021

   => Loading Basis Set <=

    Name: CC-PVDZ
    Role: ORBITAL
    Keyword: BASIS
    atoms 1, 3 entry H          line    22 file /opt/psi/4/master/share/psi4/basis/cc-pvdz.gbs 
    atoms 2    entry O          line   198 file /opt/psi/4/master/share/psi4/basis/cc-pvdz.gbs 


         ---------------------------------------------------------
                                   SCF
               by Justin Turney, Rob Parrish, Andy Simmonett
                          and Daniel G. A. Smith
                              RHF Reference
                        1 Threads,  13351 MiB Core
         ---------------------------------------------------------

  ==> Geometry <==

    Molecular point group: c2v
    Full point group: C2v

    Geometry (in Bohr), charge = 0, multiplicity = 1:

       Center              X                  Y                   Z               Mass       
    ------------   -----------------  -----------------  -----------------  -----------------
         H            0.000000000000    -1.424625400000     0.995924078091     1.007825032230
         O            0.000000000000     0.000000000000    -0.125504541909    15.994914619570
         H           -0.000000000000     1.424625400000     0.995924078091     1.007825032230

  Running in c2v symmetry.

  Rotational constants: A =     26.74122  B =     14.71559  C =      9.49212 [cm^-1]
  Rotational constants: A = 801681.62459  B = 441162.33894  C = 284566.48700 [MHz]
  Nuclear repulsion =    9.175865170715298

  Charge       = 0
  Multiplicity = 1
  Electrons    = 10
  Nalpha       = 5
  Nbeta        = 5

  ==> Algorithm <==

  SCF Algorithm Type is PK.
  DIIS enabled.
  MOM disabled.
  Fractional occupation disabled.
  Guess Type is SAD.
  Energy threshold   = 1.00e-10
  Density threshold  = 1.00e-10
  Integral threshold = 0.00e+00

  ==> Primary Basis <==

  Basis Set: CC-PVDZ
    Blend: CC-PVDZ
    Number of shells: 12
    Number of basis function: 24
    Number of Cartesian functions: 25
    Spherical Harmonics?: true
    Max angular momentum: 2

  ==> Integral Setup <==

  Using in-core PK algorithm.
   Calculation information:
      Number of atoms:                   3
      Number of AO shells:              12
      Number of primitives:             32
      Number of atomic orbitals:        25
      Number of basis functions:        24

      Integral cutoff                 1.00e-12
      Number of threads:                 1

  Performing in-core PK
  Using 90300 doubles for integral storage.
  We computed 3081 shell quartets total.
  Whereas there are 3081 unique shell quartets.

  ==> DiskJK: Disk-Based J/K Matrices <==

    J tasked:                  Yes
    K tasked:                  Yes
    wK tasked:                  No
    Memory [MiB]:            10013
    Schwarz Cutoff:          1E-12

    OpenMP threads:              1

  Minimum eigenvalue in the overlap matrix is 3.2524676926E-02.
  Reciprocal condition number of the overlap matrix is 1.0325545394E-02.
    Using symmetric orthogonalization.

  ==> Pre-Iterations <==

  SCF Guess: Superposition of Atomic Densities via on-the-fly atomic UHF (no occupation information).

   -------------------------
    Irrep   Nso     Nmo    
   -------------------------
     A1        11      11 
     A2         2       2 
     B1         4       4 
     B2         7       7 
   -------------------------
    Total      24      24
   -------------------------

  ==> Iterations <==

                        Total Energy        Delta E     RMS |[F,P]|

   @RHF iter SAD:   -75.50959978691922   -7.55096e+01   0.00000e+00 
   @RHF iter   1:   -75.95368922885802   -4.44089e-01   3.03221e-02 DIIS
   @RHF iter   2:   -76.00707650147731   -5.33873e-02   1.73773e-02 DIIS
   @RHF iter   3:   -76.02627395842380   -1.91975e-02   1.58408e-03 DIIS
   @RHF iter   4:   -76.02666035586822   -3.86397e-04   3.65368e-04 DIIS
   @RHF iter   5:   -76.02667985502615   -1.94992e-05   6.68054e-05 DIIS
   @RHF iter   6:   -76.02668076821416   -9.13188e-07   1.04546e-05 DIIS
   @RHF iter   7:   -76.02668079267372   -2.44596e-08   1.40507e-06 DIIS
   @RHF iter   8:   -76.02668079312528   -4.51564e-10   3.27766e-07 DIIS
   @RHF iter   9:   -76.02668079315448   -2.92033e-11   5.93633e-08 DIIS
   @RHF iter  10:   -76.02668079315539   -9.09495e-13   4.87217e-09 DIIS
   @RHF iter  11:   -76.02668079315544   -4.26326e-14   8.52321e-10 DIIS
   @RHF iter  12:   -76.02668079315548   -4.26326e-14   4.84220e-11 DIIS
  Energy and wave function converged.


  ==> Post-Iterations <==

    Orbital Energies [Eh]
    ---------------------

    Doubly Occupied:                                                      

       1A1   -20.551322     2A1    -1.336330     1B2    -0.696357  
       3A1    -0.568081     1B1    -0.493330  

    Virtual:                                                              

       4A1     0.185011     2B2     0.256042     3B2     0.784592  
       5A1     0.856485     6A1     1.164422     2B1     1.200118  
       4B2     1.254406     7A1     1.436334     1A2     1.478778  
       3B1     1.669041     8A1     1.865730     5B2     1.938002  
       6B2     2.445285     9A1     2.486706     4B1     3.288610  
       2A2     3.333235    10A1     3.511472    11A1     3.856447  
       7B2     4.150341  

    Final Occupation by Irrep:
             A1    A2    B1    B2 
    DOCC [     3,    0,    1,    1 ]

  @RHF Final Energy:   -76.02668079315548

   => Energetics <=

    Nuclear Repulsion Energy =              9.1758651707152978
    One-Electron Energy =                -123.1142532468425230
    Two-Electron Energy =                  37.9117072829717401
    Total Energy =                        -76.0266807931554922

Computation Completed


Properties will be evaluated at   0.000000,   0.000000,   0.000000 [a0]

Properties computed using the SCF density matrix

  Nuclear Dipole Moment: [e a0]
     X:     0.0000      Y:     0.0000      Z:     0.9878

  Electronic Dipole Moment: [e a0]
     X:     0.0000      Y:     0.0000      Z:    -0.1724

  Dipole Moment: [e a0]
     X:     0.0000      Y:     0.0000      Z:     0.8154     Total:     0.8154

  Dipole Moment: [D]
     X:     0.0000      Y:     0.0000      Z:     2.0725     Total:     2.0725


*** tstop() called on n012 at Mon Sep  6 18:16:10 2021
Module time:
	user time   =       1.29 seconds =       0.02 minutes
	system time =       0.01 seconds =       0.00 minutes
	total time  =          2 seconds =       0.03 minutes
Total time:
	user time   =       1.29 seconds =       0.02 minutes
	system time =       0.01 seconds =       0.00 minutes
	total time  =          2 seconds =       0.03 minutes
 MINTS: Wrapper to libmints.
   by Justin Turney

   Calculation information:
      Number of threads:                 1
      Number of atoms:                   3
      Number of AO shells:              12
      Number of SO shells:               9
      Number of primitives:             32
      Number of atomic orbitals:        25
      Number of basis functions:        24

      Number of irreps:                  4
      Integral cutoff                 0.00e+00
      Number of functions per irrep: [  11    2    4    7 ]

 OEINTS: Overlap, kinetic, potential, dipole, and quadrupole integrals
         stored in file 35.

      Computing two-electron integrals...done
      Computed 11560 non-zero two-electron integrals.
        Stored in file 33.


*** tstart() called on n012
*** at Mon Sep  6 18:16:10 2021


	Wfn Parameters:
	--------------------
	Wavefunction         = CCSD_T
	Number of irreps     = 4
	Number of MOs        = 24
	Number of active MOs = 23
	AO-Basis             = NONE
	Semicanonical        = false
	Reference            = RHF
	Print Level          = 1

	IRREP	# MOs	# FZDC	# DOCC	# SOCC	# VIRT	# FZVR
	-----	-----	------	------	------	------	------
	 A1	   11	    1	    2	    0	    8	    0
	 A2	   2	    0	    0	    0	    2	    0
	 B1	   4	    0	    1	    0	    3	    0
	 B2	   7	    0	    1	    0	    6	    0
	Transforming integrals...
	IWL integrals will be deleted.
	(OO|OO)...
	Presorting SO-basis two-electron integrals.
	Sorting File: SO Ints (nn|nn) nbuckets = 1
	Transforming the one-electron integrals and constructing Fock matrices
	Starting first half-transformation.
	Sorting half-transformed integrals.
	First half integral transformation complete.
	Starting second half-transformation.
	Two-electron integral transformation complete.
	(OO|OV)...
	Starting second half-transformation.
	Two-electron integral transformation complete.
	(OO|VV)...
	Starting second half-transformation.
	Two-electron integral transformation complete.
	(OV|OO)...
	Starting first half-transformation.
	Sorting half-transformed integrals.
	First half integral transformation complete.
	Starting second half-transformation.
	Two-electron integral transformation complete.
	(OV|OV)...
	Starting second half-transformation.
	Two-electron integral transformation complete.
	(OV|VV)...
	Starting second half-transformation.
	Two-electron integral transformation complete.
	(VV|OO)...
	Starting first half-transformation.
	Sorting half-transformed integrals.
	First half integral transformation complete.
	Starting second half-transformation.
	Two-electron integral transformation complete.
	(VV|OV)...
	Starting second half-transformation.
	Two-electron integral transformation complete.
	(VV|VV)...
	Starting second half-transformation.
	Two-electron integral transformation complete.
	Frozen core energy     =    -61.31128810758518

	Size of irrep 0 of <ab|cd> integrals:      0.013 (MW) /      0.102 (MB)
	Size of irrep 1 of <ab|cd> integrals:      0.005 (MW) /      0.037 (MB)
	Size of irrep 2 of <ab|cd> integrals:      0.005 (MW) /      0.041 (MB)
	Size of irrep 3 of <ab|cd> integrals:      0.012 (MW) /      0.093 (MB)
	Total:                                     0.034 (MW) /      0.274 (MB)

	Size of irrep 0 of <ia|bc> integrals:      0.003 (MW) /      0.023 (MB)
	Size of irrep 1 of <ia|bc> integrals:      0.001 (MW) /      0.007 (MB)
	Size of irrep 2 of <ia|bc> integrals:      0.001 (MW) /      0.009 (MB)
	Size of irrep 3 of <ia|bc> integrals:      0.002 (MW) /      0.019 (MB)
	Total:                                     0.007 (MW) /      0.058 (MB)

	Size of irrep 0 of tijab amplitudes:       0.001 (MW) /      0.005 (MB)
	Size of irrep 1 of tijab amplitudes:       0.000 (MW) /      0.001 (MB)
	Size of irrep 2 of tijab amplitudes:       0.000 (MW) /      0.002 (MB)
	Size of irrep 3 of tijab amplitudes:       0.000 (MW) /      0.003 (MB)
	Total:                                     0.002 (MW) /      0.012 (MB)

	Nuclear Rep. energy          =      9.17586517071530
	SCF energy                   =    -76.02668079315548
	One-electron energy          =    -41.59432057409247
	Two-electron energy          =     17.70306271780699
	Reference energy             =    -76.02668079315536

*** tstop() called on n012 at Mon Sep  6 18:16:10 2021
Module time:
	user time   =       0.05 seconds =       0.00 minutes
	system time =       0.05 seconds =       0.00 minutes
	total time  =          0 seconds =       0.00 minutes
Total time:
	user time   =       1.39 seconds =       0.02 minutes
	system time =       0.06 seconds =       0.00 minutes
	total time  =          2 seconds =       0.03 minutes
            **************************
            *                        *
            *        CCENERGY        *
            *                        *
            **************************

    Nuclear Rep. energy (wfn)     =    9.175865170715298
    SCF energy          (wfn)     =  -76.026680793155478
    Reference energy    (file100) =  -76.026680793155364

    Input parameters:
    -----------------
    Wave function   =     CCSD_T
    Reference wfn   =     RHF
    Brueckner       =     No
    Memory (Mbytes) =     14000.0
    Maxiter         =    300
    R_Convergence   =     1.0e-08
    E_Convergence   =     1.0e-10
    Restart         =     Yes
    DIIS            =     Yes
    AO Basis        =     NONE
    ABCD            =     NEW
    Cache Level     =     2
    Cache Type      =     LOW
    Print Level     =     1
    Num. of threads =     1
    # Amps to Print =     10
    Print MP2 Amps? =     No
    Analyze T2 Amps =     No
    Print Pair Ener =     No
    Local CC        =     No
    SCS-MP2         =     False
    SCSN-MP2        =     False
    SCS-CCSD        =     False

MP2 correlation energy -0.2018753497186134
                Solving CC Amplitude Equations
                ------------------------------
  Iter             Energy              RMS        T1Diag      D1Diag    New D1Diag    D2Diag
  ----     ---------------------    ---------   ----------  ----------  ----------   --------
     0        -0.201875349718613    0.000e+00    0.000000    0.000000    0.000000    0.109744
     1        -0.207030943642251    2.670e-02    0.004524    0.008662    0.008662    0.116720
     2        -0.210998199245927    9.420e-03    0.005357    0.009980    0.009980    0.122091
     3        -0.211412267136252    2.445e-03    0.005841    0.010786    0.010786    0.123311
     4        -0.211423525217722    5.622e-04    0.005888    0.011004    0.011004    0.123510
     5        -0.211434713989485    1.667e-04    0.005914    0.011115    0.011115    0.123544
     6        -0.211432850342866    5.523e-05    0.005923    0.011160    0.011160    0.123537
     7        -0.211432626787148    1.490e-05    0.005927    0.011175    0.011175    0.123535
     8        -0.211432500108444    2.581e-06    0.005927    0.011177    0.011177    0.123535
     9        -0.211432453907730    6.234e-07    0.005927    0.011177    0.011177    0.123535
    10        -0.211432468237489    1.261e-07    0.005927    0.011177    0.011177    0.123535
    11        -0.211432466894968    2.686e-08    0.005927    0.011177    0.011177    0.123535
    12        -0.211432467309796    4.497e-09    0.005927    0.011177    0.011177    0.123535
    13        -0.211432467193904    9.784e-10    0.005927    0.011177    0.011177    0.123535
    14        -0.211432467186238    1.962e-10    0.005927    0.011177    0.011177    0.123535
    15        -0.211432467183361    5.398e-11    0.005927    0.011177    0.011177    0.123535

    Iterations converged.


    Largest TIA Amplitudes:
              1   0         0.0075285481
              3  17        -0.0073663772
              3  13         0.0060062687
              1   5        -0.0050321063
              3  15         0.0046322409
              0   2         0.0042239173
              0   0         0.0037248665
              2  11         0.0033089456
              2  10         0.0030744018
              1   1         0.0030419945

    Largest TIjAb Amplitudes:
      2   2  10  10        -0.0514087901
      3   3  14  14        -0.0361947191
      1   1   2   2        -0.0350571888
      3   3  13  13        -0.0296457236
      1   2   2  10         0.0284383603
      2   1  10   2         0.0284383603
      3   3   1   1        -0.0280499824
      1   1  14  14        -0.0257572923
      2   3  10  15         0.0228666389
      3   2  15  10         0.0228666389

    SCF energy       (wfn)                    =  -76.026680793155478
    Reference energy (file100)                =  -76.026680793155364

    Opposite-spin MP2 correlation energy      =   -0.151112822568834
    Same-spin MP2 correlation energy          =   -0.050762527149780
    Singles MP2 correlation energy            =   -0.000000000000000
    MP2 correlation energy                    =   -0.201875349718613
      * MP2 total energy                      =  -76.228556142873984

    Opposite-spin CCSD correlation energy     =   -0.166108567347310
    Same-spin CCSD correlation energy         =   -0.045323899836051
    Singles CCSD correlation energy           =    0.000000000000000
    CCSD correlation energy                   =   -0.211432467183361
      * CCSD total energy                     =  -76.238113260338721

            **************************
            *                        *
            *        CCTRIPLES       *
            *                        *
            **************************


    Wave function   =    CCSD_T
    Reference wfn   =      RHF

    Nuclear Rep. energy (wfn)                =    9.175865170715298
    SCF energy          (wfn)                =  -76.026680793155478
    Reference energy    (file100)            =  -76.026680793155364
    CCSD energy         (file100)            =   -0.211432467183361
    Total CCSD energy   (file100)            =  -76.238113260338721

    Number of ijk index combinations:               20
    Memory available in words        :      1750000000
    ~Words needed per explicit thread:            2048
    Number of threads for explicit ijk threading:    1

    MKL num_threads set to 1 for explicit threading.

    (T) energy                                =   -0.003053389673739
      * CCSD(T) total energy                  =  -76.241166650012460

Giraffe The Energy is -76.241166650012 

    Psi4 stopped on: Monday, 06 September 2021 06:16PM
    Psi4 wall time for execution: 0:00:05.67

*** Psi4 exiting successfully. Buy a developer a beer!
