
 Working directory              : /scratch/mel64643/tmp/40073293/
 Global scratch directory       : /scratch/mel64643/tmp/40073293/
 Wavefunction directory         : /home/mel64643/wfu/
 Main file repository           : /scratch/mel64643/tmp/40073293/

 id        : ccgc

 Nodes     nprocs
 a1-8         3
 Distribution of processes:   nprocs(total)=    4   nprocs(compute)=    3   nprocs(helper)=    1
 GA implementation: MPI file
 GA implementation (serial work in mppx): MPI file

 Using customized tuning parameters: mindgm=1; mindgv=20; mindgc=4; mindgr=1; noblas=0; minvec=7
 default implementation of scratch files=sf  


 Variables initialized (1015), CPU time= 0.00 sec
 ***,Optimization of min3
 memory,1000,m
 gthresh,energy=1.0d-12,orbital=1.0d-10,oneint=1.0d-16,twoint=1.0d-16,optgrad=1.0d-6,compress=1.0d-13
 geomtyp=xyz
 
  bohr
  geometry = {
  6
  arbitrary comment
  C   -1.3768547896   -0.0243283300   -0.0024688555
  O    1.3029165059    0.1195836899   -0.0085447654
  H   -2.0778206626    1.8994294744    0.0038124052
  H   -2.1085924447   -0.9747099433    1.6726295601
  H   -2.1064357852   -0.9721410658   -1.6721652982
  H    1.9430630161   -1.5779659452    0.0067285438
 }
 
 basis=cc-pvdz
 {rhf;maxit,200}
 {ccsd(t);maxit,200}
 Commands initialized (818), CPU time= 0.01 sec, 672 directives.
 Default parameters read. Elapsed time= 0.10 sec

 Checking input...
 Passed
1


                                         ***  PROGRAM SYSTEM MOLPRO  ***
                                       Copyright, TTI GmbH Stuttgart, 2015
                                    Version 2022.1 linked Mar  4 2022 00:40:14


 **********************************************************************************************************************************
 LABEL *   Optimization of min3                                                          
  64 bit mpp version                                                                     DATE: 07-Aug-25          TIME: 21:25:34  
 **********************************************************************************************************************************

 SHA1:             31073afc4d8441e10870424e0d77336a33bc4286
 **********************************************************************************************************************************

 Memory per process:      1000 MW
 Total memory per node:   3000 MW

 GA preallocation disabled
 GA check disabled

 Variable memory set to 1000.0 MW


 THRESHOLDS:

 ZERO    =  1.00D-12  ONEINT  =  1.00D-16  TWOINT  =  1.00D-16  PREFAC  =  1.00D-14  XXXXXX  =  1.00D-09  EORDER  =  1.00D-04
 ENERGY  =  1.00D-12  ETEST   =  0.00D+00  EDENS   =  0.00D+00  THRDEDEF=  1.00D-06  GRADIENT=  1.00D-05  STEP    =  1.00D-03
 ORBITAL =  1.00D-10  CIVEC   =  1.00D-05  COEFF   =  1.00D-04  PRINTCI =  5.00D-02  PUNCHCI =  9.90D+01  OPTGRAD =  1.00D-06
 OPTENERG=  1.00D-06  OPTSTEP =  3.00D-04  THRGRAD =  1.00D-10  COMPRESS=  1.00D-13  VARMIN  =  1.00D-07  VARMAX  =  1.00D-03
 THRDOUB =  0.00D+00  THRDIV  =  1.00D-05  THRRED  =  1.00D-07  THRPSP  =  1.00D+00  THRDC   =  1.00D-10  THRCS   =  1.00D-10
 THRNRM  =  1.00D-08  THREQ   =  0.00D+00  THRDE   =  1.00D+00  THRREF  =  1.00D-05  SPARFAC =  1.00D+00  THRDLP  =  1.00D-07
 THRDIA  =  1.00D-10  THRDLS  =  1.00D-07  THRGPS  =  0.00D+00  THRKEX  =  0.00D+00  THRDIS  =  2.00D-01  THRVAR  =  1.00D-10
 THRLOC  =  1.00D-06  THRGAP  =  1.00D-06  THRLOCT = -1.00D+00  THRGAPT = -1.00D+00  THRORB  =  1.00D-06  THRMLTP =  0.00D+00
 THRCPQCI=  1.00D-10  KEXTA   =  0.00D+00  THRCOARS=  0.00D+00  SYMTOL  =  1.00D-06  GRADTOL =  1.00D-06  THROVL  =  1.00D-08
 THRORTH =  1.00D-08  THRDLOVL= -1.00D+00  GRID    =  1.00D-06  GRIDMAX =  1.00D-03  DTMAX   =  0.00D+00  THROCCDE=  1.00D-01
 THROCCDE=  1.00D-01  THRPRINT=  2.50D-01

 SETTING GEOMTYP        =    XYZ
 ZUNIT=BOHR

 SETTING BASIS          =    CC-PVDZ


 Recomputing integrals since basis changed


 Using spherical harmonics

 Library entry C      S cc-pVDZ              selected for orbital group  1
 Library entry C      P cc-pVDZ              selected for orbital group  1
 Library entry C      D cc-pVDZ              selected for orbital group  1
 Library entry O      S cc-pVDZ              selected for orbital group  2
 Library entry O      P cc-pVDZ              selected for orbital group  2
 Library entry O      D cc-pVDZ              selected for orbital group  2
 Library entry H      S cc-pVDZ              selected for orbital group  3
 Library entry H      P cc-pVDZ              selected for orbital group  3


 PROGRAM * SEWARD (Integral evaluation for generally contracted gaussian basis sets)     Author: Roland Lindh, 1990

 Geometry written to block  1 of record 700


 Point group  C1  



 ATOMIC COORDINATES

 NR  ATOM    CHARGE       X              Y              Z

   1  C       6.00   -1.376854790   -0.024328330   -0.002468856
   2  O       8.00    1.302916506    0.119583690   -0.008544765
   3  H       1.00   -2.077820663    1.899429474    0.003812405
   4  H       1.00   -2.108592445   -0.974709943    1.672629560
   5  H       1.00   -2.106435785   -0.972141066   -1.672165298
   6  H       1.00    1.943063016   -1.577965945    0.006728544

 Bond lengths in Bohr (Angstrom)

 1-2  2.683639652  1-3  2.047495226  1-4  2.060247536  1-5  2.053904482  2-6  1.814303060
     ( 1.420120946)     ( 1.083487813)     ( 1.090236045)     ( 1.086879445)     ( 0.960087833)

 Bond angles

  1-2-6  107.58563179   2-1-3  106.94666821   2-1-4  112.41025652   2-1-5  112.18575766

  3-1-4  108.01882807   3-1-5  108.32852156   4-1-5  108.77963699

 NUCLEAR CHARGE:                   18
 NUMBER OF PRIMITIVE AOS:          82
 NUMBER OF SYMMETRY AOS:           80
 NUMBER OF CONTRACTIONS:           48   (   48A   )
 NUMBER OF INNER CORE ORBITALS:     0   (    0A   )
 NUMBER OF OUTER CORE ORBITALS:     2   (    2A   )
 NUMBER OF VALENCE ORBITALS:       12   (   12A   )


 NUCLEAR REPULSION ENERGY   40.37912560

 Eigenvalues of metric

         1 0.962E-02 0.176E-01 0.362E-01 0.367E-01 0.380E-01 0.466E-01 0.470E-01 0.513E-01


 Contracted 2-electron integrals neglected if value below      1.0D-16
 AO integral compression algorithm  1   Integral accuracy      1.0D-16

     7.340 MB (compressed) written to integral file (100.0%)

     Node minimum: 2.359 MB, node maximum: 2.621 MB


 NUMBER OF SORTED TWO-ELECTRON INTEGRALS:     231084.     BUFFER LENGTH:  32768
 NUMBER OF SEGMENTS:   1  SEGMENT LENGTH:     231084      RECORD LENGTH: 524288

 Memory used in sort:       0.79 MW

 SORT1 READ      832256. AND WROTE      227683. INTEGRALS IN      1 RECORDS. CPU TIME:     0.01 SEC, REAL TIME:     0.02 SEC
 SORT2 READ      682150. AND WROTE      692076. INTEGRALS IN     27 RECORDS. CPU TIME:     0.01 SEC, REAL TIME:     0.02 SEC

 Node minimum:      230300.  Node maximum:      231084. integrals

 OPERATOR DM      FOR CENTER  0  COORDINATES:    0.000000    0.000000    0.000000


 **********************************************************************************************************************************
 DATASETS  * FILE   NREC   LENGTH (MB)   RECORD NAMES
              1      18       28.73       500      610      700      900      950      970     1000      129      960     1100   
                                          VAR    BASINP    GEOM    SYMINP    ZMAT    AOBASIS   BASIS     P2S    ABASIS      S 
                                         1400     1410     1200     1210     1080     1600     1650     1700   
                                           T        V       H0       H01     AOSYM     SMH    MOLCAS    OPER   

 PROGRAMS   *        TOTAL       INT
 CPU TIMES  *         0.40      0.26
 REAL TIME  *         1.03 SEC
 DISK USED  *        29.07 MB (local),      104.72 MB (total)
 GA USED    *         0.00 MB       (max)       0.00 MB       (current)
 **********************************************************************************************************************************


 Program * Restricted Hartree-Fock

 Orbital guess generated from atomic densities. Full valence occupancy:   14

 Initial occupancy:   9

 NELEC=   18   SYM=1   MS2= 0   THRE=1.0D-12   THRD=1.0D-10   THRG=1.0D-10  HFMA2=F  DIIS_START=2   DIIS_MAX=10   DIIS_INCORE=F

 Level shifts:    0.00 (CLOSED)    0.00 (OPEN)    0.30 (GAP_MIN)

 ITER           ETOT              DE          GRAD        DDIFF     DIIS  NEXP   TIME(IT)  TIME(TOT)  DIAG
   1     -115.01425783    -115.01425783     0.00D+00     0.16D+00     0     0       0.01      0.01    start
   2     -115.04259983      -0.02834199     0.10D-01     0.20D-01     1     0       0.00      0.01    diag
   3     -115.04856851      -0.00596868     0.48D-02     0.64D-02     2     0       0.00      0.01    diag
   4     -115.04903255      -0.00046404     0.10D-02     0.20D-02     3     0       0.00      0.01    diag
   5     -115.04905357      -0.00002102     0.19D-03     0.43D-03     4     0       0.01      0.02    diag
   6     -115.04905437      -0.00000080     0.33D-04     0.94D-04     5     0       0.01      0.03    diag
   7     -115.04905440      -0.00000003     0.70D-05     0.15D-04     6     0       0.00      0.03    diag
   8     -115.04905440      -0.00000000     0.23D-05     0.53D-05     7     0       0.00      0.03    fixocc
   9     -115.04905440      -0.00000000     0.45D-06     0.14D-05     8     0       0.01      0.04    diag
  10     -115.04905440      -0.00000000     0.76D-07     0.25D-06     9     0       0.00      0.04    diag/orth
  11     -115.04905440      -0.00000000     0.19D-07     0.51D-07     9     0       0.00      0.04    diag
  12     -115.04905440       0.00000000     0.46D-08     0.15D-07     9     0       0.00      0.04    diag
  13     -115.04905440      -0.00000000     0.68D-09     0.19D-08     9     0       0.01      0.05    diag
  14     -115.04905440      -0.00000000     0.15D-09     0.40D-09     9     0       0.00      0.05    diag
  15     -115.04905440      -0.00000000     0.63D-10     0.12D-09     9     0       0.00      0.05    diag
  16     -115.04905440      -0.00000000     0.15D-10     0.35D-10     9     0       0.00      0.05    diag
  17     -115.04905440       0.00000000     0.33D-11     0.58D-11     0     0       0.00      0.05    diag

 Final occupancy:   9

 !RHF STATE 1.1 Energy               -115.049054402820
  RHF One-electron energy            -237.018163192004
  RHF Two-electron energy              81.589983190388
  RHF Kinetic energy                  114.968203907900
  RHF Nuclear energy                   40.379125598796
  RHF Virial quotient                  -1.000703242220

 !RHF STATE 1.1 Dipole moment          -0.39459521    -0.59545629     0.00614830
 Dipole moment /Debye                  -1.00296099    -1.51349891     0.01562742

 Orbital energies:

           1.1          2.1          3.1          4.1          5.1          6.1          7.1          8.1          9.1         10.1
    -20.549501   -11.272555    -1.349565    -0.923196    -0.683094    -0.614899    -0.585568    -0.497385    -0.443335     0.184939

          11.1
      0.224664


 HOMO      9.1    -0.443335 =     -12.0638eV
 LUMO     10.1     0.184939 =       5.0324eV
 LUMO-HOMO         0.628274 =      17.0962eV

 Orbitals saved in record  2100.2


 **********************************************************************************************************************************
 DATASETS  * FILE   NREC   LENGTH (MB)   RECORD NAMES
              1      18       28.73       500      610      700      900      950      970     1000      129      960     1100   
                                          VAR    BASINP    GEOM    SYMINP    ZMAT    AOBASIS   BASIS     P2S    ABASIS      S 
                                         1400     1410     1200     1210     1080     1600     1650     1700   
                                           T        V       H0       H01     AOSYM     SMH    MOLCAS    OPER   

              2       4        0.47       700     1000      520     2100   
                                         GEOM     BASIS   MCVARS     RHF  

 PROGRAMS   *        TOTAL   RHF-SCF       INT
 CPU TIMES  *         0.46      0.06      0.26
 REAL TIME  *         1.24 SEC
 DISK USED  *        29.40 MB (local),      105.70 MB (total)
 GA USED    *         0.00 MB       (max)       0.00 MB       (current)
 **********************************************************************************************************************************


 PROGRAM * CCSD (Closed-shell coupled cluster)     Authors: C. Hampel, H.-J. Werner, 1991, M. Deegan, P.J. Knowles, 1992


 Convergence thresholds:  THRVAR = 1.00D-08  THRDEN = 1.00D-12

 CCSD(T)     terms to be evaluated (factor= 1.000)


 Number of core orbitals:           2 (   2 )
 Number of closed-shell orbitals:   7 (   7 )
 Number of external orbitals:      39 (  39 )

 Molecular orbitals read from record     2100.2  Type=RHF/CANONICAL  

 Number of N-1 electron functions:               7
 Number of N-2 electron functions:              28
 Number of singly external CSFs:               273
 Number of doubly external CSFs:             37401
 Total number of CSFs:                       37675

 Length of J-op  integral file:               0.00 MB
 Length of K-op  integral file:               0.16 MB
 Length of 3-ext integral record:             0.00 MB

 Memory could be reduced to 0.73 Mwords without degradation in triples

 Integral transformation finished. Total CPU:   0.02 sec, npass=  1  Memory used:   0.66 MW

 Reference energy:                   -115.04905440

 MP2 singlet pair energy:              -0.21839673
 MP2 triplet pair energy:              -0.11979858
 MP2 correlation energy:               -0.33819531
 MP2 total energy:                   -115.38724971

 SCS-MP2 correlation energy:           -0.33661741   (PS=  1.200000  PT=  0.333333)
 SCS-MP2 total energy:               -115.38567181

 ITER.      SQ.NORM     CORR.ENERGY   TOTAL ENERGY   ENERGY CHANGE        DEN1      VAR(S)    VAR(P)  DIIS     TIME  TIME/IT
   1      1.10697077    -0.36095874  -115.41001314    -0.02276343    -0.01412456  0.90D-03  0.17D-02  1  1     0.05     0.04
   2      1.11542446    -0.36289025  -115.41194465    -0.00193151    -0.00921022  0.19D-04  0.16D-03  2  2     0.07     0.04
   3      1.11727788    -0.36301510  -115.41206950    -0.00012485    -0.00119085  0.94D-05  0.84D-05  3  3     0.09     0.04
   4      1.11778498    -0.36301369  -115.41206810     0.00000140    -0.00025159  0.33D-06  0.66D-06  4  4     0.11     0.04
   5      1.11788148    -0.36301406  -115.41206846    -0.00000036    -0.00003557  0.99D-07  0.48D-07  5  5     0.14     0.03
   6      1.11790023    -0.36301271  -115.41206711     0.00000135    -0.00000426  0.16D-07  0.40D-08  6  6     0.15     0.03
   7      1.11790499    -0.36301229  -115.41206670     0.00000041    -0.00000035  0.20D-08  0.71D-09  6  1     0.17     0.03
   8      1.11790626    -0.36301239  -115.41206680    -0.00000010     0.00000075  0.25D-09  0.72D-10  6  3     0.19     0.03
   9      1.11790731    -0.36301227  -115.41206668     0.00000012    -0.00000038  0.13D-10  0.10D-10  6  2     0.22     0.03
  10      1.11790737    -0.36301227  -115.41206667     0.00000000     0.00000000  0.13D-11  0.12D-11  6  4     0.23     0.03
  11      1.11790732    -0.36301227  -115.41206667     0.00000000     0.00000003  0.33D-12  0.82D-13  6  5     0.25     0.03
  12      1.11790727    -0.36301227  -115.41206668    -0.00000000     0.00000003  0.33D-13  0.13D-13  6  6     0.27     0.03
  13      1.11790726    -0.36301228  -115.41206668    -0.00000000     0.00000001  0.37D-14  0.15D-14  6  3     0.29     0.03
  14      1.11790726    -0.36301228  -115.41206668    -0.00000000     0.00000000  0.28D-15  0.14D-15  6  1     0.31     0.03
  15      1.11790726    -0.36301228  -115.41206668     0.00000000    -0.00000000  0.38D-16  0.30D-16  6  2     0.34     0.03
  16      1.11790726    -0.36301228  -115.41206668     0.00000000    -0.00000000  0.37D-17  0.17D-17  6  5     0.35     0.03
  17      1.11790726    -0.36301228  -115.41206668    -0.00000000     0.00000000  0.39D-18  0.15D-18  6  4     0.38     0.03
  18      1.11790726    -0.36301228  -115.41206668     0.00000000    -0.00000000  0.10D-18  0.23D-19  6  3     0.39     0.03
  19      1.11790726    -0.36301228  -115.41206668     0.00000000    -0.00000000  0.17D-19  0.35D-20  6  6     0.42     0.03
  20      1.11790726    -0.36301228  -115.41206668     0.00000000     0.00000000  0.27D-20  0.65D-21  6  1     0.44     0.03

 Norm of t1 vector:      0.04152178      S-energy:     0.00000000      T1 diagnostic:  0.00784688
                                                                       D1 diagnostic:  0.01753324
                                                                       D2 diagnostic:  0.13406328 (internal)


 Total CPU time for triples:      0.09 sec


 RESULTS
 =======

  Reference energy                   -115.049054402820
  CCSD singlet pair energy             -0.254238824923
  CCSD triplet pair energy             -0.108773450240
  CCSD correlation energy              -0.363012275163

  Triples (T) contribution             -0.007702625645
  Total correlation energy             -0.370714900809

  CCSD total energy                  -115.412066677984
  CCSD[T] energy                     -115.420055976136
  CCSD-T energy                      -115.419621081500
 !CCSD(T) total energy               -115.419769303629

 Timing summary (sec):

 STEP                 CPU(USER)    SYS     CPU(TOT)    WALL
 Transformation          0.03      0.01      0.04      0.04
 CCSD iterations         0.41      0.14      0.55      0.72
 Triples                 0.09      0.01      0.10      0.10

 Program statistics:

 Available memory in ccsd:               999999795
 Min. memory needed in ccsd:                136177
 Max. memory used in ccsd:                  162910
 Max. memory used in cckext:                178997 (20 integral passes)



 **********************************************************************************************************************************
 DATASETS  * FILE   NREC   LENGTH (MB)   RECORD NAMES
              1      19       31.13       500      610      700      900      950      970     1000      129      960     1100   
                                          VAR    BASINP    GEOM    SYMINP    ZMAT    AOBASIS   BASIS     P2S    ABASIS      S 
                                         1400     1410     1200     1210     1080     1600     1650     1700     1380   
                                           T        V       H0       H01     AOSYM     SMH    MOLCAS    OPER     JKOP   

              2       4        0.47       700     1000      520     2100   
                                         GEOM     BASIS   MCVARS     RHF  

 PROGRAMS   *        TOTAL   CCSD(T)   RHF-SCF       INT
 CPU TIMES  *         1.03      0.57      0.06      0.26
 REAL TIME  *         2.17 SEC
 DISK USED  *        35.56 MB (local),      116.36 MB (total)
 SF USED    *         5.97 MB
 GA USED    *         0.00 MB       (max)       0.00 MB       (current)
 **********************************************************************************************************************************

 CCSD(T)/cc-pVDZ energy=   -115.419769303629

         CCSD(T)         RHF-SCF
   -115.41976930   -115.04905440
 **********************************************************************************************************************************
 Molpro calculation terminated
