
 Primary working directories    : /tmp/333988.3.gen6.q
 Secondary working directories  : /tmp/333988.3.gen6.q
 Wavefunction directory         : /home/vulcan/mel64643/wfu/
 Main file repository           : /tmp/333988.3.gen6.q/

 ARCHNAME  : Linux/x86_64
 FC        : /opt/intel/compilers_and_libraries_2016.1.150/linux/bin/intel64/ifort
 FCVERSION : 16.0.1
 BLASLIB   : -mkl
 id        : ccgc

 Nodes     nprocs
 n084         3
 Number of processes for MPI-2 version of Molpro:   nprocs(total)=    4   nprocs(compute)=    3   nprocs(helper)=    1
 ga_uses_ma=false, calling ma_init with nominal heap.
 GA-space will be limited to   8.0 MW (determined by -G option)

 Using customized tuning parameters: mindgm=10; mindgv=16; mindgc=4; mindgr=1; noblas=0; mincuda=1000; minvec=7
 default implementation of scratch files=sf  

 ***,Optimization of min3
 memory,1000,m
 gthresh,energy=1.0d-10,orbital=1.0d-10,oneint=1.0d-16,twoint=1.0d-16,optgrad=1.0d-6,compress=1.0d-13
 geomtyp=xyz
 
  bohr
  geometry = {
  12
  arbitrary comment
  C         -3.1033342679          1.5848382533          0.0240067297
  C         -0.8652539094         -0.0690144505         -0.6584416609
  C         -1.1134121413         -2.7782375186          0.2443023543
  O          1.3111673744          1.1111412300          0.5814524727
  O          3.4481412605          0.1121307921         -0.2445320280
  H         -4.8077934553          0.8442640097         -0.8694799990
  H         -2.8123597529          3.5224969558         -0.6139115050
  H         -3.3898621860          1.5938187311          2.0672911219
  H         -0.4668027756         -0.0016716164         -2.6808128540
  H         -2.6949535302         -3.6922039585         -0.7150124239
  H         -1.4609971778         -2.8225168391          2.2783074514
  H          0.6095942630         -3.8270581320         -0.1683120000
 }
 
 basis=cc-pvtz
 {rhf;maxit,200}
 {uccsd(t);maxit,200}

 Variables initialized (661), CPU time= 0.01 sec
 Commands  initialized (458), CPU time= 0.00 sec, 486 directives.
 Default parameters read. Elapsed time= 0.05 sec

 Checking input...
 Passed
1


                                         ***  PROGRAM SYSTEM MOLPRO  ***
                         Copyright, University College Cardiff Consultants Limited, 2008

                                    Version 2010.1 linked May 16 2016 07:17:05


 **********************************************************************************************************************************
 LABEL *   Optimization of min3                                                          
 Linux-4.4.3/n084(x86_64) 64 bit mpp version                                             DATE: 15-Jul-20          TIME: 01:48:54  
 **********************************************************************************************************************************

 SHA1:             9e8077add272b0f3cad6f7df79ec5211205f459d
 **********************************************************************************************************************************

 THRESHOLDS:

 ZERO    =  1.00D-12  ONEINT  =  1.00D-16  TWOINT  =  1.00D-16  PREFAC  =  1.00D-14  LOCALI  =  1.00D-09  EORDER  =  1.00D-04
 ENERGY  =  1.00D-10  ETEST   =  0.00D+00  EDENS   =  0.00D+00  THRDEDEF=  1.00D-06  GRADIENT=  1.00D-02  STEP    =  1.00D-03
 ORBITAL =  1.00D-10  CIVEC   =  1.00D-05  COEFF   =  1.00D-04  PRINTCI =  5.00D-02  PUNCHCI =  9.90D+01  OPTGRAD =  1.00D-06
 OPTENERG=  1.00D-06  OPTSTEP =  3.00D-04  THRGRAD =  1.00D-10  COMPRESS=  1.00D-13  VARMIN  =  1.00D-07  VARMAX  =  1.00D-03
 THRDOUB =  0.00D+00  THRDIV  =  1.00D-05  THRRED  =  1.00D-07  THRPSP  =  1.00D+00  THRDC   =  1.00D-10  THRCS   =  1.00D-10
 THRNRM  =  1.00D-08  THREQ   =  0.00D+00  THRDE   =  1.00D+00  THRREF  =  1.00D-05  SPARFAC =  1.00D+00  THRDLP  =  1.00D-07
 THRDIA  =  1.00D-10  THRDLS  =  1.00D-07  THRGPS  =  0.00D+00  THRKEX  =  0.00D+00  THRDIS  =  2.00D-01  THRVAR  =  1.00D-10
 THRLOC  =  1.00D-06  THRGAP  =  1.00D-06  THRLOCT = -1.00D+00  THRGAPT = -1.00D+00  THRORB  =  1.00D-06  THRMLTP =  0.00D+00
 THRCPQCI=  1.00D-10  KEXTA   =  0.00D+00  THRCOARS=  0.00D+00  SYMTOL  =  1.00D-06  GRADTOL =  1.00D-06  THROVL  =  1.00D-08
 THRORTH =  1.00D-08  GRID    =  1.00D-06  GRIDMAX =  1.00D-03  DTMAX   =  0.00D+00

 SETTING GEOMTYP        =    XYZ
 ZUNIT=BOHR
 

 Variable memory set to 1000000000 words,  buffer space   230000 words

 SETTING BASIS          =    CC-PVTZ


 Recomputing integrals since basis changed


 Using spherical harmonics

 Library entry C      S cc-pVTZ              selected for orbital group  1
 Library entry C      P cc-pVTZ              selected for orbital group  1
 Library entry C      D cc-pVTZ              selected for orbital group  1
 Library entry C      F cc-pVTZ              selected for orbital group  1
 Library entry O      S cc-pVTZ              selected for orbital group  2
 Library entry O      P cc-pVTZ              selected for orbital group  2
 Library entry O      D cc-pVTZ              selected for orbital group  2
 Library entry O      F cc-pVTZ              selected for orbital group  2
 Library entry H      S cc-pVTZ              selected for orbital group  3
 Library entry H      P cc-pVTZ              selected for orbital group  3
 Library entry H      D cc-pVTZ              selected for orbital group  3

1PROGRAM * SEWARD (Integral evaluation for generally contracted gaussian basis sets)     Author: Roland Lindh, 1990

 Geometry written to block  1 of record 700


 Point group  C1  



 ATOMIC COORDINATES

 NR  ATOM    CHARGE       X              Y              Z

   1  C       6.00   -3.103334268    1.584838253    0.024006730
   2  C       6.00   -0.865253909   -0.069014451   -0.658441661
   3  C       6.00   -1.113412141   -2.778237519    0.244302354
   4  O       8.00    1.311167374    1.111141230    0.581452473
   5  O       8.00    3.448141260    0.112130792   -0.244532028
   6  H       1.00   -4.807793455    0.844264010   -0.869479999
   7  H       1.00   -2.812359753    3.522496956   -0.613911505
   8  H       1.00   -3.389862186    1.593818731    2.067291122
   9  H       1.00   -0.466802776   -0.001671616   -2.680812854
  10  H       1.00   -2.694953530   -3.692203958   -0.715012424
  11  H       1.00   -1.460997178   -2.822516839    2.278307451
  12  H       1.00    0.609594263   -3.827058132   -0.168312000

 Bond lengths in Bohr (Angstrom)

 1-2  2.865304218  1-6  2.062025671  1-7  2.060613280  1-8  2.063295908  2-3  2.866429643
     ( 1.516253689)     ( 1.091176989)     ( 1.090429584)     ( 1.091849170)     ( 1.516849238)

  2- 4  2.768919374   2- 9  2.062349050   3-10  2.063223852   3-11  2.063965298   3-12  2.058889592
       ( 1.465249026)       ( 1.091348115)       ( 1.091811039)       ( 1.092203396)       ( 1.089517448)

 4-5  2.499385853
     ( 1.322618030)

 Bond angles

  1-2-3  113.76025409   1-2-4  105.14674457   1-2-9  111.44586637   2-1-6  109.58145633

  2- 1- 7  111.02209350   2- 1- 8  110.29470646   2- 3-10  109.79248981   2- 3-11  110.19533022

  2- 3-12  110.23716589   2- 4- 5  110.71395770   3- 2- 4  109.26046840   3- 2- 9  110.88054354

  4-2-9  105.86260751   6-1-7  108.68101351   6-1-8  108.41380140   7-1-8  108.78942408

 10- 3-11  108.63972183  10- 3-12  108.82313259  11- 3-12  109.11719519

 NUCLEAR CHARGE:                   41
 NUMBER OF PRIMITIVE AOS:         354
 NUMBER OF SYMMETRY AOS:          322
 NUMBER OF CONTRACTIONS:          248   ( 248A   )
 NUMBER OF CORE ORBITALS:           5   (   5A   )
 NUMBER OF VALENCE ORBITALS:       27   (  27A   )


 NUCLEAR REPULSION ENERGY  186.64581962


 Eigenvalues of metric

         1 0.808E-03 0.957E-03 0.110E-02 0.124E-02 0.137E-02 0.150E-02 0.160E-02 0.164E-02


 Contracted 2-electron integrals neglected if value below      1.0D-16
 AO integral compression algorithm  1   Integral accuracy      1.0D-16

     3371.958 MB (compressed) written to integral file ( 82.1%)

     Node minimum: 1107.558 MB, node maximum: 1132.986 MB


 NUMBER OF SORTED TWO-ELECTRON INTEGRALS:  158903334.     BUFFER LENGTH:  32768
 NUMBER OF SEGMENTS:  10  SEGMENT LENGTH:   15997437      RECORD LENGTH: 524288

 Memory used in sort:      16.55 MW

 SORT1 READ   513522652. AND WROTE   152638567. INTEGRALS IN    442 RECORDS. CPU TIME:     6.26 SEC, REAL TIME:     7.12 SEC
 SORT2 READ   459407531. AND WROTE   476679126. INTEGRALS IN  12948 RECORDS. CPU TIME:     1.24 SEC, REAL TIME:     2.18 SEC

 Node minimum:   158882750.  Node maximum:   158903334. integrals

 OPERATOR DM      FOR CENTER  0  COORDINATES:    0.000000    0.000000    0.000000


 **********************************************************************************************************************************
 DATASETS  * FILE   NREC   LENGTH (MB)   RECORD NAMES
              1      18        5.04       500      610      700      900      950      970     1000      129      960     1100   
                                          VAR    BASINP    GEOM    SYMINP    ZMAT    AOBASIS   BASIS     P2S    ABASIS      S 
                                         1400     1410     1200     1210     1080     1600     1650     1700   
                                           T        V       H0       H01     AOSYM     SMH    MOLCAS    OPER   

 PROGRAMS   *        TOTAL       INT
 CPU TIMES  *        13.70     13.65
 REAL TIME  *        16.48 SEC
 DISK USED  *         8.83 GB      
 GA USED    *         0.01 MB       (max)       0.00 MB       (current)
 **********************************************************************************************************************************

1PROGRAM * RHF-SCF (OPEN SHELL)       Authors: W. Meyer, H.-J. Werner


 NUMBER OF ELECTRONS:      21+   20-    SPACE SYMMETRY=1    SPIN SYMMETRY: Doublet 
 CONVERGENCE THRESHOLDS:    1.00E-10 (Density)    1.00E-11 (Energy)
 MAX. NUMBER OF ITERATIONS:      200
 INTERPOLATION TYPE:            DIIS
 INTERPOLATION STEPS:              2 (START)      1 (STEP)
 LEVEL SHIFTS:                 -0.30 (CLOSED)  0.00 (OPEN) 



 Orbital guess generated from atomic densities. Full valence occupancy:   32

 Molecular orbital dump at record        2100.2

 ITERATION    DDIFF          GRAD             ENERGY        2-EL.EN.            DIPOLE MOMENTS         DIIS
    1      0.000D+00      0.000D+00      -267.26098530    559.840041   -1.77367   -0.06382   -0.10175    0
    2      0.000D+00      0.326D-02      -267.33459137    562.685251   -1.01490   -0.43222   -0.35706    1
    3      0.471D-02      0.230D-02      -267.36114000    561.639517   -1.18837   -0.24175   -0.21730    2
    4      0.211D-02      0.546D-03      -267.36938519    561.826099   -0.97710   -0.31604   -0.29712    3
    5      0.927D-03      0.485D-03      -267.37361240    561.868520   -0.92165   -0.31841   -0.30119    4
    6      0.583D-03      0.272D-03      -267.37553675    561.835628   -0.88052   -0.31194   -0.29898    5
    7      0.486D-03      0.133D-03      -267.37587237    561.821554   -0.89049   -0.30027   -0.29099    6
    8      0.258D-03      0.356D-04      -267.37589415    561.818815   -0.89009   -0.29704   -0.28951    7
    9      0.845D-04      0.189D-04      -267.37590500    561.819034   -0.89260   -0.29755   -0.28957    8
   10      0.448D-04      0.821D-05      -267.37590682    561.818929   -0.89378   -0.29692   -0.28928    9
   11      0.198D-04      0.320D-05      -267.37590707    561.818878   -0.89440   -0.29676   -0.28912    9
   12      0.784D-05      0.148D-05      -267.37590713    561.819100   -0.89454   -0.29685   -0.28916    9
   13      0.370D-05      0.527D-06      -267.37590714    561.819151   -0.89456   -0.29691   -0.28919    9
   14      0.149D-05      0.298D-06      -267.37590714    561.819149   -0.89455   -0.29693   -0.28920    9
   15      0.821D-06      0.146D-06      -267.37590714    561.819155   -0.89454   -0.29693   -0.28920    9
   16      0.439D-06      0.758D-07      -267.37590714    561.819157   -0.89454   -0.29694   -0.28920    9
   17      0.195D-06      0.392D-07      -267.37590714    561.819151   -0.89454   -0.29693   -0.28920    9
   18      0.149D-06      0.264D-07      -267.37590714    561.819147   -0.89454   -0.29693   -0.28920    9
   19      0.113D-06      0.199D-07      -267.37590714    561.819149   -0.89454   -0.29693   -0.28920    9
   20      0.126D-06      0.157D-07      -267.37590714    561.819146   -0.89454   -0.29693   -0.28920    9
   21      0.178D-06      0.120D-07      -267.37590714    561.819145   -0.89454   -0.29693   -0.28920    9
   22      0.205D-06      0.820D-08      -267.37590714    561.819145   -0.89454   -0.29693   -0.28920    9
   23      0.157D-06      0.442D-08      -267.37590714    561.819144   -0.89454   -0.29693   -0.28920    9
   24      0.807D-07      0.236D-08      -267.37590714    561.819144   -0.89454   -0.29693   -0.28920    9
   25      0.273D-07      0.906D-09      -267.37590714    561.819144   -0.89454   -0.29693   -0.28920    9
   26      0.341D-08      0.416D-09      -267.37590714    561.819144   -0.89454   -0.29693   -0.28920    9
   27      0.354D-08      0.190D-09      -267.37590714    561.819144   -0.89454   -0.29693   -0.28920    9
   28      0.518D-09      0.884D-10      -267.37590714    561.819144   -0.89454   -0.29693   -0.28920    9
   29      0.300D-09      0.446D-10      -267.37590714    561.819144   -0.89454   -0.29693   -0.28920    9
   30      0.126D-09      0.225D-10      -267.37590714    561.819144   -0.89454   -0.29693   -0.28920    9
   31      0.561D-10      0.198D-10      -267.37590714    561.819144   -0.89454   -0.29693   -0.28920    0

 Final alpha occupancy:  21
 Final beta  occupancy:  20

 !RHF STATE 1.1 Energy               -267.375907139577
 Nuclear energy                       186.64581962
 One-electron energy                 -734.93129871
 Two-electron energy                  280.90957195
 Virial quotient                       -1.00116684
 !RHF STATE 1.1 Dipole moment          -0.89453941    -0.29693181    -0.28920011
 Dipole moment /Debye                  -2.27354346    -0.75467595    -0.73502522

 Orbital energies:

         1.1          2.1          3.1          4.1          5.1          6.1          7.1          8.1          9.1         10.1
    -20.648673   -20.640396   -11.297486   -11.229098   -11.225426    -1.523555    -1.170864    -1.034596    -0.952827    -0.819349

        11.1         12.1         13.1         14.1         15.1         16.1         17.1         18.1         19.1         20.1
     -0.695362    -0.668047    -0.652582    -0.595115    -0.562839    -0.557680    -0.544518    -0.501346    -0.489683    -0.465174

        21.1         22.1         23.1
     -0.562920     0.137702     0.174768


 **********************************************************************************************************************************
 DATASETS  * FILE   NREC   LENGTH (MB)   RECORD NAMES
              1      18        5.04       500      610      700      900      950      970     1000      129      960     1100   
                                          VAR    BASINP    GEOM    SYMINP    ZMAT    AOBASIS   BASIS     P2S    ABASIS      S 
                                         1400     1410     1200     1210     1080     1600     1650     1700   
                                           T        V       H0       H01     AOSYM     SMH    MOLCAS    OPER   

              2       3        2.21       700     1000     2100   
                                         GEOM     BASIS     RHF  

 PROGRAMS   *        TOTAL       RHF       INT
 CPU TIMES  *        50.37     36.67     13.65
 REAL TIME  *        56.51 SEC
 DISK USED  *         8.87 GB      
 SF USED    *         0.25 MB      
 GA USED    *         0.01 MB       (max)       0.00 MB       (current)
 **********************************************************************************************************************************


1PROGRAM * CCSD (Unrestricted open-shell coupled cluster)     Authors: C. Hampel, H.-J. Werner, 1991, M. Deegan, P.J. Knowles, 1992


 Convergence thresholds:  THRVAR = 1.00D-08  THRDEN = 1.00D-10

 CCSD(T)     terms to be evaluated (factor= 1.000)


 Number of core orbitals:           5 (   5 )
 Number of closed-shell orbitals:  15 (  15 )
 Number of active  orbitals:        1 (   1 )
 Number of external orbitals:     227 ( 227 )

 Memory could be reduced to 332.02 Mwords without degradation in triples

 Number of N-1 electron functions:              31
 Number of N-2 electron functions:             465
 Number of singly external CSFs:              7068
 Number of doubly external CSFs:          18353430
 Total number of CSFs:                    18360498

 Molecular orbitals read from record     2100.2  Type=RHF/CANONICAL (state 1.1)

 Integral transformation finished. Total CPU:  26.90 sec, npass=  1  Memory used: 145.25 MW

 Starting RMP2 calculation

 ITER.      SQ.NORM     CORR.ENERGY   TOTAL ENERGY   ENERGY CHANGE        DEN1      VAR(S)    VAR(P)  DIIS     TIME
   1      1.26537600    -0.96762426  -268.34353140    -0.96762426    -0.00323673  0.26D-04  0.11D-02  1  1    31.39
   2      1.26816115    -0.97111419  -268.34702133    -0.00348993    -0.00000666  0.10D-05  0.23D-05  2  2    34.43
   3      1.26824106    -0.97116709  -268.34707423    -0.00005290    -0.00000008  0.54D-07  0.11D-07  3  3    37.62
   4      1.26824277    -0.97116690  -268.34707404     0.00000019    -0.00000000  0.16D-08  0.12D-09  4  4    40.97
   5      1.26824302    -0.97116699  -268.34707412    -0.00000009    -0.00000000  0.19D-10  0.46D-11  5  5    44.47
   6      1.26824308    -0.97116702  -268.34707416    -0.00000003    -0.00000000  0.50D-13  0.56D-13  6  6    48.15
   7      1.26824308    -0.97116702  -268.34707416     0.00000000    -0.00000000  0.15D-14  0.85D-15  6  1    51.88
   8      1.26824308    -0.97116702  -268.34707416     0.00000000    -0.00000000  0.16D-16  0.79D-17  6  2    55.26
   9      1.26824308    -0.97116702  -268.34707416    -0.00000000    -0.00000000  0.31D-18  0.10D-18  6  3    59.06

 Norm of t1 vector:      0.04588674      S-energy:    -0.00446707      T1 diagnostic:  0.00074387
 Norm of t2 vector:      0.51588515      P-energy:    -0.96669995
                                         Alpha-Beta:  -0.73709448
                                         Alpha-Alpha: -0.11899573
                                         Beta-Beta:   -0.11060975

 Spin contamination <S**2-Sz**2-Sz>     0.00145357
  Reference energy                   -267.375907139583
  RHF-RMP2 correlation energy          -0.971167017877
 !RHF-RMP2 energy                    -268.347074157460

 Starting UCCSD calculation

 ITER.      SQ.NORM     CORR.ENERGY   TOTAL ENERGY   ENERGY CHANGE        DEN1      VAR(S)    VAR(P)  DIIS     TIME
   1      1.27984743    -0.97928115  -268.35518829    -0.97928115    -0.02933360  0.65D-02  0.54D-02  1  1   141.63
   2      1.30625372    -1.00590700  -268.38181414    -0.02662585    -0.00363524  0.62D-03  0.97D-03  2  2   216.40
   3      1.32290407    -1.01273116  -268.38863830    -0.00682416    -0.00091214  0.75D-03  0.76D-04  3  3   291.34
   4      1.33414340    -1.01539047  -268.39129761    -0.00265931    -0.00038523  0.31D-03  0.33D-04  4  4   366.64
   5      1.34921956    -1.01738788  -268.39329502    -0.00199741    -0.00011796  0.10D-03  0.90D-05  5  5   441.94
   6      1.36075737    -1.01841122  -268.39431836    -0.00102334    -0.00001812  0.93D-05  0.32D-05  6  6   517.72
   7      1.36444720    -1.01865175  -268.39455889    -0.00024053    -0.00000316  0.16D-05  0.61D-06  6  1   593.46
   8      1.36505220    -1.01869392  -268.39460106    -0.00004217    -0.00000067  0.27D-06  0.15D-06  6  2   669.52
   9      1.36537308    -1.01871237  -268.39461951    -0.00001845    -0.00000015  0.66D-07  0.32D-07  6  4   745.08
  10      1.36535957    -1.01871110  -268.39461824     0.00000127    -0.00000002  0.10D-07  0.43D-08  6  3   820.86
  11      1.36542213    -1.01871620  -268.39462334    -0.00000510    -0.00000000  0.23D-08  0.93D-09  6  5   896.52
  12      1.36541457    -1.01871371  -268.39462085     0.00000249    -0.00000000  0.90D-09  0.21D-09  6  6   972.34
  13      1.36541012    -1.01871256  -268.39461970     0.00000115    -0.00000000  0.50D-09  0.51D-10  6  1  1048.19
  14      1.36539756    -1.01871110  -268.39461824     0.00000146    -0.00000000  0.31D-09  0.17D-10  6  2  1123.90
  15      1.36539206    -1.01871044  -268.39461758     0.00000066    -0.00000000  0.25D-09  0.12D-10  6  3  1199.64
  16      1.36538941    -1.01871029  -268.39461743     0.00000015    -0.00000000  0.19D-09  0.97D-11  6  4  1275.08
  17      1.36538861    -1.01871027  -268.39461741     0.00000002    -0.00000000  0.11D-09  0.98D-11  6  5  1350.76
  18      1.36539054    -1.01871040  -268.39461754    -0.00000013    -0.00000000  0.26D-10  0.46D-11  6  6  1426.41
  19      1.36539340    -1.01871069  -268.39461783    -0.00000029    -0.00000000  0.25D-11  0.15D-11  6  2  1501.96
  20      1.36539283    -1.01871056  -268.39461770     0.00000013    -0.00000000  0.58D-12  0.17D-12  6  1  1577.55
  21      1.36539314    -1.01871060  -268.39461774    -0.00000004    -0.00000000  0.19D-12  0.54D-13  6  4  1653.11
  22      1.36539302    -1.01871058  -268.39461772     0.00000002    -0.00000000  0.63D-13  0.18D-13  6  2  1728.91
  23      1.36539307    -1.01871059  -268.39461773    -0.00000001    -0.00000000  0.18D-13  0.35D-14  6  3  1804.40
  24      1.36539299    -1.01871058  -268.39461772     0.00000001    -0.00000000  0.20D-14  0.70D-15  6  5  1880.25
  25      1.36539298    -1.01871058  -268.39461772     0.00000000    -0.00000000  0.67D-15  0.19D-15  6  6  1955.83
  26      1.36539298    -1.01871058  -268.39461772     0.00000000    -0.00000000  0.36D-15  0.68D-16  6  1  2031.48
  27      1.36539298    -1.01871058  -268.39461772    -0.00000000    -0.00000000  0.23D-15  0.18D-16  6  4  2107.15
  28      1.36539299    -1.01871058  -268.39461772    -0.00000000    -0.00000000  0.17D-15  0.92D-17  6  2  2182.98
  29      1.36539299    -1.01871058  -268.39461772    -0.00000000    -0.00000000  0.12D-15  0.69D-17  6  3  2258.45
  30      1.36539299    -1.01871058  -268.39461772     0.00000000    -0.00000000  0.64D-16  0.65D-17  6  5  2334.04
  31      1.36539298    -1.01871058  -268.39461772     0.00000000    -0.00000000  0.21D-16  0.33D-17  6  6  2409.62
  32      1.36539298    -1.01871058  -268.39461772     0.00000000    -0.00000000  0.48D-17  0.15D-17  6  3  2485.01

 Norm of t1 vector:      0.23122081      S-energy:    -0.00501436      T1 diagnostic:  0.02849242
                                                                       D1 diagnostic:  0.14600912
 Norm of t2 vector:      0.55850687      P-energy:    -1.01369623
                                         Alpha-Beta:  -0.80138834
                                         Alpha-Alpha: -0.10868852
                                         Beta-Beta:   -0.10361936

 Singles amplitudes (print threshold =  0.500E-01):

         I         SYM. A    A   T(IA) [Beta-Beta]

         8         1         1     -0.09550652
         9         1         1      0.10028026
        11         1         1     -0.05415631
        12         1         1     -0.07396221
        14         1         1     -0.11162055

 Spin contamination <S**2-Sz**2-Sz>     0.00176098

 Memory could be reduced to 360.52 Mwords without degradation in triples
 

 RESULTS
 =======

  Reference energy                   -267.375907139583
  UCCSD singles energy                 -0.005014357117
  UCCSD pair energy                    -1.013696225244
  UCCSD correlation energy             -1.018710582361
  Triples (T) contribution             -0.040838614223
  Total correlation energy             -1.059549196584
 
  RHF-UCCSD energy                   -268.394617721944
  RHF-UCCSD[T] energy                -268.438778816311
  RHF-UCCSD-T energy                 -268.434958407652
 !RHF-UCCSD(T) energy                -268.435456336167

 Program statistics:

 Available memory in ccsd:               999997692
 Min. memory needed in ccsd:              51505734
 Max. memory used in ccsd:                74803578
 Max. memory used in cckext:              59475747 (32 integral passes)
 Max. memory used in cckint:             145249478 ( 1 integral passes)



 **********************************************************************************************************************************
 DATASETS  * FILE   NREC   LENGTH (MB)   RECORD NAMES
              1      18        5.04       500      610      700      900      950      970     1000      129      960     1100   
                                          VAR    BASINP    GEOM    SYMINP    ZMAT    AOBASIS   BASIS     P2S    ABASIS      S 
                                         1400     1410     1200     1210     1080     1600     1650     1700   
                                           T        V       H0       H01     AOSYM     SMH    MOLCAS    OPER   

              2       3        2.21       700     1000     2100   
                                         GEOM     BASIS     RHF  

 PROGRAMS   *        TOTAL  UCCSD(T)       RHF       INT
 CPU TIMES  *      3930.26   3879.89     36.67     13.65
 REAL TIME  *      4020.72 SEC
 DISK USED  *        15.85 GB      
 SF USED    *         6.57 GB      
 GA USED    *         0.01 MB       (max)       0.00 MB       (current)
 **********************************************************************************************************************************

        UCCSD(T)        RHF-SCF 
   -268.43545634   -267.37590714
 **********************************************************************************************************************************
 Variable memory released
