
 Primary working directories    : /tmp/601555.75.gen4.q
 Secondary working directories  : /tmp/601555.75.gen4.q
 Wavefunction directory         : /home/vulcan/mel64643/wfu/
 Main file repository           : /tmp/601555.75.gen4.q/

 ARCHNAME  : Linux/x86_64
 FC        : /opt/intel/compilers_and_libraries_2016.1.150/linux/bin/intel64/ifort
 FCVERSION : 16.0.1
 BLASLIB   : -mkl
 id        : ccgc

 Nodes     nprocs
 n054         1
 ga_uses_ma=false, calling ma_init with nominal heap.
 GA-space will be limited to   8.0 MW (determined by -G option)

 Using customized tuning parameters: mindgm=10; mindgv=16; mindgc=4; mindgr=1; noblas=0; mincuda=1000; minvec=7
 default implementation of scratch files=df  

 ***,Optimization of min3
 memory,1000,m
 gthresh,energy=1.0d-12,orbital=1.0d-10,oneint=1.0d-16,twoint=1.0d-16,optgrad=1.0d-6,compress=1.0d-13
 geomtyp=xyz
 
  bohr
  geometry = {
  6
  arbitrary comment
  C   -1.3750747687   -0.0242764778   -0.0026866636
  O    1.3060145228    0.1206928831   -0.0044925120
  H   -2.0778690694    1.9096154482   -0.0024906080
  H   -2.1099534353   -0.9841981162    1.6850220020
  H   -2.1080131323   -0.9744829952   -1.6788501286
  H    1.9411717230   -1.5774828621    0.0034895002
 }
 
 basis=cc-pvdz
 {rhf;maxit,200}
 {ccsd(t);maxit,200}

 Variables initialized (661), CPU time= 0.00 sec
 Commands  initialized (458), CPU time= 0.00 sec, 486 directives.
 Default parameters read. Elapsed time= 0.05 sec

 Checking input...
 Passed
1


                                         ***  PROGRAM SYSTEM MOLPRO  ***
                         Copyright, University College Cardiff Consultants Limited, 2008

                                    Version 2010.1 linked May 16 2016 07:17:05


 **********************************************************************************************************************************
 LABEL *   Optimization of min3                                                          
 Linux-4.4.3/n054(x86_64) 64 bit mpp version                                             DATE: 06-Nov-21          TIME: 15:39:31  
 **********************************************************************************************************************************

 SHA1:             9e8077add272b0f3cad6f7df79ec5211205f459d
 **********************************************************************************************************************************

 THRESHOLDS:

 ZERO    =  1.00D-12  ONEINT  =  1.00D-16  TWOINT  =  1.00D-16  PREFAC  =  1.00D-14  LOCALI  =  1.00D-09  EORDER  =  1.00D-04
 ENERGY  =  1.00D-12  ETEST   =  0.00D+00  EDENS   =  0.00D+00  THRDEDEF=  1.00D-06  GRADIENT=  1.00D-02  STEP    =  1.00D-03
 ORBITAL =  1.00D-10  CIVEC   =  1.00D-05  COEFF   =  1.00D-04  PRINTCI =  5.00D-02  PUNCHCI =  9.90D+01  OPTGRAD =  1.00D-06
 OPTENERG=  1.00D-06  OPTSTEP =  3.00D-04  THRGRAD =  1.00D-10  COMPRESS=  1.00D-13  VARMIN  =  1.00D-07  VARMAX  =  1.00D-03
 THRDOUB =  0.00D+00  THRDIV  =  1.00D-05  THRRED  =  1.00D-07  THRPSP  =  1.00D+00  THRDC   =  1.00D-10  THRCS   =  1.00D-10
 THRNRM  =  1.00D-08  THREQ   =  0.00D+00  THRDE   =  1.00D+00  THRREF  =  1.00D-05  SPARFAC =  1.00D+00  THRDLP  =  1.00D-07
 THRDIA  =  1.00D-10  THRDLS  =  1.00D-07  THRGPS  =  0.00D+00  THRKEX  =  0.00D+00  THRDIS  =  2.00D-01  THRVAR  =  1.00D-10
 THRLOC  =  1.00D-06  THRGAP  =  1.00D-06  THRLOCT = -1.00D+00  THRGAPT = -1.00D+00  THRORB  =  1.00D-06  THRMLTP =  0.00D+00
 THRCPQCI=  1.00D-10  KEXTA   =  0.00D+00  THRCOARS=  0.00D+00  SYMTOL  =  1.00D-06  GRADTOL =  1.00D-06  THROVL  =  1.00D-08
 THRORTH =  1.00D-08  GRID    =  1.00D-06  GRIDMAX =  1.00D-03  DTMAX   =  0.00D+00

 SETTING GEOMTYP        =    XYZ
 ZUNIT=BOHR
 

 Variable memory set to 1000000000 words,  buffer space   230000 words

 SETTING BASIS          =    CC-PVDZ


 Recomputing integrals since basis changed


 Using spherical harmonics

 Library entry C      S cc-pVDZ              selected for orbital group  1
 Library entry C      P cc-pVDZ              selected for orbital group  1
 Library entry C      D cc-pVDZ              selected for orbital group  1
 Library entry O      S cc-pVDZ              selected for orbital group  2
 Library entry O      P cc-pVDZ              selected for orbital group  2
 Library entry O      D cc-pVDZ              selected for orbital group  2
 Library entry H      S cc-pVDZ              selected for orbital group  3
 Library entry H      P cc-pVDZ              selected for orbital group  3

1PROGRAM * SEWARD (Integral evaluation for generally contracted gaussian basis sets)     Author: Roland Lindh, 1990

 Geometry written to block  1 of record 700


 Point group  C1  



 ATOMIC COORDINATES

 NR  ATOM    CHARGE       X              Y              Z

   1  C       6.00   -1.375074769   -0.024276478   -0.002686664
   2  O       8.00    1.306014523    0.120692883   -0.004492512
   3  H       1.00   -2.077869069    1.909615448   -0.002490608
   4  H       1.00   -2.109953435   -0.984198116    1.685022002
   5  H       1.00   -2.108013132   -0.974482995   -1.678850129
   6  H       1.00    1.941171723   -1.577482862    0.003489500

 Bond lengths in Bohr (Angstrom)

 1-2  2.685006362  1-3  2.057634042  1-4  2.076019448  1-5  2.061459442  2-6  1.813088316
     ( 1.420844173)     ( 1.088853039)     ( 1.098582177)     ( 1.090877354)     ( 0.959445015)

 Bond angles

  1-2-6  107.41157909   2-1-3  106.87658481   2-1-4  112.27051851   2-1-5  112.29435289

  3-1-4  108.27608943   3-1-5  108.17128438   4-1-5  108.78519537

 NUCLEAR CHARGE:                   18
 NUMBER OF PRIMITIVE AOS:          82
 NUMBER OF SYMMETRY AOS:           80
 NUMBER OF CONTRACTIONS:           48   (  48A   )
 NUMBER OF CORE ORBITALS:           2   (   2A   )
 NUMBER OF VALENCE ORBITALS:       12   (  12A   )


 NUCLEAR REPULSION ENERGY   40.30782703


 Eigenvalues of metric

         1 0.966E-02 0.176E-01 0.367E-01 0.375E-01 0.381E-01 0.472E-01 0.480E-01 0.517E-01


 Contracted 2-electron integrals neglected if value below      1.0D-16
 AO integral compression algorithm  1   Integral accuracy      1.0D-16

     6.816 MB (compressed) written to integral file (100.0%)

     Node minimum: 6.816 MB, node maximum: 6.816 MB


 NUMBER OF SORTED TWO-ELECTRON INTEGRALS:     692076.     BUFFER LENGTH:  32768
 NUMBER OF SEGMENTS:   1  SEGMENT LENGTH:     692076      RECORD LENGTH: 524288

 Memory used in sort:       1.25 MW

 SORT1 READ      832256. AND WROTE      682150. INTEGRALS IN      2 RECORDS. CPU TIME:     0.01 SEC, REAL TIME:     0.01 SEC
 SORT2 READ      682150. AND WROTE      692076. INTEGRALS IN     26 RECORDS. CPU TIME:     0.01 SEC, REAL TIME:     0.02 SEC

 FILE SIZES:   FILE 1:     8.4 MBYTE,  FILE 4:     8.4 MBYTE,   TOTAL:     16.8 MBYTE

 OPERATOR DM      FOR CENTER  0  COORDINATES:    0.000000    0.000000    0.000000


 **********************************************************************************************************************************
 DATASETS  * FILE   NREC   LENGTH (MB)   RECORD NAMES
              1      19        8.41       500      610      700      900      950      970     1000      129      960     1100   
                                          VAR    BASINP    GEOM    SYMINP    ZMAT    AOBASIS   BASIS     P2S    ABASIS      S 
                                         1400     1410     1200     1210     1080     1600     1650     1300     1700   
                                           T        V       H0       H01     AOSYM     SMH    MOLCAS    ERIS     OPER   

 PROGRAMS   *        TOTAL       INT
 CPU TIMES  *         0.21      0.17
 REAL TIME  *         0.41 SEC
 DISK USED  *        24.25 MB      
 GA USED    *         0.00 MB       (max)       0.00 MB       (current)
 **********************************************************************************************************************************

1PROGRAM * RHF-SCF (CLOSED SHELL)       Authors: W. Meyer, H.-J. Werner


 NUMBER OF ELECTRONS:       9+    9-    SPACE SYMMETRY=1    SPIN SYMMETRY: Singlet 
 CONVERGENCE THRESHOLDS:    1.00E-10 (Density)    1.00E-13 (Energy)
 MAX. NUMBER OF ITERATIONS:      200
 INTERPOLATION TYPE:            DIIS
 INTERPOLATION STEPS:              2 (START)      1 (STEP)
 LEVEL SHIFTS:                  0.00 (CLOSED)  0.00 (OPEN) 



 Orbital guess generated from atomic densities. Full valence occupancy:   14

 Molecular orbital dump at record        2100.2

 ITERATION    DDIFF          GRAD             ENERGY        2-EL.EN.            DIPOLE MOMENTS         DIIS
    1      0.000D+00      0.000D+00      -115.01421683    164.388085   -0.49497   -0.90067    0.00570    0
    2      0.000D+00      0.110D-01      -115.04257505    162.169782   -0.31638   -0.53561    0.00106    1
    3      0.205D-01      0.530D-02      -115.04860623    163.194363   -0.40009   -0.61076    0.00111    2
    4      0.639D-02      0.112D-02      -115.04906981    163.038251   -0.38995   -0.59965    0.00065    3
    5      0.204D-02      0.202D-03      -115.04909081    163.044660   -0.39278   -0.59536    0.00049    4
    6      0.433D-03      0.354D-04      -115.04909161    163.044814   -0.39308   -0.59516    0.00045    5
    7      0.930D-04      0.736D-05      -115.04909164    163.043625   -0.39322   -0.59499    0.00045    6
    8      0.150D-04      0.237D-05      -115.04909164    163.044007   -0.39325   -0.59496    0.00045    7
    9      0.504D-05      0.490D-06      -115.04909164    163.043966   -0.39327   -0.59496    0.00044    6
   10      0.141D-05      0.872D-07      -115.04909164    163.043965   -0.39327   -0.59496    0.00045    6
   11      0.234D-06      0.326D-07      -115.04909164    163.043970   -0.39327   -0.59496    0.00045    6
   12      0.590D-07      0.136D-07      -115.04909164    163.043968   -0.39327   -0.59496    0.00045    7
   13      0.253D-07      0.304D-08      -115.04909164    163.043969   -0.39327   -0.59496    0.00045    7
   14      0.757D-08      0.658D-09      -115.04909164    163.043969   -0.39327   -0.59496    0.00045    7
   15      0.168D-08      0.155D-09      -115.04909164    163.043969   -0.39327   -0.59496    0.00045    7
   16      0.344D-09      0.472D-10      -115.04909164    163.043969   -0.39327   -0.59496    0.00045    7
   17      0.913D-10      0.160D-10      -115.04909164    163.043969   -0.39327   -0.59496    0.00045    0

 Final occupancy:   9

 !RHF STATE 1.1 Energy               -115.049091640388
 Nuclear energy                        40.30782703
 One-electron energy                 -236.87890296
 Two-electron energy                   81.52198429
 Virial quotient                       -1.00092492
 !RHF STATE 1.1 Dipole moment          -0.39327012    -0.59496313     0.00044511
 Dipole moment /Debye                  -0.99952748    -1.51214640     0.00113129

 Orbital energies:

         1.1          2.1          3.1          4.1          5.1          6.1          7.1          8.1          9.1         10.1
    -20.549944   -11.274705    -1.349890    -0.921312    -0.682808    -0.613705    -0.584897    -0.497095    -0.443111     0.184566

        11.1
      0.224403


 **********************************************************************************************************************************
 DATASETS  * FILE   NREC   LENGTH (MB)   RECORD NAMES
              1      19        8.41       500      610      700      900      950      970     1000      129      960     1100   
                                          VAR    BASINP    GEOM    SYMINP    ZMAT    AOBASIS   BASIS     P2S    ABASIS      S 
                                         1400     1410     1200     1210     1080     1600     1650     1300     1700   
                                           T        V       H0       H01     AOSYM     SMH    MOLCAS    ERIS     OPER   

              2       3        0.39       700     1000     2100   
                                         GEOM     BASIS     RHF  

 PROGRAMS   *        TOTAL       RHF       INT
 CPU TIMES  *         0.29      0.08      0.17
 REAL TIME  *         0.52 SEC
 DISK USED  *        24.25 MB      
 GA USED    *         0.00 MB       (max)       0.00 MB       (current)
 **********************************************************************************************************************************


1PROGRAM * CCSD (Closed-shell coupled cluster)     Authors: C. Hampel, H.-J. Werner, 1991, M. Deegan, P.J. Knowles, 1992


 Convergence thresholds:  THRVAR = 1.00D-08  THRDEN = 1.00D-12

 CCSD(T)     terms to be evaluated (factor= 1.000)


 Number of core orbitals:           2 (   2 )
 Number of closed-shell orbitals:   7 (   7 )
 Number of external orbitals:      39 (  39 )

 Molecular orbitals read from record     2100.2  Type=RHF/CANONICAL (state 1.1)

 Number of N-1 electron functions:               7
 Number of N-2 electron functions:              28
 Number of singly external CSFs:               273
 Number of doubly external CSFs:             37401
 Total number of CSFs:                       37675

 Length of J-op  integral file:               0.00 MB
 Length of K-op  integral file:               0.19 MB
 Length of 3-ext integral record:             0.00 MB

 Memory could be reduced to 0.96 Mwords without degradation in triples

 Integral transformation finished. Total CPU:   0.02 sec, npass=  1  Memory used:   0.66 MW

 Reference energy:                   -115.04909164

 MP2 singlet pair energy:              -0.21864869
 MP2 triplet pair energy:              -0.11983696
 MP2 correlation energy:               -0.33848566
 MP2 total energy:                   -115.38757730

 SCS-MP2 correlation energy:           -0.33694365   (PS=  1.200000  PT=  0.333333)
 SCS-MP2 total energy:               -115.38603529

 ITER.      SQ.NORM     CORR.ENERGY   TOTAL ENERGY   ENERGY CHANGE        DEN1      VAR(S)    VAR(P)  DIIS     TIME
   1      1.10733710    -0.36128507  -115.41037671    -0.02279941    -0.01411778  0.91D-03  0.17D-02  1  1     0.06
   2      1.11586488    -0.36323052  -115.41232216    -0.00194545    -0.00925143  0.20D-04  0.16D-03  2  2     0.09
   3      1.11774771    -0.36335795  -115.41244959    -0.00012743    -0.00120483  0.95D-05  0.86D-05  3  3     0.13
   4      1.11826339    -0.36335660  -115.41244824     0.00000135    -0.00025512  0.34D-06  0.68D-06  4  4     0.17
   5      1.11836170    -0.36335700  -115.41244864    -0.00000041    -0.00003610  0.10D-06  0.49D-07  5  5     0.21
   6      1.11838081    -0.36335565  -115.41244729     0.00000136    -0.00000437  0.16D-07  0.41D-08  6  6     0.25
   7      1.11838558    -0.36335523  -115.41244687     0.00000042    -0.00000035  0.20D-08  0.72D-09  6  1     0.28
   8      1.11838685    -0.36335533  -115.41244697    -0.00000010     0.00000075  0.26D-09  0.72D-10  6  3     0.32
   9      1.11838792    -0.36335520  -115.41244684     0.00000012    -0.00000038  0.13D-10  0.10D-10  6  2     0.36
  10      1.11838785    -0.36335521  -115.41244685    -0.00000000     0.00000007  0.11D-11  0.88D-12  6  5     0.40
  11      1.11838788    -0.36335520  -115.41244684     0.00000000    -0.00000000  0.19D-12  0.51D-13  6  4     0.44
  12      1.11838786    -0.36335521  -115.41244685    -0.00000000     0.00000001  0.19D-13  0.10D-13  6  1     0.47
  13      1.11838786    -0.36335521  -115.41244685    -0.00000000    -0.00000000  0.25D-14  0.96D-15  6  6     0.51
  14      1.11838787    -0.36335521  -115.41244685     0.00000000    -0.00000000  0.26D-15  0.13D-15  6  3     0.55
  15      1.11838787    -0.36335521  -115.41244685    -0.00000000    -0.00000000  0.37D-16  0.18D-16  6  2     0.59
  16      1.11838787    -0.36335521  -115.41244685    -0.00000000    -0.00000000  0.86D-17  0.20D-17  6  5     0.63
  17      1.11838787    -0.36335521  -115.41244685    -0.00000000    -0.00000000  0.12D-17  0.35D-18  6  4     0.66
  18      1.11838787    -0.36335521  -115.41244685     0.00000000    -0.00000000  0.22D-18  0.73D-19  6  1     0.70
  19      1.11838787    -0.36335521  -115.41244685    -0.00000000    -0.00000000  0.37D-19  0.83D-20  6  6     0.74
  20      1.11838787    -0.36335521  -115.41244685     0.00000000     0.00000000  0.63D-20  0.17D-20  6  3     0.78

 Norm of t1 vector:      0.04167248      S-energy:    -0.00000000      T1 diagnostic:  0.00787536
                                                                       D1 diagnostic:  0.01751976


 Total CPU time for triples:      0.20 sec


 RESULTS
 =======

  Reference energy                   -115.049091640388
  CCSD singlet pair energy             -0.254604517764
  CCSD triplet pair energy             -0.108750688462
  CCSD correlation energy              -0.363355206227

  Triples (T) contribution             -0.007738692366
  Total correlation energy             -0.371093898593

  CCSD total energy                  -115.412446846615
  CCSD[T] energy                     -115.420475630184
  CCSD-T energy                      -115.420035521788
 !CCSD(T) total energy               -115.420185538981

 Timing summary (sec):

 STEP                 CPU(USER)    SYS     CPU(TOT)    WALL
 Transformation          0.02      0.00      0.02      0.03
 CCSD iterations         0.77      0.05      0.82      0.83
 Triples                 0.20      0.00      0.20      0.21

 Program statistics:

 Available memory in ccsd:               999999704
 Min. memory needed in ccsd:                136801
 Max. memory used in ccsd:                  163198
 Max. memory used in cckext:                182024 (20 integral passes)



 **********************************************************************************************************************************
 DATASETS  * FILE   NREC   LENGTH (MB)   RECORD NAMES
              1      20       10.95       500      610      700      900      950      970     1000      129      960     1100   
                                          VAR    BASINP    GEOM    SYMINP    ZMAT    AOBASIS   BASIS     P2S    ABASIS      S 
                                         1400     1410     1200     1210     1080     1600     1650     1300     1700     1380   
                                           T        V       H0       H01     AOSYM     SMH    MOLCAS    ERIS     OPER     JKOP   

              2       3        0.39       700     1000     2100   
                                         GEOM     BASIS     RHF  

 PROGRAMS   *        TOTAL   CCSD(T)       RHF       INT
 CPU TIMES  *         1.28      0.99      0.08      0.17
 REAL TIME  *         1.61 SEC
 DISK USED  *        25.67 MB      
 GA USED    *         0.00 MB       (max)       0.00 MB       (current)
 **********************************************************************************************************************************

        CCSD(T)         RHF-SCF 
   -115.42018554   -115.04909164
 **********************************************************************************************************************************
 Variable memory released
