
 Primary working directories    : /tmp/795519.75.gen4.q
 Secondary working directories  : /tmp/795519.75.gen4.q
 Wavefunction directory         : /home/vulcan/mel64643/wfu/
 Main file repository           : /tmp/795519.75.gen4.q/

 ARCHNAME  : Linux/x86_64
 FC        : /opt/intel/compilers_and_libraries_2016.1.150/linux/bin/intel64/ifort
 FCVERSION : 16.0.1
 BLASLIB   : -mkl
 id        : ccgc

 Nodes     nprocs
 n051         1
 ga_uses_ma=false, calling ma_init with nominal heap.
 GA-space will be limited to   8.0 MW (determined by -G option)

 Using customized tuning parameters: mindgm=10; mindgv=16; mindgc=4; mindgr=1; noblas=0; mincuda=1000; minvec=7
 default implementation of scratch files=df  

 ***,Optimization of min3
 memory,1000,m
 gthresh,energy=1.0d-12,orbital=1.0d-10,oneint=1.0d-16,twoint=1.0d-16,optgrad=1.0d-6,compress=1.0d-13
 geomtyp=xyz
 
  bohr
  geometry = {
  6
  arbitrary comment
  C   -1.3750760331   -0.0242758789    0.0004154553
  O    1.3060102023    0.1206933004   -0.0040677494
  H   -2.0778667063    1.9096084754    0.0063844249
  H   -2.1092426850   -0.9754823581    1.6790215902
  H   -2.1087235665   -0.9831922129   -1.6848533745
  H    1.9411746286   -1.5774834459    0.0030912434
 }
 
 basis=cc-pvdz
 {rhf;maxit,200}
 {ccsd(t);maxit,200}

 Variables initialized (661), CPU time= 0.01 sec
 Commands  initialized (458), CPU time= 0.00 sec, 486 directives.
 Default parameters read. Elapsed time= 0.04 sec

 Checking input...
 Passed
1


                                         ***  PROGRAM SYSTEM MOLPRO  ***
                         Copyright, University College Cardiff Consultants Limited, 2008

                                    Version 2010.1 linked May 16 2016 07:17:05


 **********************************************************************************************************************************
 LABEL *   Optimization of min3                                                          
 Linux-4.4.3/n051(x86_64) 64 bit mpp version                                             DATE: 24-Oct-22          TIME: 15:42:22  
 **********************************************************************************************************************************

 SHA1:             9e8077add272b0f3cad6f7df79ec5211205f459d
 **********************************************************************************************************************************

 THRESHOLDS:

 ZERO    =  1.00D-12  ONEINT  =  1.00D-16  TWOINT  =  1.00D-16  PREFAC  =  1.00D-14  LOCALI  =  1.00D-09  EORDER  =  1.00D-04
 ENERGY  =  1.00D-12  ETEST   =  0.00D+00  EDENS   =  0.00D+00  THRDEDEF=  1.00D-06  GRADIENT=  1.00D-02  STEP    =  1.00D-03
 ORBITAL =  1.00D-10  CIVEC   =  1.00D-05  COEFF   =  1.00D-04  PRINTCI =  5.00D-02  PUNCHCI =  9.90D+01  OPTGRAD =  1.00D-06
 OPTENERG=  1.00D-06  OPTSTEP =  3.00D-04  THRGRAD =  1.00D-10  COMPRESS=  1.00D-13  VARMIN  =  1.00D-07  VARMAX  =  1.00D-03
 THRDOUB =  0.00D+00  THRDIV  =  1.00D-05  THRRED  =  1.00D-07  THRPSP  =  1.00D+00  THRDC   =  1.00D-10  THRCS   =  1.00D-10
 THRNRM  =  1.00D-08  THREQ   =  0.00D+00  THRDE   =  1.00D+00  THRREF  =  1.00D-05  SPARFAC =  1.00D+00  THRDLP  =  1.00D-07
 THRDIA  =  1.00D-10  THRDLS  =  1.00D-07  THRGPS  =  0.00D+00  THRKEX  =  0.00D+00  THRDIS  =  2.00D-01  THRVAR  =  1.00D-10
 THRLOC  =  1.00D-06  THRGAP  =  1.00D-06  THRLOCT = -1.00D+00  THRGAPT = -1.00D+00  THRORB  =  1.00D-06  THRMLTP =  0.00D+00
 THRCPQCI=  1.00D-10  KEXTA   =  0.00D+00  THRCOARS=  0.00D+00  SYMTOL  =  1.00D-06  GRADTOL =  1.00D-06  THROVL  =  1.00D-08
 THRORTH =  1.00D-08  GRID    =  1.00D-06  GRIDMAX =  1.00D-03  DTMAX   =  0.00D+00

 SETTING GEOMTYP        =    XYZ
 ZUNIT=BOHR
 

 Variable memory set to 1000000000 words,  buffer space   230000 words

 SETTING BASIS          =    CC-PVDZ


 Recomputing integrals since basis changed


 Using spherical harmonics

 Library entry C      S cc-pVDZ              selected for orbital group  1
 Library entry C      P cc-pVDZ              selected for orbital group  1
 Library entry C      D cc-pVDZ              selected for orbital group  1
 Library entry O      S cc-pVDZ              selected for orbital group  2
 Library entry O      P cc-pVDZ              selected for orbital group  2
 Library entry O      D cc-pVDZ              selected for orbital group  2
 Library entry H      S cc-pVDZ              selected for orbital group  3
 Library entry H      P cc-pVDZ              selected for orbital group  3

1PROGRAM * SEWARD (Integral evaluation for generally contracted gaussian basis sets)     Author: Roland Lindh, 1990

 Geometry written to block  1 of record 700


 Point group  C1  



 ATOMIC COORDINATES

 NR  ATOM    CHARGE       X              Y              Z

   1  C       6.00   -1.375076033   -0.024275879    0.000415455
   2  O       8.00    1.306010202    0.120693300   -0.004067749
   3  H       1.00   -2.077866706    1.909608475    0.006384425
   4  H       1.00   -2.109242685   -0.975482358    1.679021590
   5  H       1.00   -2.108723567   -0.983192213   -1.684853375
   6  H       1.00    1.941174629   -1.577483446    0.003091243

 Bond lengths in Bohr (Angstrom)

 1-2  2.685006436  1-3  2.057634335  1-4  2.064343236  1-5  2.073135371  2-6  1.813088349
     ( 1.420844212)     ( 1.088853194)     ( 1.092403392)     ( 1.097055990)     ( 0.959445032)

 Bond angles

  1-2-6  107.41157723   2-1-3  106.87675505   2-1-4  112.41786731   2-1-5  112.14691522

  3-1-4  108.01330536   3-1-5  108.43412691   4-1-5  108.78539218

 NUCLEAR CHARGE:                   18
 NUMBER OF PRIMITIVE AOS:          82
 NUMBER OF SYMMETRY AOS:           80
 NUMBER OF CONTRACTIONS:           48   (  48A   )
 NUMBER OF CORE ORBITALS:           2   (   2A   )
 NUMBER OF VALENCE ORBITALS:       12   (  12A   )


 NUCLEAR REPULSION ENERGY   40.30778106


 Eigenvalues of metric

         1 0.966E-02 0.176E-01 0.368E-01 0.375E-01 0.381E-01 0.473E-01 0.479E-01 0.517E-01


 Contracted 2-electron integrals neglected if value below      1.0D-16
 AO integral compression algorithm  1   Integral accuracy      1.0D-16

     7.078 MB (compressed) written to integral file (100.0%)

     Node minimum: 7.078 MB, node maximum: 7.078 MB


 NUMBER OF SORTED TWO-ELECTRON INTEGRALS:     692076.     BUFFER LENGTH:  32768
 NUMBER OF SEGMENTS:   1  SEGMENT LENGTH:     692076      RECORD LENGTH: 524288

 Memory used in sort:       1.25 MW

 SORT1 READ      832256. AND WROTE      682150. INTEGRALS IN      2 RECORDS. CPU TIME:     0.01 SEC, REAL TIME:     0.01 SEC
 SORT2 READ      682150. AND WROTE      692076. INTEGRALS IN     27 RECORDS. CPU TIME:     0.01 SEC, REAL TIME:     0.02 SEC

 FILE SIZES:   FILE 1:     8.4 MBYTE,  FILE 4:     8.4 MBYTE,   TOTAL:     16.8 MBYTE

 OPERATOR DM      FOR CENTER  0  COORDINATES:    0.000000    0.000000    0.000000


 **********************************************************************************************************************************
 DATASETS  * FILE   NREC   LENGTH (MB)   RECORD NAMES
              1      19        8.44       500      610      700      900      950      970     1000      129      960     1100   
                                          VAR    BASINP    GEOM    SYMINP    ZMAT    AOBASIS   BASIS     P2S    ABASIS      S 
                                         1400     1410     1200     1210     1080     1600     1650     1300     1700   
                                           T        V       H0       H01     AOSYM     SMH    MOLCAS    ERIS     OPER   

 PROGRAMS   *        TOTAL       INT
 CPU TIMES  *         0.23      0.18
 REAL TIME  *         1.68 SEC
 DISK USED  *        24.53 MB      
 GA USED    *         0.00 MB       (max)       0.00 MB       (current)
 **********************************************************************************************************************************

1PROGRAM * RHF-SCF (CLOSED SHELL)       Authors: W. Meyer, H.-J. Werner


 NUMBER OF ELECTRONS:       9+    9-    SPACE SYMMETRY=1    SPIN SYMMETRY: Singlet 
 CONVERGENCE THRESHOLDS:    1.00E-10 (Density)    1.00E-13 (Energy)
 MAX. NUMBER OF ITERATIONS:      200
 INTERPOLATION TYPE:            DIIS
 INTERPOLATION STEPS:              2 (START)      1 (STEP)
 LEVEL SHIFTS:                  0.00 (CLOSED)  0.00 (OPEN) 



 Orbital guess generated from atomic densities. Full valence occupancy:   14

 Molecular orbital dump at record        2100.2

 ITERATION    DDIFF          GRAD             ENERGY        2-EL.EN.            DIPOLE MOMENTS         DIIS
    1      0.000D+00      0.000D+00      -115.01422623    164.388008   -0.49496   -0.90067    0.00564    0
    2      0.000D+00      0.110D-01      -115.04258396    162.169755   -0.31637   -0.53561    0.00484    1
    3      0.205D-01      0.530D-02      -115.04861518    163.194324   -0.40008   -0.61077    0.00556    2
    4      0.639D-02      0.112D-02      -115.04907875    163.038215   -0.38995   -0.59966    0.00570    3
    5      0.204D-02      0.202D-03      -115.04909975    163.044627   -0.39278   -0.59537    0.00577    4
    6      0.433D-03      0.354D-04      -115.04910054    163.044780   -0.39308   -0.59517    0.00579    5
    7      0.930D-04      0.736D-05      -115.04910057    163.043591   -0.39322   -0.59500    0.00579    6
    8      0.150D-04      0.237D-05      -115.04910058    163.043973   -0.39325   -0.59497    0.00579    7
    9      0.504D-05      0.490D-06      -115.04910058    163.043932   -0.39327   -0.59497    0.00579    6
   10      0.141D-05      0.871D-07      -115.04910058    163.043931   -0.39327   -0.59497    0.00579    6
   11      0.234D-06      0.325D-07      -115.04910058    163.043936   -0.39327   -0.59497    0.00579    6
   12      0.589D-07      0.135D-07      -115.04910058    163.043934   -0.39327   -0.59497    0.00579    7
   13      0.252D-07      0.303D-08      -115.04910058    163.043934   -0.39327   -0.59497    0.00579    7
   14      0.753D-08      0.649D-09      -115.04910058    163.043934   -0.39327   -0.59497    0.00579    7
   15      0.166D-08      0.150D-09      -115.04910058    163.043934   -0.39327   -0.59497    0.00579    7
   16      0.335D-09      0.453D-10      -115.04910058    163.043934   -0.39327   -0.59497    0.00579    7
   17      0.876D-10      0.164D-10      -115.04910058    163.043934   -0.39327   -0.59497    0.00579    7
   18      0.421D-10      0.285D-11      -115.04910058    163.043934   -0.39327   -0.59497    0.00579    0

 Final occupancy:   9

 !RHF STATE 1.1 Energy               -115.049100575433
 Nuclear energy                        40.30778106
 One-electron energy                 -236.87884885
 Two-electron energy                   81.52196721
 Virial quotient                       -1.00092530
 !RHF STATE 1.1 Dipole moment          -0.39326903    -0.59497242     0.00579068
 Dipole moment /Debye                  -0.99952471    -1.51217001     0.01471747

 Orbital energies:

         1.1          2.1          3.1          4.1          5.1          6.1          7.1          8.1          9.1         10.1
    -20.549944   -11.274705    -1.349890    -0.921308    -0.682808    -0.613708    -0.584887    -0.497099    -0.443109     0.184567

        11.1
      0.224403


 **********************************************************************************************************************************
 DATASETS  * FILE   NREC   LENGTH (MB)   RECORD NAMES
              1      19        8.44       500      610      700      900      950      970     1000      129      960     1100   
                                          VAR    BASINP    GEOM    SYMINP    ZMAT    AOBASIS   BASIS     P2S    ABASIS      S 
                                         1400     1410     1200     1210     1080     1600     1650     1300     1700   
                                           T        V       H0       H01     AOSYM     SMH    MOLCAS    ERIS     OPER   

              2       3        0.39       700     1000     2100   
                                         GEOM     BASIS     RHF  

 PROGRAMS   *        TOTAL       RHF       INT
 CPU TIMES  *         0.31      0.08      0.18
 REAL TIME  *         1.80 SEC
 DISK USED  *        24.53 MB      
 GA USED    *         0.00 MB       (max)       0.00 MB       (current)
 **********************************************************************************************************************************


1PROGRAM * CCSD (Closed-shell coupled cluster)     Authors: C. Hampel, H.-J. Werner, 1991, M. Deegan, P.J. Knowles, 1992


 Convergence thresholds:  THRVAR = 1.00D-08  THRDEN = 1.00D-12

 CCSD(T)     terms to be evaluated (factor= 1.000)


 Number of core orbitals:           2 (   2 )
 Number of closed-shell orbitals:   7 (   7 )
 Number of external orbitals:      39 (  39 )

 Molecular orbitals read from record     2100.2  Type=RHF/CANONICAL (state 1.1)

 Number of N-1 electron functions:               7
 Number of N-2 electron functions:              28
 Number of singly external CSFs:               273
 Number of doubly external CSFs:             37401
 Total number of CSFs:                       37675

 Length of J-op  integral file:               0.00 MB
 Length of K-op  integral file:               0.19 MB
 Length of 3-ext integral record:             0.00 MB

 Memory could be reduced to 0.96 Mwords without degradation in triples

 Integral transformation finished. Total CPU:   0.02 sec, npass=  1  Memory used:   0.66 MW

 Reference energy:                   -115.04910058

 MP2 singlet pair energy:              -0.21864888
 MP2 triplet pair energy:              -0.11983718
 MP2 correlation energy:               -0.33848605
 MP2 total energy:                   -115.38758663

 SCS-MP2 correlation energy:           -0.33694401   (PS=  1.200000  PT=  0.333333)
 SCS-MP2 total energy:               -115.38604458

 ITER.      SQ.NORM     CORR.ENERGY   TOTAL ENERGY   ENERGY CHANGE        DEN1      VAR(S)    VAR(P)  DIIS     TIME
   1      1.10733701    -0.36128541  -115.41038599    -0.02279936    -0.01411778  0.91D-03  0.17D-02  1  1     0.06
   2      1.11586464    -0.36323082  -115.41233140    -0.00194541    -0.00925139  0.20D-04  0.16D-03  2  2     0.09
   3      1.11774738    -0.36335825  -115.41245883    -0.00012743    -0.00120479  0.95D-05  0.86D-05  3  3     0.13
   4      1.11826303    -0.36335690  -115.41245748     0.00000135    -0.00025511  0.34D-06  0.68D-06  4  4     0.17
   5      1.11836133    -0.36335731  -115.41245788    -0.00000041    -0.00003610  0.10D-06  0.49D-07  5  5     0.21
   6      1.11838043    -0.36335595  -115.41245652     0.00000136    -0.00000437  0.16D-07  0.41D-08  6  6     0.25
   7      1.11838520    -0.36335553  -115.41245610     0.00000042    -0.00000035  0.20D-08  0.72D-09  6  1     0.29
   8      1.11838647    -0.36335563  -115.41245621    -0.00000010     0.00000075  0.26D-09  0.72D-10  6  3     0.33
   9      1.11838754    -0.36335551  -115.41245608     0.00000012    -0.00000038  0.13D-10  0.10D-10  6  2     0.36
  10      1.11838746    -0.36335551  -115.41245608    -0.00000000     0.00000007  0.11D-11  0.88D-12  6  5     0.40
  11      1.11838750    -0.36335551  -115.41245608     0.00000000    -0.00000000  0.19D-12  0.51D-13  6  4     0.44
  12      1.11838748    -0.36335551  -115.41245608    -0.00000000     0.00000001  0.19D-13  0.10D-13  6  1     0.48
  13      1.11838748    -0.36335551  -115.41245608    -0.00000000    -0.00000000  0.24D-14  0.95D-15  6  6     0.51
  14      1.11838748    -0.36335551  -115.41245608     0.00000000    -0.00000000  0.23D-15  0.13D-15  6  3     0.55
  15      1.11838748    -0.36335551  -115.41245608    -0.00000000    -0.00000000  0.28D-16  0.17D-16  6  2     0.59
  16      1.11838748    -0.36335551  -115.41245608    -0.00000000    -0.00000000  0.65D-17  0.17D-17  6  5     0.62
  17      1.11838748    -0.36335551  -115.41245608    -0.00000000    -0.00000000  0.78D-18  0.28D-18  6  4     0.66
  18      1.11838748    -0.36335551  -115.41245608     0.00000000    -0.00000000  0.14D-18  0.53D-19  6  1     0.70
  19      1.11838748    -0.36335551  -115.41245608    -0.00000000    -0.00000000  0.22D-19  0.59D-20  6  6     0.74
  20      1.11838748    -0.36335551  -115.41245608     0.00000000     0.00000000  0.42D-20  0.11D-20  6  3     0.78

 Norm of t1 vector:      0.04167140      S-energy:    -0.00000000      T1 diagnostic:  0.00787515
                                                                       D1 diagnostic:  0.01752015


 Total CPU time for triples:      0.20 sec


 RESULTS
 =======

  Reference energy                   -115.049100575433
  CCSD singlet pair energy             -0.254604636341
  CCSD triplet pair energy             -0.108750872706
  CCSD correlation energy              -0.363355509047

  Triples (T) contribution             -0.007738680220
  Total correlation energy             -0.371094189267

  CCSD total energy                  -115.412456084480
  CCSD[T] energy                     -115.420484849310
  CCSD-T energy                      -115.420044749471
 !CCSD(T) total energy               -115.420194764700

 Timing summary (sec):

 STEP                 CPU(USER)    SYS     CPU(TOT)    WALL
 Transformation          0.02      0.00      0.02      0.03
 CCSD iterations         0.76      0.05      0.81      0.84
 Triples                 0.20      0.00      0.20      0.21

 Program statistics:

 Available memory in ccsd:               999999704
 Min. memory needed in ccsd:                136801
 Max. memory used in ccsd:                  163198
 Max. memory used in cckext:                182024 (20 integral passes)



 **********************************************************************************************************************************
 DATASETS  * FILE   NREC   LENGTH (MB)   RECORD NAMES
              1      20       10.97       500      610      700      900      950      970     1000      129      960     1100   
                                          VAR    BASINP    GEOM    SYMINP    ZMAT    AOBASIS   BASIS     P2S    ABASIS      S 
                                         1400     1410     1200     1210     1080     1600     1650     1300     1700     1380   
                                           T        V       H0       H01     AOSYM     SMH    MOLCAS    ERIS     OPER     JKOP   

              2       3        0.39       700     1000     2100   
                                         GEOM     BASIS     RHF  

 PROGRAMS   *        TOTAL   CCSD(T)       RHF       INT
 CPU TIMES  *         1.30      0.99      0.08      0.18
 REAL TIME  *         4.21 SEC
 DISK USED  *        25.96 MB      
 GA USED    *         0.00 MB       (max)       0.00 MB       (current)
 **********************************************************************************************************************************

        CCSD(T)         RHF-SCF 
   -115.42019476   -115.04910058
 **********************************************************************************************************************************
 Variable memory released
