
 Primary working directories    : /tmp/601555.70.gen4.q
 Secondary working directories  : /tmp/601555.70.gen4.q
 Wavefunction directory         : /home/vulcan/mel64643/wfu/
 Main file repository           : /tmp/601555.70.gen4.q/

 ARCHNAME  : Linux/x86_64
 FC        : /opt/intel/compilers_and_libraries_2016.1.150/linux/bin/intel64/ifort
 FCVERSION : 16.0.1
 BLASLIB   : -mkl
 id        : ccgc

 Nodes     nprocs
 n066         1
 ga_uses_ma=false, calling ma_init with nominal heap.
 GA-space will be limited to   8.0 MW (determined by -G option)

 Using customized tuning parameters: mindgm=10; mindgv=16; mindgc=4; mindgr=1; noblas=0; mincuda=1000; minvec=7
 default implementation of scratch files=df  

 ***,Optimization of min3
 memory,1000,m
 gthresh,energy=1.0d-12,orbital=1.0d-10,oneint=1.0d-16,twoint=1.0d-16,optgrad=1.0d-6,compress=1.0d-13
 geomtyp=xyz
 
  bohr
  geometry = {
  6
  arbitrary comment
  C   -1.3750298208   -0.0232113605    0.0011395713
  O    1.3042807484    0.1253061587    0.0042947397
  H   -2.0765174001    1.9092844565   -0.0021097773
  H   -2.1087127360   -0.9795137037    1.6818079701
  H   -2.1099101674   -0.9807917090   -1.6818279419
  H    1.9421652159   -1.5812059620   -0.0033129719
 }
 
 basis=cc-pvdz
 {rhf;maxit,200}
 {ccsd(t);maxit,200}

 Variables initialized (661), CPU time= 0.00 sec
 Commands  initialized (458), CPU time= 0.00 sec, 486 directives.
 Default parameters read. Elapsed time= 0.05 sec

 Checking input...
 Passed
1


                                         ***  PROGRAM SYSTEM MOLPRO  ***
                         Copyright, University College Cardiff Consultants Limited, 2008

                                    Version 2010.1 linked May 16 2016 07:17:05


 **********************************************************************************************************************************
 LABEL *   Optimization of min3                                                          
 Linux-4.4.3/n066(x86_64) 64 bit mpp version                                             DATE: 06-Nov-21          TIME: 15:39:31  
 **********************************************************************************************************************************

 SHA1:             9e8077add272b0f3cad6f7df79ec5211205f459d
 **********************************************************************************************************************************

 THRESHOLDS:

 ZERO    =  1.00D-12  ONEINT  =  1.00D-16  TWOINT  =  1.00D-16  PREFAC  =  1.00D-14  LOCALI  =  1.00D-09  EORDER  =  1.00D-04
 ENERGY  =  1.00D-12  ETEST   =  0.00D+00  EDENS   =  0.00D+00  THRDEDEF=  1.00D-06  GRADIENT=  1.00D-02  STEP    =  1.00D-03
 ORBITAL =  1.00D-10  CIVEC   =  1.00D-05  COEFF   =  1.00D-04  PRINTCI =  5.00D-02  PUNCHCI =  9.90D+01  OPTGRAD =  1.00D-06
 OPTENERG=  1.00D-06  OPTSTEP =  3.00D-04  THRGRAD =  1.00D-10  COMPRESS=  1.00D-13  VARMIN  =  1.00D-07  VARMAX  =  1.00D-03
 THRDOUB =  0.00D+00  THRDIV  =  1.00D-05  THRRED  =  1.00D-07  THRPSP  =  1.00D+00  THRDC   =  1.00D-10  THRCS   =  1.00D-10
 THRNRM  =  1.00D-08  THREQ   =  0.00D+00  THRDE   =  1.00D+00  THRREF  =  1.00D-05  SPARFAC =  1.00D+00  THRDLP  =  1.00D-07
 THRDIA  =  1.00D-10  THRDLS  =  1.00D-07  THRGPS  =  0.00D+00  THRKEX  =  0.00D+00  THRDIS  =  2.00D-01  THRVAR  =  1.00D-10
 THRLOC  =  1.00D-06  THRGAP  =  1.00D-06  THRLOCT = -1.00D+00  THRGAPT = -1.00D+00  THRORB  =  1.00D-06  THRMLTP =  0.00D+00
 THRCPQCI=  1.00D-10  KEXTA   =  0.00D+00  THRCOARS=  0.00D+00  SYMTOL  =  1.00D-06  GRADTOL =  1.00D-06  THROVL  =  1.00D-08
 THRORTH =  1.00D-08  GRID    =  1.00D-06  GRIDMAX =  1.00D-03  DTMAX   =  0.00D+00

 SETTING GEOMTYP        =    XYZ
 ZUNIT=BOHR
 

 Variable memory set to 1000000000 words,  buffer space   230000 words

 SETTING BASIS          =    CC-PVDZ


 Recomputing integrals since basis changed


 Using spherical harmonics

 Library entry C      S cc-pVDZ              selected for orbital group  1
 Library entry C      P cc-pVDZ              selected for orbital group  1
 Library entry C      D cc-pVDZ              selected for orbital group  1
 Library entry O      S cc-pVDZ              selected for orbital group  2
 Library entry O      P cc-pVDZ              selected for orbital group  2
 Library entry O      D cc-pVDZ              selected for orbital group  2
 Library entry H      S cc-pVDZ              selected for orbital group  3
 Library entry H      P cc-pVDZ              selected for orbital group  3

1PROGRAM * SEWARD (Integral evaluation for generally contracted gaussian basis sets)     Author: Roland Lindh, 1990

 Geometry written to block  1 of record 700


 Point group  C1  



 ATOMIC COORDINATES

 NR  ATOM    CHARGE       X              Y              Z

   1  C       6.00   -1.375029821   -0.023211361    0.001139571
   2  O       8.00    1.304280748    0.125306159    0.004294740
   3  H       1.00   -2.076517400    1.909284457   -0.002109777
   4  H       1.00   -2.108712736   -0.979513704    1.681807970
   5  H       1.00   -2.109910167   -0.980791709   -1.681827942
   6  H       1.00    1.942165216   -1.581205962   -0.003312972

 Bond lengths in Bohr (Angstrom)

 1-2  2.683425523  1-3  2.055878271  1-4  2.068199956  1-5  2.071083991  2-6  1.821850183
     ( 1.420007629)     ( 1.087923925)     ( 1.094444280)     ( 1.095970446)     ( 0.964081595)

 Bond angles

  1-2-6  107.32226321   2-1-3  106.77802530   2-1-4  112.26162586   2-1-5  112.38509880

  3-1-4  108.35332013   3-1-5  108.19507426   4-1-5  108.70403989

 NUCLEAR CHARGE:                   18
 NUMBER OF PRIMITIVE AOS:          82
 NUMBER OF SYMMETRY AOS:           80
 NUMBER OF CONTRACTIONS:           48   (  48A   )
 NUMBER OF CORE ORBITALS:           2   (   2A   )
 NUMBER OF VALENCE ORBITALS:       12   (  12A   )


 NUCLEAR REPULSION ENERGY   40.29796077


 Eigenvalues of metric

         1 0.966E-02 0.177E-01 0.368E-01 0.375E-01 0.384E-01 0.475E-01 0.478E-01 0.519E-01


 Contracted 2-electron integrals neglected if value below      1.0D-16
 AO integral compression algorithm  1   Integral accuracy      1.0D-16

     6.816 MB (compressed) written to integral file (100.0%)

     Node minimum: 6.816 MB, node maximum: 6.816 MB


 NUMBER OF SORTED TWO-ELECTRON INTEGRALS:     692076.     BUFFER LENGTH:  32768
 NUMBER OF SEGMENTS:   1  SEGMENT LENGTH:     692076      RECORD LENGTH: 524288

 Memory used in sort:       1.25 MW

 SORT1 READ      832256. AND WROTE      682150. INTEGRALS IN      2 RECORDS. CPU TIME:     0.01 SEC, REAL TIME:     0.01 SEC
 SORT2 READ      682150. AND WROTE      692076. INTEGRALS IN     26 RECORDS. CPU TIME:     0.02 SEC, REAL TIME:     0.02 SEC

 FILE SIZES:   FILE 1:     8.4 MBYTE,  FILE 4:     8.4 MBYTE,   TOTAL:     16.8 MBYTE

 OPERATOR DM      FOR CENTER  0  COORDINATES:    0.000000    0.000000    0.000000


 **********************************************************************************************************************************
 DATASETS  * FILE   NREC   LENGTH (MB)   RECORD NAMES
              1      19        8.43       500      610      700      900      950      970     1000      129      960     1100   
                                          VAR    BASINP    GEOM    SYMINP    ZMAT    AOBASIS   BASIS     P2S    ABASIS      S 
                                         1400     1410     1200     1210     1080     1600     1650     1300     1700   
                                           T        V       H0       H01     AOSYM     SMH    MOLCAS    ERIS     OPER   

 PROGRAMS   *        TOTAL       INT
 CPU TIMES  *         0.22      0.18
 REAL TIME  *         0.41 SEC
 DISK USED  *        24.27 MB      
 GA USED    *         0.00 MB       (max)       0.00 MB       (current)
 **********************************************************************************************************************************

1PROGRAM * RHF-SCF (CLOSED SHELL)       Authors: W. Meyer, H.-J. Werner


 NUMBER OF ELECTRONS:       9+    9-    SPACE SYMMETRY=1    SPIN SYMMETRY: Singlet 
 CONVERGENCE THRESHOLDS:    1.00E-10 (Density)    1.00E-13 (Energy)
 MAX. NUMBER OF ITERATIONS:      200
 INTERPOLATION TYPE:            DIIS
 INTERPOLATION STEPS:              2 (START)      1 (STEP)
 LEVEL SHIFTS:                  0.00 (CLOSED)  0.00 (OPEN) 



 Orbital guess generated from atomic densities. Full valence occupancy:   14

 Molecular orbital dump at record        2100.2

 ITERATION    DDIFF          GRAD             ENERGY        2-EL.EN.            DIPOLE MOMENTS         DIIS
    1      0.000D+00      0.000D+00      -115.01400286    164.381632   -0.48954   -0.90760   -0.00569    0
    2      0.000D+00      0.110D-01      -115.04241831    162.153054   -0.31338   -0.53727   -0.00296    1
    3      0.205D-01      0.531D-02      -115.04847452    163.182927   -0.39723   -0.61325   -0.00335    2
    4      0.640D-02      0.113D-02      -115.04894173    163.025702   -0.38747   -0.60165   -0.00319    3
    5      0.204D-02      0.204D-03      -115.04896319    163.032224   -0.39047   -0.59724   -0.00314    4
    6      0.436D-03      0.360D-04      -115.04896401    163.032393   -0.39084   -0.59700   -0.00313    5
    7      0.941D-04      0.754D-05      -115.04896405    163.031189   -0.39099   -0.59683   -0.00313    6
    8      0.154D-04      0.243D-05      -115.04896405    163.031582   -0.39103   -0.59680   -0.00313    7
    9      0.518D-05      0.504D-06      -115.04896405    163.031540   -0.39105   -0.59680   -0.00313    6
   10      0.145D-05      0.923D-07      -115.04896405    163.031539   -0.39105   -0.59680   -0.00313    6
   11      0.245D-06      0.344D-07      -115.04896405    163.031545   -0.39105   -0.59680   -0.00313    6
   12      0.625D-07      0.146D-07      -115.04896405    163.031543   -0.39105   -0.59680   -0.00313    7
   13      0.275D-07      0.320D-08      -115.04896405    163.031543   -0.39105   -0.59680   -0.00313    7
   14      0.799D-08      0.668D-09      -115.04896405    163.031543   -0.39105   -0.59680   -0.00313    7
   15      0.169D-08      0.157D-09      -115.04896405    163.031543   -0.39105   -0.59680   -0.00313    7
   16      0.350D-09      0.475D-10      -115.04896405    163.031543   -0.39105   -0.59680   -0.00313    7
   17      0.912D-10      0.172D-10      -115.04896405    163.031543   -0.39105   -0.59680   -0.00313    7
   18      0.440D-10      0.289D-11      -115.04896405    163.031543   -0.39105   -0.59680   -0.00313    0

 Final occupancy:   9

 !RHF STATE 1.1 Energy               -115.048964049130
 Nuclear energy                        40.29796077
 One-electron energy                 -236.86269630
 Two-electron energy                   81.51577148
 Virial quotient                       -1.00098282
 !RHF STATE 1.1 Dipole moment          -0.39104923    -0.59680382    -0.00312781
 Dipole moment /Debye                  -0.99388290    -1.51682465    -0.00794958

 Orbital energies:

         1.1          2.1          3.1          4.1          5.1          6.1          7.1          8.1          9.1         10.1
    -20.550447   -11.274577    -1.349244    -0.920801    -0.682194    -0.613558    -0.584888    -0.497001    -0.442866     0.184223

        11.1
      0.224068


 **********************************************************************************************************************************
 DATASETS  * FILE   NREC   LENGTH (MB)   RECORD NAMES
              1      19        8.43       500      610      700      900      950      970     1000      129      960     1100   
                                          VAR    BASINP    GEOM    SYMINP    ZMAT    AOBASIS   BASIS     P2S    ABASIS      S 
                                         1400     1410     1200     1210     1080     1600     1650     1300     1700   
                                           T        V       H0       H01     AOSYM     SMH    MOLCAS    ERIS     OPER   

              2       3        0.39       700     1000     2100   
                                         GEOM     BASIS     RHF  

 PROGRAMS   *        TOTAL       RHF       INT
 CPU TIMES  *         0.31      0.09      0.18
 REAL TIME  *         0.52 SEC
 DISK USED  *        24.27 MB      
 GA USED    *         0.00 MB       (max)       0.00 MB       (current)
 **********************************************************************************************************************************


1PROGRAM * CCSD (Closed-shell coupled cluster)     Authors: C. Hampel, H.-J. Werner, 1991, M. Deegan, P.J. Knowles, 1992


 Convergence thresholds:  THRVAR = 1.00D-08  THRDEN = 1.00D-12

 CCSD(T)     terms to be evaluated (factor= 1.000)


 Number of core orbitals:           2 (   2 )
 Number of closed-shell orbitals:   7 (   7 )
 Number of external orbitals:      39 (  39 )

 Molecular orbitals read from record     2100.2  Type=RHF/CANONICAL (state 1.1)

 Number of N-1 electron functions:               7
 Number of N-2 electron functions:              28
 Number of singly external CSFs:               273
 Number of doubly external CSFs:             37401
 Total number of CSFs:                       37675

 Length of J-op  integral file:               0.00 MB
 Length of K-op  integral file:               0.19 MB
 Length of 3-ext integral record:             0.00 MB

 Memory could be reduced to 0.96 Mwords without degradation in triples

 Integral transformation finished. Total CPU:   0.02 sec, npass=  1  Memory used:   0.66 MW

 Reference energy:                   -115.04896405

 MP2 singlet pair energy:              -0.21877245
 MP2 triplet pair energy:              -0.11989990
 MP2 correlation energy:               -0.33867235
 MP2 total energy:                   -115.38763640

 SCS-MP2 correlation energy:           -0.33713132   (PS=  1.200000  PT=  0.333333)
 SCS-MP2 total energy:               -115.38609537

 ITER.      SQ.NORM     CORR.ENERGY   TOTAL ENERGY   ENERGY CHANGE        DEN1      VAR(S)    VAR(P)  DIIS     TIME
   1      1.10745821    -0.36145518  -115.41041923    -0.02278283    -0.01408342  0.92D-03  0.17D-02  1  1     0.05
   2      1.11600804    -0.36340597  -115.41237002    -0.00195079    -0.00926716  0.20D-04  0.16D-03  2  2     0.09
   3      1.11790244    -0.36353390  -115.41249795    -0.00012793    -0.00121125  0.96D-05  0.86D-05  3  3     0.13
   4      1.11842154    -0.36353268  -115.41249672     0.00000123    -0.00025646  0.34D-06  0.68D-06  4  4     0.17
   5      1.11852065    -0.36353310  -115.41249715    -0.00000043    -0.00003631  0.10D-06  0.50D-07  5  5     0.21
   6      1.11854002    -0.36353173  -115.41249578     0.00000137    -0.00000441  0.16D-07  0.42D-08  6  6     0.25
   7      1.11854488    -0.36353130  -115.41249535     0.00000042    -0.00000036  0.21D-08  0.74D-09  6  1     0.29
   8      1.11854618    -0.36353141  -115.41249546    -0.00000010     0.00000076  0.26D-09  0.74D-10  6  3     0.32
   9      1.11854726    -0.36353128  -115.41249533     0.00000013    -0.00000039  0.13D-10  0.11D-10  6  2     0.36
  10      1.11854718    -0.36353128  -115.41249533    -0.00000000     0.00000007  0.11D-11  0.90D-12  6  5     0.40
  11      1.11854721    -0.36353128  -115.41249533     0.00000000    -0.00000000  0.20D-12  0.52D-13  6  4     0.44
  12      1.11854720    -0.36353128  -115.41249533    -0.00000000     0.00000001  0.19D-13  0.11D-13  6  1     0.48
  13      1.11854720    -0.36353128  -115.41249533    -0.00000000    -0.00000000  0.24D-14  0.97D-15  6  6     0.52
  14      1.11854720    -0.36353128  -115.41249533     0.00000000    -0.00000000  0.23D-15  0.13D-15  6  3     0.56
  15      1.11854720    -0.36353128  -115.41249533    -0.00000000    -0.00000000  0.26D-16  0.17D-16  6  2     0.60
  16      1.11854720    -0.36353128  -115.41249533    -0.00000000    -0.00000000  0.59D-17  0.17D-17  6  5     0.63
  17      1.11854720    -0.36353128  -115.41249533    -0.00000000    -0.00000000  0.60D-18  0.26D-18  6  4     0.67
  18      1.11854720    -0.36353128  -115.41249533     0.00000000    -0.00000000  0.97D-19  0.46D-19  6  1     0.71
  19      1.11854720    -0.36353128  -115.41249533    -0.00000000    -0.00000000  0.13D-19  0.47D-20  6  6     0.75
  20      1.11854720    -0.36353128  -115.41249533     0.00000000     0.00000000  0.22D-20  0.69D-21  6  3     0.79

 Norm of t1 vector:      0.04178249      S-energy:    -0.00000000      T1 diagnostic:  0.00789615
                                                                       D1 diagnostic:  0.01752475


 Total CPU time for triples:      0.20 sec


 RESULTS
 =======

  Reference energy                   -115.048964049130
  CCSD singlet pair energy             -0.254758714858
  CCSD triplet pair energy             -0.108772569527
  CCSD correlation energy              -0.363531284385

  Triples (T) contribution             -0.007752475200
  Total correlation energy             -0.371283759585

  CCSD total energy                  -115.412495333515
  CCSD[T] energy                     -115.420538730353
  CCSD-T energy                      -115.420097428894
 !CCSD(T) total energy               -115.420247808715

 Timing summary (sec):

 STEP                 CPU(USER)    SYS     CPU(TOT)    WALL
 Transformation          0.02      0.01      0.03      0.02
 CCSD iterations         0.77      0.03      0.80      0.84
 Triples                 0.20      0.01      0.21      0.21

 Program statistics:

 Available memory in ccsd:               999999704
 Min. memory needed in ccsd:                136801
 Max. memory used in ccsd:                  163198
 Max. memory used in cckext:                182024 (20 integral passes)



 **********************************************************************************************************************************
 DATASETS  * FILE   NREC   LENGTH (MB)   RECORD NAMES
              1      20       10.96       500      610      700      900      950      970     1000      129      960     1100   
                                          VAR    BASINP    GEOM    SYMINP    ZMAT    AOBASIS   BASIS     P2S    ABASIS      S 
                                         1400     1410     1200     1210     1080     1600     1650     1300     1700     1380   
                                           T        V       H0       H01     AOSYM     SMH    MOLCAS    ERIS     OPER     JKOP   

              2       3        0.39       700     1000     2100   
                                         GEOM     BASIS     RHF  

 PROGRAMS   *        TOTAL   CCSD(T)       RHF       INT
 CPU TIMES  *         1.31      1.00      0.09      0.18
 REAL TIME  *         1.61 SEC
 DISK USED  *        25.69 MB      
 GA USED    *         0.00 MB       (max)       0.00 MB       (current)
 **********************************************************************************************************************************

        CCSD(T)         RHF-SCF 
   -115.42024781   -115.04896405
 **********************************************************************************************************************************
 Variable memory released
