
 Primary working directories    : /tmp/795519.25.gen4.q
 Secondary working directories  : /tmp/795519.25.gen4.q
 Wavefunction directory         : /home/vulcan/mel64643/wfu/
 Main file repository           : /tmp/795519.25.gen4.q/

 ARCHNAME  : Linux/x86_64
 FC        : /opt/intel/compilers_and_libraries_2016.1.150/linux/bin/intel64/ifort
 FCVERSION : 16.0.1
 BLASLIB   : -mkl
 id        : ccgc

 Nodes     nprocs
 n058         1
 ga_uses_ma=false, calling ma_init with nominal heap.
 GA-space will be limited to   8.0 MW (determined by -G option)

 Using customized tuning parameters: mindgm=10; mindgv=16; mindgc=4; mindgr=1; noblas=0; mincuda=1000; minvec=7
 default implementation of scratch files=df  

 ***,Optimization of min3
 memory,1000,m
 gthresh,energy=1.0d-12,orbital=1.0d-10,oneint=1.0d-16,twoint=1.0d-16,optgrad=1.0d-6,compress=1.0d-13
 geomtyp=xyz
 
  bohr
  geometry = {
  6
  arbitrary comment
  C   -1.3793340201   -0.0219537896    0.0000002955
  O    1.3079536206    0.1171358186    0.0000002861
  H   -2.0776684794    1.9110299152   -0.0000799332
  H   -2.1149537649   -0.9794436693    1.6817926525
  H   -2.1149469285   -0.9795748950   -1.6817203877
  H    1.9552254123   -1.5773254999   -0.0000013233
 }
 
 basis=cc-pvdz
 {rhf;maxit,200}
 {ccsd(t);maxit,200}

 Variables initialized (661), CPU time= 0.00 sec
 Commands  initialized (458), CPU time= 0.00 sec, 486 directives.
 Default parameters read. Elapsed time= 0.05 sec

 Checking input...
 Passed
1


                                         ***  PROGRAM SYSTEM MOLPRO  ***
                         Copyright, University College Cardiff Consultants Limited, 2008

                                    Version 2010.1 linked May 16 2016 07:17:05


 **********************************************************************************************************************************
 LABEL *   Optimization of min3                                                          
 Linux-4.4.3/n058(x86_64) 64 bit mpp version                                             DATE: 24-Oct-22          TIME: 15:41:06  
 **********************************************************************************************************************************

 SHA1:             9e8077add272b0f3cad6f7df79ec5211205f459d
 **********************************************************************************************************************************

 THRESHOLDS:

 ZERO    =  1.00D-12  ONEINT  =  1.00D-16  TWOINT  =  1.00D-16  PREFAC  =  1.00D-14  LOCALI  =  1.00D-09  EORDER  =  1.00D-04
 ENERGY  =  1.00D-12  ETEST   =  0.00D+00  EDENS   =  0.00D+00  THRDEDEF=  1.00D-06  GRADIENT=  1.00D-02  STEP    =  1.00D-03
 ORBITAL =  1.00D-10  CIVEC   =  1.00D-05  COEFF   =  1.00D-04  PRINTCI =  5.00D-02  PUNCHCI =  9.90D+01  OPTGRAD =  1.00D-06
 OPTENERG=  1.00D-06  OPTSTEP =  3.00D-04  THRGRAD =  1.00D-10  COMPRESS=  1.00D-13  VARMIN  =  1.00D-07  VARMAX  =  1.00D-03
 THRDOUB =  0.00D+00  THRDIV  =  1.00D-05  THRRED  =  1.00D-07  THRPSP  =  1.00D+00  THRDC   =  1.00D-10  THRCS   =  1.00D-10
 THRNRM  =  1.00D-08  THREQ   =  0.00D+00  THRDE   =  1.00D+00  THRREF  =  1.00D-05  SPARFAC =  1.00D+00  THRDLP  =  1.00D-07
 THRDIA  =  1.00D-10  THRDLS  =  1.00D-07  THRGPS  =  0.00D+00  THRKEX  =  0.00D+00  THRDIS  =  2.00D-01  THRVAR  =  1.00D-10
 THRLOC  =  1.00D-06  THRGAP  =  1.00D-06  THRLOCT = -1.00D+00  THRGAPT = -1.00D+00  THRORB  =  1.00D-06  THRMLTP =  0.00D+00
 THRCPQCI=  1.00D-10  KEXTA   =  0.00D+00  THRCOARS=  0.00D+00  SYMTOL  =  1.00D-06  GRADTOL =  1.00D-06  THROVL  =  1.00D-08
 THRORTH =  1.00D-08  GRID    =  1.00D-06  GRIDMAX =  1.00D-03  DTMAX   =  0.00D+00

 SETTING GEOMTYP        =    XYZ
 ZUNIT=BOHR
 

 Variable memory set to 1000000000 words,  buffer space   230000 words

 SETTING BASIS          =    CC-PVDZ


 Recomputing integrals since basis changed


 Using spherical harmonics

 Library entry C      S cc-pVDZ              selected for orbital group  1
 Library entry C      P cc-pVDZ              selected for orbital group  1
 Library entry C      D cc-pVDZ              selected for orbital group  1
 Library entry O      S cc-pVDZ              selected for orbital group  2
 Library entry O      P cc-pVDZ              selected for orbital group  2
 Library entry O      D cc-pVDZ              selected for orbital group  2
 Library entry H      S cc-pVDZ              selected for orbital group  3
 Library entry H      P cc-pVDZ              selected for orbital group  3

1PROGRAM * SEWARD (Integral evaluation for generally contracted gaussian basis sets)     Author: Roland Lindh, 1990

 Geometry written to block  1 of record 700


 Point group  C1  



 ATOMIC COORDINATES

 NR  ATOM    CHARGE       X              Y              Z

   1  C       6.00   -1.379334020   -0.021953790    0.000000296
   2  O       8.00    1.307953621    0.117135819    0.000000286
   3  H       1.00   -2.077668479    1.911029915   -0.000079933
   4  H       1.00   -2.114953765   -0.979443669    1.681792652
   5  H       1.00   -2.114946929   -0.979574895   -1.681720388
   6  H       1.00    1.955225412   -1.577325500   -0.000001323

 Bond lengths in Bohr (Angstrom)

 1-2  2.690884758  1-3  2.055260817  1-4  2.070349925  1-5  2.070349968  2-6  1.813879801
     ( 1.423954886)     ( 1.087597183)     ( 1.095581995)     ( 1.095582018)     ( 0.959863851)

 Bond angles

  1-2-6  107.94359822   2-1-3  106.90051813   2-1-4  112.25577438   2-1-5  112.25577221

  3-1-4  108.31654456   3-1-5  108.31638220   4-1-5  108.64358896

 NUCLEAR CHARGE:                   18
 NUMBER OF PRIMITIVE AOS:          82
 NUMBER OF SYMMETRY AOS:           80
 NUMBER OF CONTRACTIONS:           48   (  48A   )
 NUMBER OF CORE ORBITALS:           2   (   2A   )
 NUMBER OF VALENCE ORBITALS:       12   (  12A   )


 NUCLEAR REPULSION ENERGY   40.24736765


 Eigenvalues of metric

         1 0.968E-02 0.177E-01 0.368E-01 0.375E-01 0.380E-01 0.476E-01 0.479E-01 0.517E-01


 Contracted 2-electron integrals neglected if value below      1.0D-16
 AO integral compression algorithm  1   Integral accuracy      1.0D-16

     6.291 MB (compressed) written to integral file ( 97.7%)

     Node minimum: 6.291 MB, node maximum: 6.291 MB


 NUMBER OF SORTED TWO-ELECTRON INTEGRALS:     692076.     BUFFER LENGTH:  32768
 NUMBER OF SEGMENTS:   1  SEGMENT LENGTH:     692076      RECORD LENGTH: 524288

 Memory used in sort:       1.25 MW

 SORT1 READ      832256. AND WROTE      682142. INTEGRALS IN      2 RECORDS. CPU TIME:     0.01 SEC, REAL TIME:     0.01 SEC
 SORT2 READ      682142. AND WROTE      692076. INTEGRALS IN     24 RECORDS. CPU TIME:     0.02 SEC, REAL TIME:     0.02 SEC

 FILE SIZES:   FILE 1:     8.0 MBYTE,  FILE 4:     8.4 MBYTE,   TOTAL:     16.4 MBYTE

 OPERATOR DM      FOR CENTER  0  COORDINATES:    0.000000    0.000000    0.000000


 **********************************************************************************************************************************
 DATASETS  * FILE   NREC   LENGTH (MB)   RECORD NAMES
              1      19        8.02       500      610      700      900      950      970     1000      129      960     1100   
                                          VAR    BASINP    GEOM    SYMINP    ZMAT    AOBASIS   BASIS     P2S    ABASIS      S 
                                         1400     1410     1200     1210     1080     1600     1650     1300     1700   
                                           T        V       H0       H01     AOSYM     SMH    MOLCAS    ERIS     OPER   

 PROGRAMS   *        TOTAL       INT
 CPU TIMES  *         0.21      0.17
 REAL TIME  *         0.41 SEC
 DISK USED  *        23.33 MB      
 GA USED    *         0.00 MB       (max)       0.00 MB       (current)
 **********************************************************************************************************************************

1PROGRAM * RHF-SCF (CLOSED SHELL)       Authors: W. Meyer, H.-J. Werner


 NUMBER OF ELECTRONS:       9+    9-    SPACE SYMMETRY=1    SPIN SYMMETRY: Singlet 
 CONVERGENCE THRESHOLDS:    1.00E-10 (Density)    1.00E-13 (Energy)
 MAX. NUMBER OF ITERATIONS:      200
 INTERPOLATION TYPE:            DIIS
 INTERPOLATION STEPS:              2 (START)      1 (STEP)
 LEVEL SHIFTS:                  0.00 (CLOSED)  0.00 (OPEN) 



 Orbital guess generated from atomic densities. Full valence occupancy:   14

 Molecular orbital dump at record        2100.2

 ITERATION    DDIFF          GRAD             ENERGY        2-EL.EN.            DIPOLE MOMENTS         DIIS
    1      0.000D+00      0.000D+00      -115.01417048    164.280902   -0.49601   -0.89928   -0.00000    0
    2      0.000D+00      0.110D-01      -115.04249153    162.061070   -0.31742   -0.53497   -0.00000    1
    3      0.205D-01      0.531D-02      -115.04854316    163.087345   -0.40135   -0.60930   -0.00000    2
    4      0.640D-02      0.112D-02      -115.04900640    162.931459   -0.39122   -0.59812   -0.00000    3
    5      0.204D-02      0.202D-03      -115.04902731    162.937759   -0.39402   -0.59376   -0.00000    4
    6      0.432D-03      0.353D-04      -115.04902810    162.937946   -0.39431   -0.59354   -0.00000    5
    7      0.928D-04      0.733D-05      -115.04902813    162.936748   -0.39444   -0.59337   -0.00000    6
    8      0.149D-04      0.237D-05      -115.04902813    162.937127   -0.39448   -0.59334   -0.00000    7
    9      0.505D-05      0.486D-06      -115.04902813    162.937087   -0.39449   -0.59334   -0.00000    6
   10      0.140D-05      0.860D-07      -115.04902813    162.937086   -0.39449   -0.59334   -0.00000    6
   11      0.232D-06      0.321D-07      -115.04902813    162.937091   -0.39449   -0.59334   -0.00000    6
   12      0.586D-07      0.133D-07      -115.04902813    162.937089   -0.39449   -0.59334   -0.00000    7
   13      0.246D-07      0.303D-08      -115.04902813    162.937090   -0.39449   -0.59334   -0.00000    7
   14      0.750D-08      0.639D-09      -115.04902813    162.937090   -0.39449   -0.59334   -0.00000    7
   15      0.163D-08      0.148D-09      -115.04902813    162.937090   -0.39449   -0.59334   -0.00000    7
   16      0.329D-09      0.443D-10      -115.04902813    162.937090   -0.39449   -0.59334   -0.00000    7
   17      0.849D-10      0.146D-10      -115.04902813    162.937090   -0.39449   -0.59334   -0.00000    0

 Final occupancy:   9

 !RHF STATE 1.1 Energy               -115.049028130522
 Nuclear energy                        40.24736765
 One-electron energy                 -236.76494063
 Two-electron energy                   81.46854485
 Virial quotient                       -1.00100673
 !RHF STATE 1.1 Dipole moment          -0.39449026    -0.59334331    -0.00000279
 Dipole moment /Debye                  -1.00262856    -1.50802948    -0.00000709

 Orbital energies:

         1.1          2.1          3.1          4.1          5.1          6.1          7.1          8.1          9.1         10.1
    -20.549685   -11.275118    -1.348227    -0.921558    -0.681955    -0.612689    -0.584661    -0.497003    -0.443029     0.184671

        11.1
      0.224049


 **********************************************************************************************************************************
 DATASETS  * FILE   NREC   LENGTH (MB)   RECORD NAMES
              1      19        8.02       500      610      700      900      950      970     1000      129      960     1100   
                                          VAR    BASINP    GEOM    SYMINP    ZMAT    AOBASIS   BASIS     P2S    ABASIS      S 
                                         1400     1410     1200     1210     1080     1600     1650     1300     1700   
                                           T        V       H0       H01     AOSYM     SMH    MOLCAS    ERIS     OPER   

              2       3        0.39       700     1000     2100   
                                         GEOM     BASIS     RHF  

 PROGRAMS   *        TOTAL       RHF       INT
 CPU TIMES  *         0.29      0.08      0.17
 REAL TIME  *         0.53 SEC
 DISK USED  *        23.33 MB      
 GA USED    *         0.00 MB       (max)       0.00 MB       (current)
 **********************************************************************************************************************************


1PROGRAM * CCSD (Closed-shell coupled cluster)     Authors: C. Hampel, H.-J. Werner, 1991, M. Deegan, P.J. Knowles, 1992


 Convergence thresholds:  THRVAR = 1.00D-08  THRDEN = 1.00D-12

 CCSD(T)     terms to be evaluated (factor= 1.000)


 Number of core orbitals:           2 (   2 )
 Number of closed-shell orbitals:   7 (   7 )
 Number of external orbitals:      39 (  39 )

 Molecular orbitals read from record     2100.2  Type=RHF/CANONICAL (state 1.1)

 Number of N-1 electron functions:               7
 Number of N-2 electron functions:              28
 Number of singly external CSFs:               273
 Number of doubly external CSFs:             37401
 Total number of CSFs:                       37675

 Length of J-op  integral file:               0.00 MB
 Length of K-op  integral file:               0.19 MB
 Length of 3-ext integral record:             0.00 MB

 Memory could be reduced to 0.96 Mwords without degradation in triples

 Integral transformation finished. Total CPU:   0.02 sec, npass=  1  Memory used:   0.66 MW

 Reference energy:                   -115.04902813

 MP2 singlet pair energy:              -0.21870122
 MP2 triplet pair energy:              -0.11981496
 MP2 correlation energy:               -0.33851619
 MP2 total energy:                   -115.38754432

 SCS-MP2 correlation energy:           -0.33699300   (PS=  1.200000  PT=  0.333333)
 SCS-MP2 total energy:               -115.38602113

 ITER.      SQ.NORM     CORR.ENERGY   TOTAL ENERGY   ENERGY CHANGE        DEN1      VAR(S)    VAR(P)  DIIS     TIME
   1      1.10742061    -0.36132283  -115.41035096    -0.02280664    -0.01411136  0.92D-03  0.17D-02  1  1     0.06
   2      1.11596925    -0.36327302  -115.41230115    -0.00195019    -0.00926387  0.20D-04  0.16D-03  2  2     0.10
   3      1.11786245    -0.36340138  -115.41242951    -0.00012836    -0.00120991  0.96D-05  0.86D-05  3  3     0.14
   4      1.11838196    -0.36340005  -115.41242818     0.00000133    -0.00025645  0.35D-06  0.68D-06  4  4     0.18
   5      1.11848166    -0.36340044  -115.41242857    -0.00000039    -0.00003648  0.10D-06  0.50D-07  5  5     0.21
   6      1.11850124    -0.36339906  -115.41242719     0.00000138    -0.00000444  0.16D-07  0.42D-08  6  6     0.25
   7      1.11850615    -0.36339863  -115.41242676     0.00000043    -0.00000036  0.21D-08  0.75D-09  6  1     0.29
   8      1.11850746    -0.36339873  -115.41242686    -0.00000010     0.00000077  0.26D-09  0.75D-10  6  3     0.33
   9      1.11850855    -0.36339861  -115.41242674     0.00000013    -0.00000039  0.13D-10  0.11D-10  6  2     0.37
  10      1.11850847    -0.36339861  -115.41242674    -0.00000000     0.00000007  0.11D-11  0.92D-12  6  5     0.41
  11      1.11850850    -0.36339861  -115.41242674     0.00000000    -0.00000000  0.20D-12  0.52D-13  6  4     0.45
  12      1.11850849    -0.36339861  -115.41242674    -0.00000000     0.00000001  0.20D-13  0.11D-13  6  1     0.49
  13      1.11850849    -0.36339861  -115.41242674    -0.00000000    -0.00000000  0.24D-14  0.99D-15  6  6     0.52
  14      1.11850849    -0.36339861  -115.41242674     0.00000000    -0.00000000  0.23D-15  0.13D-15  6  3     0.56
  15      1.11850849    -0.36339861  -115.41242674    -0.00000000    -0.00000000  0.26D-16  0.17D-16  6  2     0.60
  16      1.11850849    -0.36339861  -115.41242674    -0.00000000    -0.00000000  0.59D-17  0.17D-17  6  5     0.64
  17      1.11850849    -0.36339861  -115.41242674    -0.00000000    -0.00000000  0.57D-18  0.26D-18  6  4     0.68
  18      1.11850849    -0.36339861  -115.41242674     0.00000000    -0.00000000  0.87D-19  0.45D-19  6  1     0.72
  19      1.11850849    -0.36339861  -115.41242674    -0.00000000    -0.00000000  0.10D-19  0.45D-20  6  6     0.76
  20      1.11850849    -0.36339861  -115.41242674     0.00000000     0.00000000  0.14D-20  0.58D-21  6  3     0.79

 Norm of t1 vector:      0.04179294      S-energy:    -0.00000000      T1 diagnostic:  0.00789812
                                                                       D1 diagnostic:  0.01767847


 Total CPU time for triples:      0.21 sec


 RESULTS
 =======

  Reference energy                   -115.049028130522
  CCSD singlet pair energy             -0.254690604072
  CCSD triplet pair energy             -0.108708003771
  CCSD correlation energy              -0.363398607844

  Triples (T) contribution             -0.007746414423
  Total correlation energy             -0.371145022267

  CCSD total energy                  -115.412426738366
  CCSD[T] energy                     -115.420464383062
  CCSD-T energy                      -115.420022543153
 !CCSD(T) total energy               -115.420173152789

 Timing summary (sec):

 STEP                 CPU(USER)    SYS     CPU(TOT)    WALL
 Transformation          0.02      0.00      0.02      0.02
 CCSD iterations         0.77      0.05      0.82      0.87
 Triples                 0.21      0.00      0.21      0.21

 Program statistics:

 Available memory in ccsd:               999999704
 Min. memory needed in ccsd:                136801
 Max. memory used in ccsd:                  163198
 Max. memory used in cckext:                182024 (20 integral passes)



 **********************************************************************************************************************************
 DATASETS  * FILE   NREC   LENGTH (MB)   RECORD NAMES
              1      20       10.55       500      610      700      900      950      970     1000      129      960     1100   
                                          VAR    BASINP    GEOM    SYMINP    ZMAT    AOBASIS   BASIS     P2S    ABASIS      S 
                                         1400     1410     1200     1210     1080     1600     1650     1300     1700     1380   
                                           T        V       H0       H01     AOSYM     SMH    MOLCAS    ERIS     OPER     JKOP   

              2       3        0.39       700     1000     2100   
                                         GEOM     BASIS     RHF  

 PROGRAMS   *        TOTAL   CCSD(T)       RHF       INT
 CPU TIMES  *         1.30      1.01      0.08      0.17
 REAL TIME  *         1.65 SEC
 DISK USED  *        24.75 MB      
 GA USED    *         0.00 MB       (max)       0.00 MB       (current)
 **********************************************************************************************************************************

        CCSD(T)         RHF-SCF 
   -115.42017315   -115.04902813
 **********************************************************************************************************************************
 Variable memory released
