
 Primary working directories    : /tmp/667821.3.gen6.q
 Secondary working directories  : /tmp/667821.3.gen6.q
 Wavefunction directory         : /home/vulcan/nlk36701/wfu/
 Main file repository           : /tmp/667821.3.gen6.q/

 ARCHNAME  : Linux/x86_64
 FC        : /opt/intel/compilers_and_libraries_2016.1.150/linux/bin/intel64/ifort
 FCVERSION : 16.0.1
 BLASLIB   : -mkl
 id        : ccgc

 Nodes     nprocs
 n087         1
 ga_uses_ma=false, calling ma_init with nominal heap.
 GA-space will be limited to   8.0 MW (determined by -G option)

 Using customized tuning parameters: mindgm=10; mindgv=16; mindgc=4; mindgr=1; noblas=0; mincuda=1000; minvec=7
 default implementation of scratch files=df  

 ***,Optimization of min3
 memory,1000,m
 gthresh,energy=1.0d-12,orbital=1.0d-10,oneint=1.0d-16,twoint=1.0d-16,optgrad=1.0d-6,compress=1.0d-13
 geomtyp=xyz
 
  bohr
  geometry = {
  3
  arbitrary comment
  H   -0.0000000000   -1.4256006426    0.9985291389
  O    0.0000000000   -0.0000000000   -0.1307146577
  H    0.0000000000    1.4256006426    0.9985291389
 }
 
 basis=cc-pvdz
 {rhf;maxit,200}
 {ccsd(t);maxit,200}

 Variables initialized (661), CPU time= 0.00 sec
 Commands  initialized (458), CPU time= 0.00 sec, 486 directives.
 Default parameters read. Elapsed time= 0.04 sec

 Checking input...
 Passed
1


                                         ***  PROGRAM SYSTEM MOLPRO  ***
                         Copyright, University College Cardiff Consultants Limited, 2008

                                    Version 2010.1 linked May 16 2016 07:17:05


 **********************************************************************************************************************************
 LABEL *   Optimization of min3                                                          
 Linux-4.4.3/n087(x86_64) 64 bit mpp version                                             DATE: 28-Mar-22          TIME: 11:15:15  
 **********************************************************************************************************************************

 SHA1:             9e8077add272b0f3cad6f7df79ec5211205f459d
 **********************************************************************************************************************************

 THRESHOLDS:

 ZERO    =  1.00D-12  ONEINT  =  1.00D-16  TWOINT  =  1.00D-16  PREFAC  =  1.00D-14  LOCALI  =  1.00D-09  EORDER  =  1.00D-04
 ENERGY  =  1.00D-12  ETEST   =  0.00D+00  EDENS   =  0.00D+00  THRDEDEF=  1.00D-06  GRADIENT=  1.00D-02  STEP    =  1.00D-03
 ORBITAL =  1.00D-10  CIVEC   =  1.00D-05  COEFF   =  1.00D-04  PRINTCI =  5.00D-02  PUNCHCI =  9.90D+01  OPTGRAD =  1.00D-06
 OPTENERG=  1.00D-06  OPTSTEP =  3.00D-04  THRGRAD =  1.00D-10  COMPRESS=  1.00D-13  VARMIN  =  1.00D-07  VARMAX  =  1.00D-03
 THRDOUB =  0.00D+00  THRDIV  =  1.00D-05  THRRED  =  1.00D-07  THRPSP  =  1.00D+00  THRDC   =  1.00D-10  THRCS   =  1.00D-10
 THRNRM  =  1.00D-08  THREQ   =  0.00D+00  THRDE   =  1.00D+00  THRREF  =  1.00D-05  SPARFAC =  1.00D+00  THRDLP  =  1.00D-07
 THRDIA  =  1.00D-10  THRDLS  =  1.00D-07  THRGPS  =  0.00D+00  THRKEX  =  0.00D+00  THRDIS  =  2.00D-01  THRVAR  =  1.00D-10
 THRLOC  =  1.00D-06  THRGAP  =  1.00D-06  THRLOCT = -1.00D+00  THRGAPT = -1.00D+00  THRORB  =  1.00D-06  THRMLTP =  0.00D+00
 THRCPQCI=  1.00D-10  KEXTA   =  0.00D+00  THRCOARS=  0.00D+00  SYMTOL  =  1.00D-06  GRADTOL =  1.00D-06  THROVL  =  1.00D-08
 THRORTH =  1.00D-08  GRID    =  1.00D-06  GRIDMAX =  1.00D-03  DTMAX   =  0.00D+00

 SETTING GEOMTYP        =    XYZ
 ZUNIT=BOHR
 

 Variable memory set to 1000000000 words,  buffer space   230000 words

 SETTING BASIS          =    CC-PVDZ


 Recomputing integrals since basis changed


 Using spherical harmonics

 Library entry H      S cc-pVDZ              selected for orbital group  1
 Library entry H      P cc-pVDZ              selected for orbital group  1
 Library entry O      S cc-pVDZ              selected for orbital group  2
 Library entry O      P cc-pVDZ              selected for orbital group  2
 Library entry O      D cc-pVDZ              selected for orbital group  2

1PROGRAM * SEWARD (Integral evaluation for generally contracted gaussian basis sets)     Author: Roland Lindh, 1990

 Geometry written to block  1 of record 700


 Point group  C2v 



 ATOMIC COORDINATES

 NR  ATOM    CHARGE       X              Y              Z

   1  H       1.00    0.000000000   -1.425600643    0.998529139
   2  H       1.00    0.000000000    1.425600643    0.998529139
   3  O       8.00    0.000000000    0.000000000   -0.130714658

 Bond lengths in Bohr (Angstrom)

 1-3  1.818661251  2-3  1.818661251
     ( 0.962394085)     ( 0.962394085)

 Bond angles

  1-3-2  103.23324969

 NUCLEAR CHARGE:                   10
 NUMBER OF PRIMITIVE AOS:          41
 NUMBER OF SYMMETRY AOS:           40
 NUMBER OF CONTRACTIONS:           24   (  11A1  +   4B1  +   7B2  +   2A2  )
 NUMBER OF CORE ORBITALS:           1   (   1A1  +   0B1  +   0B2  +   0A2  )
 NUMBER OF VALENCE ORBITALS:        6   (   3A1  +   1B1  +   2B2  +   0A2  )


 NUCLEAR REPULSION ENERGY    9.14840952


 Eigenvalues of metric

         1 0.176E-01 0.513E-01 0.160E+00 0.223E+00 0.519E+00 0.986E+00 0.101E+01 0.129E+01
         2 0.183E+00 0.525E+00 0.110E+01 0.224E+01
         3 0.453E-01 0.987E-01 0.171E+00 0.668E+00 0.102E+01 0.116E+01 0.254E+01
         4 0.624E+00 0.132E+01


 Contracted 2-electron integrals neglected if value below      1.0D-16
 AO integral compression algorithm  1   Integral accuracy      1.0D-16

     0.262 MB (compressed) written to integral file (100.0%)

     Node minimum: 0.262 MB, node maximum: 0.262 MB


 NUMBER OF SORTED TWO-ELECTRON INTEGRALS:      13826.     BUFFER LENGTH:  32768
 NUMBER OF SEGMENTS:   1  SEGMENT LENGTH:      13826      RECORD LENGTH: 524288

 Memory used in sort:       0.57 MW

 SORT1 READ       19080. AND WROTE       12665. INTEGRALS IN      1 RECORDS. CPU TIME:     0.00 SEC, REAL TIME:     0.00 SEC
 SORT2 READ       12665. AND WROTE       13826. INTEGRALS IN      1 RECORDS. CPU TIME:     0.00 SEC, REAL TIME:     0.00 SEC

 FILE SIZES:   FILE 1:     2.7 MBYTE,  FILE 4:     4.2 MBYTE,   TOTAL:      6.9 MBYTE

 OPERATOR DM      FOR CENTER  0  COORDINATES:    0.000000    0.000000    0.000000


 **********************************************************************************************************************************
 DATASETS  * FILE   NREC   LENGTH (MB)   RECORD NAMES
              1      19        2.69       500      610      700      900      950      970     1000      129      960     1100   
                                          VAR    BASINP    GEOM    SYMINP    ZMAT    AOBASIS   BASIS     P2S    ABASIS      S 
                                         1400     1410     1200     1210     1080     1600     1650     1300     1700   
                                           T        V       H0       H01     AOSYM     SMH    MOLCAS    ERIS     OPER   

 PROGRAMS   *        TOTAL       INT
 CPU TIMES  *         0.10      0.06
 REAL TIME  *         0.28 SEC
 DISK USED  *         7.70 MB      
 GA USED    *         0.00 MB       (max)       0.00 MB       (current)
 **********************************************************************************************************************************

1PROGRAM * RHF-SCF (CLOSED SHELL)       Authors: W. Meyer, H.-J. Werner


 NUMBER OF ELECTRONS:       5+    5-
 CONVERGENCE THRESHOLDS:    1.00E-10 (Density)    1.00E-13 (Energy)
 MAX. NUMBER OF ITERATIONS:      200
 INTERPOLATION TYPE:            DIIS
 INTERPOLATION STEPS:              2 (START)      1 (STEP)
 LEVEL SHIFTS:                  0.00 (CLOSED)  0.00 (OPEN) 



 Orbital guess generated from atomic densities. Full valence occupancy:    4   1   2   0

 Molecular orbital dump at record        2100.2

 Initial alpha occupancy:   3   1   1   0
 Initial beta  occupancy:   3   1   1   0
 Wave function symmetry:    1

 ITERATION    DDIFF          GRAD             ENERGY        2-EL.EN.            DIPOLE MOMENTS         DIIS
    1      0.000D+00      0.000D+00       -75.98792748     77.799738    0.00000    0.00000    1.16199    0
    2      0.000D+00      0.415D-01       -76.01770863     74.537553    0.00000    0.00000    0.75919    1
    3      0.777D-01      0.218D-01       -76.02625391     75.864313    0.00000    0.00000    0.83565    2
    4      0.255D-01      0.247D-02       -76.02647350     75.766697    0.00000    0.00000    0.82308    3
    5      0.477D-02      0.665D-03       -76.02649161     75.778894    0.00000    0.00000    0.81934    4
    6      0.151D-02      0.104D-03       -76.02649219     75.778843    0.00000    0.00000    0.81870    5
    7      0.239D-03      0.150D-04       -76.02649220     75.778783    0.00000    0.00000    0.81859    6
    8      0.420D-04      0.121D-05       -76.02649220     75.778770    0.00000    0.00000    0.81858    5
    9      0.270D-05      0.149D-06       -76.02649220     75.778775    0.00000    0.00000    0.81858    5
   10      0.338D-06      0.465D-07       -76.02649220     75.778773    0.00000    0.00000    0.81858    5
   11      0.743D-07      0.840D-08       -76.02649220     75.778773    0.00000    0.00000    0.81858    5
   12      0.177D-07      0.162D-08       -76.02649220     75.778773    0.00000    0.00000    0.81858    5
   13      0.345D-08      0.310D-09       -76.02649220     75.778773    0.00000    0.00000    0.81858    6
   14      0.695D-09      0.884D-10       -76.02649220     75.778773    0.00000    0.00000    0.81858    6
   15      0.239D-09      0.135D-10       -76.02649220     75.778773    0.00000    0.00000    0.81858    6
   16      0.363D-10      0.209D-11       -76.02649220     75.778773    0.00000    0.00000    0.81858    0

 Final occupancy:   3   1   1   0

 !RHF STATE 1.1 Energy                -76.026492200043
 Nuclear energy                         9.14840952
 One-electron energy                 -123.06428842
 Two-electron energy                   37.88938671
 Virial quotient                       -1.00073111
 !RHF STATE 1.1 Dipole moment           0.00000000     0.00000000     0.81858381
 Dipole moment /Debye                   0.00000000     0.00000000     2.08049624

 Orbital energies:

         1.1          2.1          3.1          4.1          5.1
    -20.552037    -1.335110    -0.568245     0.184439     0.855237

         1.2          2.2          3.2
     -0.493248     1.199978     1.666553

         1.3          2.3          3.3
     -0.694117     0.255636     0.781331

         1.4          2.4
      1.479168     3.329020


 **********************************************************************************************************************************
 DATASETS  * FILE   NREC   LENGTH (MB)   RECORD NAMES
              1      19        2.69       500      610      700      900      950      970     1000      129      960     1100   
                                          VAR    BASINP    GEOM    SYMINP    ZMAT    AOBASIS   BASIS     P2S    ABASIS      S 
                                         1400     1410     1200     1210     1080     1600     1650     1300     1700   
                                           T        V       H0       H01     AOSYM     SMH    MOLCAS    ERIS     OPER   

              2       3        0.29       700     1000     2100   
                                         GEOM     BASIS     RHF  

 PROGRAMS   *        TOTAL       RHF       INT
 CPU TIMES  *         0.11      0.01      0.06
 REAL TIME  *         0.30 SEC
 DISK USED  *         7.70 MB      
 GA USED    *         0.00 MB       (max)       0.00 MB       (current)
 **********************************************************************************************************************************


1PROGRAM * CCSD (Closed-shell coupled cluster)     Authors: C. Hampel, H.-J. Werner, 1991, M. Deegan, P.J. Knowles, 1992


 Convergence thresholds:  THRVAR = 1.00D-08  THRDEN = 1.00D-12

 CCSD(T)     terms to be evaluated (factor= 1.000)


 Number of core orbitals:           1 (   1   0   0   0 )
 Number of closed-shell orbitals:   4 (   2   1   1   0 )
 Number of external orbitals:      19 (   8   3   6   2 )

 Molecular orbitals read from record     2100.2  Type=RHF/CANONICAL (state 1.1)

 Number of N-1 electron functions:               4
 Number of N-2 electron functions:              10
 Number of singly external CSFs:                25
 Number of doubly external CSFs:               805
 Total number of CSFs:                         831

 Length of J-op  integral file:               0.00 MB
 Length of K-op  integral file:               0.04 MB
 Length of 3-ext integral record:             0.00 MB

 Memory could be reduced to 0.30 Mwords without degradation in triples

 Integral transformation finished. Total CPU:   0.00 sec, npass=  1  Memory used:   0.07 MW

 Reference energy:                    -76.02649220

 MP2 singlet pair energy:              -0.12591207
 MP2 triplet pair energy:              -0.07621195
 MP2 correlation energy:               -0.20212402
 MP2 total energy:                    -76.22861622

 SCS-MP2 correlation energy:           -0.19851525   (PS=  1.200000  PT=  0.333333)
 SCS-MP2 total energy:                -76.22500745

 ITER.      SQ.NORM     CORR.ENERGY   TOTAL ENERGY   ENERGY CHANGE        DEN1      VAR(S)    VAR(P)  DIIS     TIME
   1      1.05311260    -0.21066470   -76.23715690    -0.00854068    -0.00493843  0.28D-03  0.68D-03  1  1     0.00
   2      1.05630224    -0.21160219   -76.23809439    -0.00093748    -0.00390384  0.53D-05  0.58D-04  2  2     0.00
   3      1.05709595    -0.21167734   -76.23816954    -0.00007515    -0.00059901  0.20D-05  0.23D-05  3  3     0.00
   4      1.05727556    -0.21168019   -76.23817239    -0.00000286    -0.00009781  0.12D-06  0.13D-06  4  4     0.00
   5      1.05730912    -0.21167873   -76.23817093     0.00000146    -0.00001554  0.33D-07  0.75D-08  5  5     0.00
   6      1.05731378    -0.21167867   -76.23817087     0.00000006     0.00000038  0.42D-08  0.81D-09  6  6     0.00
   7      1.05731646    -0.21167861   -76.23817081     0.00000006    -0.00000026  0.16D-09  0.68D-10  6  1     0.00
   8      1.05731683    -0.21167857   -76.23817077     0.00000005     0.00000006  0.40D-11  0.47D-11  6  2     0.00
   9      1.05731693    -0.21167856   -76.23817076     0.00000001    -0.00000005  0.93D-13  0.29D-12  6  3     0.01
  10      1.05731696    -0.21167855   -76.23817075     0.00000000    -0.00000002  0.19D-14  0.82D-14  6  4     0.01
  11      1.05731697    -0.21167855   -76.23817075     0.00000000    -0.00000000  0.16D-15  0.32D-15  6  6     0.01
  12      1.05731697    -0.21167855   -76.23817075     0.00000000    -0.00000000  0.29D-17  0.12D-16  6  5     0.01
  13      1.05731697    -0.21167855   -76.23817075    -0.00000000    -0.00000000  0.77D-18  0.89D-18  6  1     0.01
  14      1.05731697    -0.21167855   -76.23817075     0.00000000    -0.00000000  0.23D-18  0.74D-19  6  2     0.01
  15      1.05731697    -0.21167855   -76.23817075     0.00000000    -0.00000000  0.56D-19  0.75D-20  6  3     0.01
  16      1.05731697    -0.21167855   -76.23817075     0.00000000    -0.00000000  0.47D-20  0.14D-20  6  4     0.01

 Norm of t1 vector:      0.02391730      S-energy:    -0.00000000      T1 diagnostic:  0.00597932
                                                                       D1 diagnostic:  0.01128950

 Doubles amplitudes (print threshold =  0.500E-01):

         I         J         SYM. A    SYM. B    A         B      T(IJ, AB)

         3         3         2         2         1         1     -0.05142093


 Total CPU time for triples:      0.00 sec


 RESULTS
 =======

  Reference energy                    -76.026492200043
  CCSD singlet pair energy             -0.143680899339
  CCSD triplet pair energy             -0.067997654587
  CCSD correlation energy              -0.211678553927

  Triples (T) contribution             -0.003070961258
  Total correlation energy             -0.214749515185

  CCSD total energy                   -76.238170753970
  CCSD[T] energy                      -76.241328631804
  CCSD-T energy                       -76.241185901208
 !CCSD(T) total energy                -76.241241715228

 Timing summary (sec):

 STEP                 CPU(USER)    SYS     CPU(TOT)    WALL
 CCSD iterations         0.01      0.00      0.01      0.04

 Program statistics:

 Available memory in ccsd:               999999836
 Min. memory needed in ccsd:                  5661
 Max. memory used in ccsd:                    6126
 Max. memory used in cckext:                 38485 (16 integral passes)



 **********************************************************************************************************************************
 DATASETS  * FILE   NREC   LENGTH (MB)   RECORD NAMES
              1      20        2.76       500      610      700      900      950      970     1000      129      960     1100   
                                          VAR    BASINP    GEOM    SYMINP    ZMAT    AOBASIS   BASIS     P2S    ABASIS      S 
                                         1400     1410     1200     1210     1080     1600     1650     1300     1700     1380   
                                           T        V       H0       H01     AOSYM     SMH    MOLCAS    ERIS     OPER     JKOP   

              2       3        0.29       700     1000     2100   
                                         GEOM     BASIS     RHF  

 PROGRAMS   *        TOTAL   CCSD(T)       RHF       INT
 CPU TIMES  *         0.13      0.02      0.01      0.06
 REAL TIME  *         0.37 SEC
 DISK USED  *         7.70 MB      
 GA USED    *         0.00 MB       (max)       0.00 MB       (current)
 **********************************************************************************************************************************

        CCSD(T)         RHF-SCF 
    -76.24124172    -76.02649220
 **********************************************************************************************************************************
 Variable memory released
