
 Primary working directories    : /tmp/795519.108.gen4.q
 Secondary working directories  : /tmp/795519.108.gen4.q
 Wavefunction directory         : /home/vulcan/mel64643/wfu/
 Main file repository           : /tmp/795519.108.gen4.q/

 ARCHNAME  : Linux/x86_64
 FC        : /opt/intel/compilers_and_libraries_2016.1.150/linux/bin/intel64/ifort
 FCVERSION : 16.0.1
 BLASLIB   : -mkl
 id        : ccgc

 Nodes     nprocs
 n022         1
 ga_uses_ma=false, calling ma_init with nominal heap.
 GA-space will be limited to   8.0 MW (determined by -G option)

 Using customized tuning parameters: mindgm=10; mindgv=16; mindgc=4; mindgr=1; noblas=0; mincuda=1000; minvec=7
 default implementation of scratch files=df  

 ***,Optimization of min3
 memory,1000,m
 gthresh,energy=1.0d-12,orbital=1.0d-10,oneint=1.0d-16,twoint=1.0d-16,optgrad=1.0d-6,compress=1.0d-13
 geomtyp=xyz
 
  bohr
  geometry = {
  6
  arbitrary comment
  C   -1.3747666362   -0.0241480246    0.0000003132
  O    1.3140161272    0.1233729506    0.0000003192
  H   -2.0780742258    1.9136885256   -0.0000800736
  H   -2.1115623392   -0.9828263105    1.6854032077
  H   -2.1115553832   -0.9829578788   -1.6853308546
  H    1.9382182971   -1.5772613823   -0.0000013219
 }
 
 basis=cc-pvdz
 {rhf;maxit,200}
 {ccsd(t);maxit,200}

 Variables initialized (661), CPU time= 0.00 sec
 Commands  initialized (458), CPU time= 0.00 sec, 486 directives.
 Default parameters read. Elapsed time= 0.06 sec

 Checking input...
 Passed
1


                                         ***  PROGRAM SYSTEM MOLPRO  ***
                         Copyright, University College Cardiff Consultants Limited, 2008

                                    Version 2010.1 linked May 16 2016 07:17:05


 **********************************************************************************************************************************
 LABEL *   Optimization of min3                                                          
 Linux-4.4.3/n022(x86_64) 64 bit mpp version                                             DATE: 24-Oct-22          TIME: 15:43:06  
 **********************************************************************************************************************************

 SHA1:             9e8077add272b0f3cad6f7df79ec5211205f459d
 **********************************************************************************************************************************

 THRESHOLDS:

 ZERO    =  1.00D-12  ONEINT  =  1.00D-16  TWOINT  =  1.00D-16  PREFAC  =  1.00D-14  LOCALI  =  1.00D-09  EORDER  =  1.00D-04
 ENERGY  =  1.00D-12  ETEST   =  0.00D+00  EDENS   =  0.00D+00  THRDEDEF=  1.00D-06  GRADIENT=  1.00D-02  STEP    =  1.00D-03
 ORBITAL =  1.00D-10  CIVEC   =  1.00D-05  COEFF   =  1.00D-04  PRINTCI =  5.00D-02  PUNCHCI =  9.90D+01  OPTGRAD =  1.00D-06
 OPTENERG=  1.00D-06  OPTSTEP =  3.00D-04  THRGRAD =  1.00D-10  COMPRESS=  1.00D-13  VARMIN  =  1.00D-07  VARMAX  =  1.00D-03
 THRDOUB =  0.00D+00  THRDIV  =  1.00D-05  THRRED  =  1.00D-07  THRPSP  =  1.00D+00  THRDC   =  1.00D-10  THRCS   =  1.00D-10
 THRNRM  =  1.00D-08  THREQ   =  0.00D+00  THRDE   =  1.00D+00  THRREF  =  1.00D-05  SPARFAC =  1.00D+00  THRDLP  =  1.00D-07
 THRDIA  =  1.00D-10  THRDLS  =  1.00D-07  THRGPS  =  0.00D+00  THRKEX  =  0.00D+00  THRDIS  =  2.00D-01  THRVAR  =  1.00D-10
 THRLOC  =  1.00D-06  THRGAP  =  1.00D-06  THRLOCT = -1.00D+00  THRGAPT = -1.00D+00  THRORB  =  1.00D-06  THRMLTP =  0.00D+00
 THRCPQCI=  1.00D-10  KEXTA   =  0.00D+00  THRCOARS=  0.00D+00  SYMTOL  =  1.00D-06  GRADTOL =  1.00D-06  THROVL  =  1.00D-08
 THRORTH =  1.00D-08  GRID    =  1.00D-06  GRIDMAX =  1.00D-03  DTMAX   =  0.00D+00

 SETTING GEOMTYP        =    XYZ
 ZUNIT=BOHR
 

 Variable memory set to 1000000000 words,  buffer space   230000 words

 SETTING BASIS          =    CC-PVDZ


 Recomputing integrals since basis changed


 Using spherical harmonics

 Library entry C      S cc-pVDZ              selected for orbital group  1
 Library entry C      P cc-pVDZ              selected for orbital group  1
 Library entry C      D cc-pVDZ              selected for orbital group  1
 Library entry O      S cc-pVDZ              selected for orbital group  2
 Library entry O      P cc-pVDZ              selected for orbital group  2
 Library entry O      D cc-pVDZ              selected for orbital group  2
 Library entry H      S cc-pVDZ              selected for orbital group  3
 Library entry H      P cc-pVDZ              selected for orbital group  3

1PROGRAM * SEWARD (Integral evaluation for generally contracted gaussian basis sets)     Author: Roland Lindh, 1990

 Geometry written to block  1 of record 700


 Point group  C1  



 ATOMIC COORDINATES

 NR  ATOM    CHARGE       X              Y              Z

   1  C       6.00   -1.374766636   -0.024148025    0.000000313
   2  O       8.00    1.314016127    0.123372951    0.000000319
   3  H       1.00   -2.078074226    1.913688526   -0.000080074
   4  H       1.00   -2.111562339   -0.982826311    1.685403208
   5  H       1.00   -2.111555383   -0.982957879   -1.685330855
   6  H       1.00    1.938218297   -1.577261382   -0.000001322

 Bond lengths in Bohr (Angstrom)

 1-2  2.692826617  1-3  2.061516934  1-4  2.074250438  1-5  2.074250501  2-6  1.811569895
     ( 1.424982473)     ( 1.090907777)     ( 1.097646058)     ( 1.097646091)     ( 0.958641501)

 Bond angles

  1-2-6  107.01479274   2-1-3  106.80717352   2-1-4  112.33348251   2-1-5  112.33348986

  3-1-4  108.25822265   3-1-5  108.25806529   4-1-5  108.68547564

 NUCLEAR CHARGE:                   18
 NUMBER OF PRIMITIVE AOS:          82
 NUMBER OF SYMMETRY AOS:           80
 NUMBER OF CONTRACTIONS:           48   (  48A   )
 NUMBER OF CORE ORBITALS:           2   (   2A   )
 NUMBER OF VALENCE ORBITALS:       12   (  12A   )


 NUCLEAR REPULSION ENERGY   40.22101103


 Eigenvalues of metric

         1 0.970E-02 0.177E-01 0.371E-01 0.377E-01 0.383E-01 0.478E-01 0.483E-01 0.518E-01


 Contracted 2-electron integrals neglected if value below      1.0D-16
 AO integral compression algorithm  1   Integral accuracy      1.0D-16

     6.291 MB (compressed) written to integral file ( 97.5%)

     Node minimum: 6.291 MB, node maximum: 6.291 MB


 NUMBER OF SORTED TWO-ELECTRON INTEGRALS:     692076.     BUFFER LENGTH:  32768
 NUMBER OF SEGMENTS:   1  SEGMENT LENGTH:     692076      RECORD LENGTH: 524288

 Memory used in sort:       1.25 MW

 SORT1 READ      832256. AND WROTE      682131. INTEGRALS IN      2 RECORDS. CPU TIME:     0.01 SEC, REAL TIME:     0.01 SEC
 SORT2 READ      682131. AND WROTE      692076. INTEGRALS IN     24 RECORDS. CPU TIME:     0.02 SEC, REAL TIME:     0.03 SEC

 FILE SIZES:   FILE 1:     8.0 MBYTE,  FILE 4:     8.4 MBYTE,   TOTAL:     16.4 MBYTE

 OPERATOR DM      FOR CENTER  0  COORDINATES:    0.000000    0.000000    0.000000


 **********************************************************************************************************************************
 DATASETS  * FILE   NREC   LENGTH (MB)   RECORD NAMES
              1      19        8.01       500      610      700      900      950      970     1000      129      960     1100   
                                          VAR    BASINP    GEOM    SYMINP    ZMAT    AOBASIS   BASIS     P2S    ABASIS      S 
                                         1400     1410     1200     1210     1080     1600     1650     1300     1700   
                                           T        V       H0       H01     AOSYM     SMH    MOLCAS    ERIS     OPER   

 PROGRAMS   *        TOTAL       INT
 CPU TIMES  *         0.34      0.28
 REAL TIME  *         0.52 SEC
 DISK USED  *        23.32 MB      
 GA USED    *         0.00 MB       (max)       0.00 MB       (current)
 **********************************************************************************************************************************

1PROGRAM * RHF-SCF (CLOSED SHELL)       Authors: W. Meyer, H.-J. Werner


 NUMBER OF ELECTRONS:       9+    9-    SPACE SYMMETRY=1    SPIN SYMMETRY: Singlet 
 CONVERGENCE THRESHOLDS:    1.00E-10 (Density)    1.00E-13 (Energy)
 MAX. NUMBER OF ITERATIONS:      200
 INTERPOLATION TYPE:            DIIS
 INTERPOLATION STEPS:              2 (START)      1 (STEP)
 LEVEL SHIFTS:                  0.00 (CLOSED)  0.00 (OPEN) 



 Orbital guess generated from atomic densities. Full valence occupancy:   14

 Molecular orbital dump at record        2100.2

 ITERATION    DDIFF          GRAD             ENERGY        2-EL.EN.            DIPOLE MOMENTS         DIIS
    1      0.000D+00      0.000D+00      -115.01399786    164.209707   -0.50757   -0.90240   -0.00000    0
    2      0.000D+00      0.110D-01      -115.04236551    162.006721   -0.32296   -0.53559   -0.00000    1
    3      0.205D-01      0.533D-02      -115.04846205    163.026674   -0.40780   -0.61128   -0.00000    2
    4      0.642D-02      0.112D-02      -115.04892605    162.871516   -0.39712   -0.60022   -0.00000    3
    5      0.204D-02      0.202D-03      -115.04894716    162.878084   -0.39981   -0.59595   -0.00000    4
    6      0.435D-03      0.354D-04      -115.04894796    162.878068   -0.40008   -0.59575   -0.00000    5
    7      0.927D-04      0.722D-05      -115.04894799    162.876934   -0.40020   -0.59558   -0.00000    6
    8      0.149D-04      0.230D-05      -115.04894799    162.877313   -0.40023   -0.59556   -0.00000    7
    9      0.485D-05      0.485D-06      -115.04894799    162.877270   -0.40024   -0.59556   -0.00000    6
   10      0.139D-05      0.832D-07      -115.04894799    162.877269   -0.40024   -0.59556   -0.00000    6
   11      0.225D-06      0.311D-07      -115.04894799    162.877274   -0.40024   -0.59556   -0.00000    6
   12      0.560D-07      0.126D-07      -115.04894799    162.877272   -0.40024   -0.59556   -0.00000    7
   13      0.233D-07      0.283D-08      -115.04894799    162.877272   -0.40024   -0.59556   -0.00000    7
   14      0.706D-08      0.635D-09      -115.04894799    162.877272   -0.40024   -0.59556   -0.00000    7
   15      0.164D-08      0.144D-09      -115.04894799    162.877272   -0.40024   -0.59556   -0.00000    7
   16      0.320D-09      0.428D-10      -115.04894799    162.877272   -0.40024   -0.59556   -0.00000    7
   17      0.848D-10      0.153D-10      -115.04894799    162.877272   -0.40024   -0.59556   -0.00000    7
   18      0.391D-10      0.280D-11      -115.04894799    162.877272   -0.40024   -0.59556   -0.00000    7
   19      0.657D-11      0.608D-12      -115.04894799    162.877272   -0.40024   -0.59556   -0.00000    7
   20      0.153D-11      0.266D-12      -115.04894799    162.877272   -0.40024   -0.59556   -0.00000    7
   21      0.480D-12      0.637D-13      -115.04894799    162.877272   -0.40024   -0.59556   -0.00000    7
   22      0.140D-12      0.173D-13      -115.04894799    162.877272   -0.40024   -0.59556   -0.00000    7
   23      0.562D-13      0.765D-14      -115.04894799    162.877272   -0.40024   -0.59556   -0.00000    0

 Final occupancy:   9

 !RHF STATE 1.1 Energy               -115.048947993965
 Nuclear energy                        40.22101103
 One-electron energy                 -236.70859524
 Two-electron energy                   81.43863621
 Virial quotient                       -1.00107787
 !RHF STATE 1.1 Dipole moment          -0.40024367    -0.59556070    -0.00000278
 Dipole moment /Debye                  -1.01725130    -1.51366517    -0.00000706

 Orbital energies:

         1.1          2.1          3.1          4.1          5.1          6.1          7.1          8.1          9.1         10.1
    -20.550372   -11.276021    -1.349076    -0.920626    -0.682121    -0.612522    -0.583632    -0.497843    -0.443447     0.184352

        11.1
      0.224305


 **********************************************************************************************************************************
 DATASETS  * FILE   NREC   LENGTH (MB)   RECORD NAMES
              1      19        8.01       500      610      700      900      950      970     1000      129      960     1100   
                                          VAR    BASINP    GEOM    SYMINP    ZMAT    AOBASIS   BASIS     P2S    ABASIS      S 
                                         1400     1410     1200     1210     1080     1600     1650     1300     1700   
                                           T        V       H0       H01     AOSYM     SMH    MOLCAS    ERIS     OPER   

              2       3        0.39       700     1000     2100   
                                         GEOM     BASIS     RHF  

 PROGRAMS   *        TOTAL       RHF       INT
 CPU TIMES  *         0.46      0.12      0.28
 REAL TIME  *         0.69 SEC
 DISK USED  *        23.32 MB      
 GA USED    *         0.00 MB       (max)       0.00 MB       (current)
 **********************************************************************************************************************************


1PROGRAM * CCSD (Closed-shell coupled cluster)     Authors: C. Hampel, H.-J. Werner, 1991, M. Deegan, P.J. Knowles, 1992


 Convergence thresholds:  THRVAR = 1.00D-08  THRDEN = 1.00D-12

 CCSD(T)     terms to be evaluated (factor= 1.000)


 Number of core orbitals:           2 (   2 )
 Number of closed-shell orbitals:   7 (   7 )
 Number of external orbitals:      39 (  39 )

 Molecular orbitals read from record     2100.2  Type=RHF/CANONICAL (state 1.1)

 Number of N-1 electron functions:               7
 Number of N-2 electron functions:              28
 Number of singly external CSFs:               273
 Number of doubly external CSFs:             37401
 Total number of CSFs:                       37675

 Length of J-op  integral file:               0.00 MB
 Length of K-op  integral file:               0.19 MB
 Length of 3-ext integral record:             0.00 MB

 Memory could be reduced to 0.96 Mwords without degradation in triples

 Integral transformation finished. Total CPU:   0.02 sec, npass=  1  Memory used:   0.66 MW

 Reference energy:                   -115.04894799

 MP2 singlet pair energy:              -0.21886310
 MP2 triplet pair energy:              -0.11988585
 MP2 correlation energy:               -0.33874895
 MP2 total energy:                   -115.38769694

 SCS-MP2 correlation energy:           -0.33723136   (PS=  1.200000  PT=  0.333333)
 SCS-MP2 total energy:               -115.38617935

 ITER.      SQ.NORM     CORR.ENERGY   TOTAL ENERGY   ENERGY CHANGE        DEN1      VAR(S)    VAR(P)  DIIS     TIME
   1      1.10762166    -0.36155573  -115.41050373    -0.02280679    -0.01408663  0.92D-03  0.18D-02  1  1     0.07
   2      1.11620340    -0.36350965  -115.41245765    -0.00195392    -0.00928353  0.20D-04  0.16D-03  2  2     0.12
   3      1.11811213    -0.36363915  -115.41258714    -0.00012949    -0.00121776  0.97D-05  0.87D-05  3  3     0.17
   4      1.11863575    -0.36363771  -115.41258570     0.00000144    -0.00025837  0.34D-06  0.69D-06  4  4     0.22
   5      1.11873592    -0.36363812  -115.41258612    -0.00000041    -0.00003669  0.10D-06  0.50D-07  5  5     0.27
   6      1.11875539    -0.36363674  -115.41258474     0.00000138    -0.00000446  0.16D-07  0.42D-08  6  6     0.31
   7      1.11876020    -0.36363632  -115.41258431     0.00000043    -0.00000035  0.20D-08  0.73D-09  6  1     0.36
   8      1.11876148    -0.36363642  -115.41258441    -0.00000010     0.00000075  0.26D-09  0.73D-10  6  3     0.41
   9      1.11876256    -0.36363629  -115.41258429     0.00000013    -0.00000039  0.13D-10  0.11D-10  6  2     0.46
  10      1.11876248    -0.36363630  -115.41258429    -0.00000000     0.00000007  0.11D-11  0.89D-12  6  5     0.51
  11      1.11876252    -0.36363629  -115.41258429     0.00000000    -0.00000000  0.19D-12  0.51D-13  6  4     0.56
  12      1.11876250    -0.36363630  -115.41258429    -0.00000000     0.00000001  0.19D-13  0.10D-13  6  1     0.61
  13      1.11876250    -0.36363630  -115.41258429    -0.00000000    -0.00000000  0.24D-14  0.94D-15  6  6     0.66
  14      1.11876250    -0.36363630  -115.41258429     0.00000000    -0.00000000  0.23D-15  0.13D-15  6  3     0.71
  15      1.11876251    -0.36363630  -115.41258429    -0.00000000    -0.00000000  0.25D-16  0.17D-16  6  2     0.76
  16      1.11876251    -0.36363630  -115.41258429    -0.00000000    -0.00000000  0.57D-17  0.16D-17  6  5     0.81
  17      1.11876251    -0.36363630  -115.41258429    -0.00000000    -0.00000000  0.54D-18  0.26D-18  6  4     0.86
  18      1.11876251    -0.36363630  -115.41258429     0.00000000    -0.00000000  0.84D-19  0.43D-19  6  1     0.91
  19      1.11876251    -0.36363630  -115.41258429    -0.00000000    -0.00000000  0.93D-20  0.44D-20  6  6     0.96
  20      1.11876251    -0.36363630  -115.41258429     0.00000000     0.00000000  0.13D-20  0.56D-21  6  3     1.01

 Norm of t1 vector:      0.04189449      S-energy:    -0.00000000      T1 diagnostic:  0.00791731
                                                                       D1 diagnostic:  0.01767154


 Total CPU time for triples:      0.24 sec


 RESULTS
 =======

  Reference energy                   -115.048947993965
  CCSD singlet pair energy             -0.254898288146
  CCSD triplet pair energy             -0.108738006980
  CCSD correlation energy              -0.363636295126

  Triples (T) contribution             -0.007774469878
  Total correlation energy             -0.371410765004

  CCSD total energy                  -115.412584289091
  CCSD[T] energy                     -115.420652448835
  CCSD-T energy                      -115.420206902702
 !CCSD(T) total energy               -115.420358758969

 Timing summary (sec):

 STEP                 CPU(USER)    SYS     CPU(TOT)    WALL
 Transformation          0.02      0.00      0.02      0.03
 CCSD iterations         1.00      0.06      1.06      1.07
 Triples                 0.24      0.00      0.24      0.26

 Program statistics:

 Available memory in ccsd:               999999704
 Min. memory needed in ccsd:                136801
 Max. memory used in ccsd:                  163198
 Max. memory used in cckext:                182024 (20 integral passes)



 **********************************************************************************************************************************
 DATASETS  * FILE   NREC   LENGTH (MB)   RECORD NAMES
              1      20       10.54       500      610      700      900      950      970     1000      129      960     1100   
                                          VAR    BASINP    GEOM    SYMINP    ZMAT    AOBASIS   BASIS     P2S    ABASIS      S 
                                         1400     1410     1200     1210     1080     1600     1650     1300     1700     1380   
                                           T        V       H0       H01     AOSYM     SMH    MOLCAS    ERIS     OPER     JKOP   

              2       3        0.39       700     1000     2100   
                                         GEOM     BASIS     RHF  

 PROGRAMS   *        TOTAL   CCSD(T)       RHF       INT
 CPU TIMES  *         1.74      1.28      0.12      0.28
 REAL TIME  *         2.07 SEC
 DISK USED  *        24.75 MB      
 GA USED    *         0.00 MB       (max)       0.00 MB       (current)
 **********************************************************************************************************************************

        CCSD(T)         RHF-SCF 
   -115.42035876   -115.04894799
 **********************************************************************************************************************************
 Variable memory released
