
 Primary working directories    : /tmp/333988.40.gen4.q
 Secondary working directories  : /tmp/333988.40.gen4.q
 Wavefunction directory         : /home/vulcan/mel64643/wfu/
 Main file repository           : /tmp/333988.40.gen4.q/

 ARCHNAME  : Linux/x86_64
 FC        : /opt/intel/compilers_and_libraries_2016.1.150/linux/bin/intel64/ifort
 FCVERSION : 16.0.1
 BLASLIB   : -mkl
 id        : ccgc

 Nodes     nprocs
 n067         3
 Number of processes for MPI-2 version of Molpro:   nprocs(total)=    4   nprocs(compute)=    3   nprocs(helper)=    1
 ga_uses_ma=false, calling ma_init with nominal heap.
 GA-space will be limited to   8.0 MW (determined by -G option)

 Using customized tuning parameters: mindgm=10; mindgv=16; mindgc=4; mindgr=1; noblas=0; mincuda=1000; minvec=7
 default implementation of scratch files=sf  

 ***,Optimization of min3
 memory,1000,m
 gthresh,energy=1.0d-10,orbital=1.0d-10,oneint=1.0d-16,twoint=1.0d-16,optgrad=1.0d-6,compress=1.0d-13
 geomtyp=xyz
 
  bohr
  geometry = {
  12
  arbitrary comment
  C         -3.1005365353          1.5865698990          0.0190573870
  C         -0.8651290691         -0.0689481788         -0.6563409999
  C         -1.1189581981         -2.7804317924          0.2470130366
  O          1.3114802728          1.1047728784          0.5888992215
  O          3.4493750794          0.1200847120         -0.2517781179
  H         -4.8090236866          0.8375017950         -0.8594745775
  H         -2.7939768711          3.5226679183         -0.6149421229
  H         -3.4081779931          1.5949586784          2.0596402275
  H         -0.4569204897         -0.0098342164         -2.6769621556
  H         -2.6883460624         -3.6945394236         -0.7319414742
  H         -1.4598062085         -2.8155464815          2.2820628671
  H          0.5997665452         -3.8385238923         -0.1618544383
 }
 
 basis=cc-pvtz
 {rhf;maxit,200}
 {uccsd(t);maxit,200}

 Variables initialized (661), CPU time= 0.00 sec
 Commands  initialized (458), CPU time= 0.00 sec, 486 directives.
 Default parameters read. Elapsed time= 0.06 sec

 Checking input...
 Passed
1


                                         ***  PROGRAM SYSTEM MOLPRO  ***
                         Copyright, University College Cardiff Consultants Limited, 2008

                                    Version 2010.1 linked May 16 2016 07:17:05


 **********************************************************************************************************************************
 LABEL *   Optimization of min3                                                          
 Linux-4.4.3/n067(x86_64) 64 bit mpp version                                             DATE: 15-Jul-20          TIME: 15:03:53  
 **********************************************************************************************************************************

 SHA1:             9e8077add272b0f3cad6f7df79ec5211205f459d
 **********************************************************************************************************************************

 THRESHOLDS:

 ZERO    =  1.00D-12  ONEINT  =  1.00D-16  TWOINT  =  1.00D-16  PREFAC  =  1.00D-14  LOCALI  =  1.00D-09  EORDER  =  1.00D-04
 ENERGY  =  1.00D-10  ETEST   =  0.00D+00  EDENS   =  0.00D+00  THRDEDEF=  1.00D-06  GRADIENT=  1.00D-02  STEP    =  1.00D-03
 ORBITAL =  1.00D-10  CIVEC   =  1.00D-05  COEFF   =  1.00D-04  PRINTCI =  5.00D-02  PUNCHCI =  9.90D+01  OPTGRAD =  1.00D-06
 OPTENERG=  1.00D-06  OPTSTEP =  3.00D-04  THRGRAD =  1.00D-10  COMPRESS=  1.00D-13  VARMIN  =  1.00D-07  VARMAX  =  1.00D-03
 THRDOUB =  0.00D+00  THRDIV  =  1.00D-05  THRRED  =  1.00D-07  THRPSP  =  1.00D+00  THRDC   =  1.00D-10  THRCS   =  1.00D-10
 THRNRM  =  1.00D-08  THREQ   =  0.00D+00  THRDE   =  1.00D+00  THRREF  =  1.00D-05  SPARFAC =  1.00D+00  THRDLP  =  1.00D-07
 THRDIA  =  1.00D-10  THRDLS  =  1.00D-07  THRGPS  =  0.00D+00  THRKEX  =  0.00D+00  THRDIS  =  2.00D-01  THRVAR  =  1.00D-10
 THRLOC  =  1.00D-06  THRGAP  =  1.00D-06  THRLOCT = -1.00D+00  THRGAPT = -1.00D+00  THRORB  =  1.00D-06  THRMLTP =  0.00D+00
 THRCPQCI=  1.00D-10  KEXTA   =  0.00D+00  THRCOARS=  0.00D+00  SYMTOL  =  1.00D-06  GRADTOL =  1.00D-06  THROVL  =  1.00D-08
 THRORTH =  1.00D-08  GRID    =  1.00D-06  GRIDMAX =  1.00D-03  DTMAX   =  0.00D+00

 SETTING GEOMTYP        =    XYZ
 ZUNIT=BOHR
 

 Variable memory set to 1000000000 words,  buffer space   230000 words

 SETTING BASIS          =    CC-PVTZ


 Recomputing integrals since basis changed


 Using spherical harmonics

 Library entry C      S cc-pVTZ              selected for orbital group  1
 Library entry C      P cc-pVTZ              selected for orbital group  1
 Library entry C      D cc-pVTZ              selected for orbital group  1
 Library entry C      F cc-pVTZ              selected for orbital group  1
 Library entry O      S cc-pVTZ              selected for orbital group  2
 Library entry O      P cc-pVTZ              selected for orbital group  2
 Library entry O      D cc-pVTZ              selected for orbital group  2
 Library entry O      F cc-pVTZ              selected for orbital group  2
 Library entry H      S cc-pVTZ              selected for orbital group  3
 Library entry H      P cc-pVTZ              selected for orbital group  3
 Library entry H      D cc-pVTZ              selected for orbital group  3

1PROGRAM * SEWARD (Integral evaluation for generally contracted gaussian basis sets)     Author: Roland Lindh, 1990

 Geometry written to block  1 of record 700


 Point group  C1  



 ATOMIC COORDINATES

 NR  ATOM    CHARGE       X              Y              Z

   1  C       6.00   -3.100536535    1.586569899    0.019057387
   2  C       6.00   -0.865129069   -0.068948179   -0.656341000
   3  C       6.00   -1.118958198   -2.780431792    0.247013037
   4  O       8.00    1.311480273    1.104772878    0.588899221
   5  O       8.00    3.449375079    0.120084712   -0.251778118
   6  H       1.00   -4.809023687    0.837501795   -0.859474578
   7  H       1.00   -2.793976871    3.522667918   -0.614942123
   8  H       1.00   -3.408177993    1.594958678    2.059640228
   9  H       1.00   -0.456920490   -0.009834216   -2.676962156
  10  H       1.00   -2.688346062   -3.694539424   -0.731941474
  11  H       1.00   -1.459806209   -2.815546482    2.282062867
  12  H       1.00    0.599766545   -3.838523892   -0.161854438

 Bond lengths in Bohr (Angstrom)

 1-2  2.862507577  1-6  2.062001402  1-7  2.060196531  1-8  2.063659848  2-3  2.869254455
     ( 1.514773770)     ( 1.091164147)     ( 1.090209050)     ( 1.092041759)     ( 1.518344065)

  2- 4  2.768731218   2- 9  2.062289640   3-10  2.063231195   3-11  2.063695283   3-12  2.059307225
       ( 1.465149458)       ( 1.091316676)       ( 1.091814925)       ( 1.092060510)       ( 1.089738450)

 4-5  2.499388601
     ( 1.322619484)

 Bond angles

  1-2-3  113.77675726   1-2-4  105.22603467   1-2-9  111.66489766   2-1-6  109.65883664

  2- 1- 7  110.77479898   2- 1- 8  110.61434554   2- 3-10  109.66936390   2- 3-11  109.94757489

  2- 3-12  110.43916844   2- 4- 5  110.74137158   3- 2- 4  109.18120559   3- 2- 9  110.67562281

  4-2-9  105.83717912   6-1-7  109.48539756   6-1-8  107.41270509   7-1-8  108.82378177

 10- 3-11  109.55554245  10- 3-12  108.23997876  11- 3-12  108.95924080

 NUCLEAR CHARGE:                   41
 NUMBER OF PRIMITIVE AOS:         354
 NUMBER OF SYMMETRY AOS:          322
 NUMBER OF CONTRACTIONS:          248   ( 248A   )
 NUMBER OF CORE ORBITALS:           5   (   5A   )
 NUMBER OF VALENCE ORBITALS:       27   (  27A   )


 NUCLEAR REPULSION ENERGY  186.62545829


 Eigenvalues of metric

         1 0.809E-03 0.953E-03 0.110E-02 0.124E-02 0.136E-02 0.150E-02 0.160E-02 0.164E-02


 Contracted 2-electron integrals neglected if value below      1.0D-16
 AO integral compression algorithm  1   Integral accuracy      1.0D-16

     3372.220 MB (compressed) written to integral file ( 82.1%)

     Node minimum: 1115.423 MB, node maximum: 1135.608 MB


 NUMBER OF SORTED TWO-ELECTRON INTEGRALS:  158903334.     BUFFER LENGTH:  32768
 NUMBER OF SEGMENTS:  10  SEGMENT LENGTH:   15997437      RECORD LENGTH: 524288

 Memory used in sort:      16.55 MW

 SORT1 READ   513525647. AND WROTE   152640423. INTEGRALS IN    442 RECORDS. CPU TIME:    16.65 SEC, REAL TIME:    18.08 SEC
 SORT2 READ   459416193. AND WROTE   476679126. INTEGRALS IN  12996 RECORDS. CPU TIME:     2.28 SEC, REAL TIME:    12.69 SEC

 Node minimum:   158882750.  Node maximum:   158903334. integrals

 OPERATOR DM      FOR CENTER  0  COORDINATES:    0.000000    0.000000    0.000000


 **********************************************************************************************************************************
 DATASETS  * FILE   NREC   LENGTH (MB)   RECORD NAMES
              1      18        5.04       500      610      700      900      950      970     1000      129      960     1100   
                                          VAR    BASINP    GEOM    SYMINP    ZMAT    AOBASIS   BASIS     P2S    ABASIS      S 
                                         1400     1410     1200     1210     1080     1600     1650     1700   
                                           T        V       H0       H01     AOSYM     SMH    MOLCAS    OPER   

 PROGRAMS   *        TOTAL       INT
 CPU TIMES  *        25.58     25.54
 REAL TIME  *        38.92 SEC
 DISK USED  *         8.83 GB      
 GA USED    *         0.01 MB       (max)       0.00 MB       (current)
 **********************************************************************************************************************************

1PROGRAM * RHF-SCF (OPEN SHELL)       Authors: W. Meyer, H.-J. Werner


 NUMBER OF ELECTRONS:      21+   20-    SPACE SYMMETRY=1    SPIN SYMMETRY: Doublet 
 CONVERGENCE THRESHOLDS:    1.00E-10 (Density)    1.00E-11 (Energy)
 MAX. NUMBER OF ITERATIONS:      200
 INTERPOLATION TYPE:            DIIS
 INTERPOLATION STEPS:              2 (START)      1 (STEP)
 LEVEL SHIFTS:                 -0.30 (CLOSED)  0.00 (OPEN) 



 Orbital guess generated from atomic densities. Full valence occupancy:   32

 Molecular orbital dump at record        2100.2

 ITERATION    DDIFF          GRAD             ENERGY        2-EL.EN.            DIPOLE MOMENTS         DIIS
    1      0.000D+00      0.000D+00      -267.26090827    559.799325   -1.77566   -0.06963   -0.09616    0
    2      0.000D+00      0.326D-02      -267.33451520    562.646199   -1.01488   -0.43170   -0.35808    1
    3      0.471D-02      0.230D-02      -267.36107729    561.599026   -1.18868   -0.24322   -0.21598    2
    4      0.211D-02      0.546D-03      -267.36932454    561.786061   -0.97720   -0.31621   -0.29707    3
    5      0.927D-03      0.485D-03      -267.37355460    561.828382   -0.92160   -0.31835   -0.30139    4
    6      0.583D-03      0.272D-03      -267.37548305    561.795420   -0.88024   -0.31169   -0.29932    5
    7      0.486D-03      0.133D-03      -267.37581937    561.781223   -0.89021   -0.30011   -0.29123    6
    8      0.258D-03      0.357D-04      -267.37584139    561.778476   -0.88978   -0.29685   -0.28973    7
    9      0.852D-04      0.190D-04      -267.37585249    561.778688   -0.89231   -0.29737   -0.28979    8
   10      0.451D-04      0.823D-05      -267.37585432    561.778586   -0.89349   -0.29674   -0.28949    9
   11      0.199D-04      0.322D-05      -267.37585457    561.778535   -0.89412   -0.29658   -0.28933    9
   12      0.785D-05      0.148D-05      -267.37585463    561.778757   -0.89426   -0.29668   -0.28937    9
   13      0.371D-05      0.527D-06      -267.37585464    561.778811   -0.89427   -0.29674   -0.28940    9
   14      0.149D-05      0.296D-06      -267.37585464    561.778808   -0.89426   -0.29675   -0.28940    9
   15      0.811D-06      0.143D-06      -267.37585464    561.778815   -0.89426   -0.29676   -0.28940    9
   16      0.416D-06      0.723D-07      -267.37585464    561.778816   -0.89425   -0.29676   -0.28941    9
   17      0.175D-06      0.348D-07      -267.37585464    561.778811   -0.89425   -0.29676   -0.28941    9
   18      0.118D-06      0.211D-07      -267.37585464    561.778808   -0.89425   -0.29676   -0.28941    9
   19      0.774D-07      0.136D-07      -267.37585464    561.778809   -0.89425   -0.29676   -0.28941    9
   20      0.655D-07      0.100D-07      -267.37585464    561.778808   -0.89425   -0.29676   -0.28941    9
   21      0.756D-07      0.828D-08      -267.37585464    561.778807   -0.89425   -0.29676   -0.28941    9
   22      0.101D-06      0.649D-08      -267.37585464    561.778807   -0.89425   -0.29676   -0.28941    9
   23      0.108D-06      0.404D-08      -267.37585464    561.778806   -0.89425   -0.29676   -0.28941    9
   24      0.881D-07      0.217D-08      -267.37585464    561.778806   -0.89425   -0.29676   -0.28941    9
   25      0.338D-07      0.899D-09      -267.37585464    561.778806   -0.89425   -0.29676   -0.28941    9
   26      0.691D-08      0.392D-09      -267.37585464    561.778806   -0.89425   -0.29676   -0.28941    9
   27      0.410D-08      0.171D-09      -267.37585464    561.778806   -0.89425   -0.29676   -0.28941    9
   28      0.496D-09      0.840D-10      -267.37585464    561.778806   -0.89425   -0.29676   -0.28941    9
   29      0.261D-09      0.406D-10      -267.37585464    561.778806   -0.89425   -0.29676   -0.28941    9
   30      0.139D-09      0.184D-10      -267.37585464    561.778806   -0.89425   -0.29676   -0.28941    9
   31      0.468D-10      0.146D-10      -267.37585464    561.778806   -0.89425   -0.29676   -0.28941    0

 Final alpha occupancy:  21
 Final beta  occupancy:  20

 !RHF STATE 1.1 Energy               -267.375854641140
 Nuclear energy                       186.62545829
 One-electron energy                 -734.89071592
 Two-electron energy                  280.88940299
 Virial quotient                       -1.00116707
 !RHF STATE 1.1 Dipole moment          -0.89425269    -0.29675911    -0.28940635
 Dipole moment /Debye                  -2.27281474    -0.75423703    -0.73554939

 Orbital energies:

         1.1          2.1          3.1          4.1          5.1          6.1          7.1          8.1          9.1         10.1
    -20.648682   -20.640328   -11.297467   -11.229090   -11.225472    -1.523508    -1.170917    -1.034494    -0.952894    -0.819451

        11.1         12.1         13.1         14.1         15.1         16.1         17.1         18.1         19.1         20.1
     -0.695196    -0.667906    -0.652731    -0.594716    -0.564518    -0.556154    -0.545057    -0.501764    -0.488907    -0.465262

        21.1         22.1         23.1
     -0.562884     0.137697     0.175041


 **********************************************************************************************************************************
 DATASETS  * FILE   NREC   LENGTH (MB)   RECORD NAMES
              1      18        5.04       500      610      700      900      950      970     1000      129      960     1100   
                                          VAR    BASINP    GEOM    SYMINP    ZMAT    AOBASIS   BASIS     P2S    ABASIS      S 
                                         1400     1410     1200     1210     1080     1600     1650     1700   
                                           T        V       H0       H01     AOSYM     SMH    MOLCAS    OPER   

              2       3        2.21       700     1000     2100   
                                         GEOM     BASIS     RHF  

 PROGRAMS   *        TOTAL       RHF       INT
 CPU TIMES  *        85.65     60.07     25.54
 REAL TIME  *       102.73 SEC
 DISK USED  *         8.87 GB      
 SF USED    *         0.25 MB      
 GA USED    *         0.01 MB       (max)       0.00 MB       (current)
 **********************************************************************************************************************************


1PROGRAM * CCSD (Unrestricted open-shell coupled cluster)     Authors: C. Hampel, H.-J. Werner, 1991, M. Deegan, P.J. Knowles, 1992


 Convergence thresholds:  THRVAR = 1.00D-08  THRDEN = 1.00D-10

 CCSD(T)     terms to be evaluated (factor= 1.000)


 Number of core orbitals:           5 (   5 )
 Number of closed-shell orbitals:  15 (  15 )
 Number of active  orbitals:        1 (   1 )
 Number of external orbitals:     227 ( 227 )

 Memory could be reduced to 332.02 Mwords without degradation in triples

 Number of N-1 electron functions:              31
 Number of N-2 electron functions:             465
 Number of singly external CSFs:              7068
 Number of doubly external CSFs:          18353430
 Total number of CSFs:                    18360498

 Molecular orbitals read from record     2100.2  Type=RHF/CANONICAL (state 1.1)

 Integral transformation finished. Total CPU:  37.66 sec, npass=  1  Memory used: 145.25 MW

 Starting RMP2 calculation

 ITER.      SQ.NORM     CORR.ENERGY   TOTAL ENERGY   ENERGY CHANGE        DEN1      VAR(S)    VAR(P)  DIIS     TIME
   1      1.26537254    -0.96761139  -268.34346604    -0.96761139    -0.00323718  0.26D-04  0.11D-02  1  1    43.26
   2      1.26815821    -0.97110186  -268.34695650    -0.00349046    -0.00000666  0.10D-05  0.23D-05  2  2    47.00
   3      1.26823816    -0.97115477  -268.34700941    -0.00005291    -0.00000008  0.54D-07  0.11D-07  3  3    50.74
   4      1.26823986    -0.97115458  -268.34700922     0.00000019    -0.00000000  0.16D-08  0.12D-09  4  4    54.44
   5      1.26824012    -0.97115466  -268.34700930    -0.00000009    -0.00000000  0.19D-10  0.45D-11  5  5    58.40
   6      1.26824018    -0.97115470  -268.34700934    -0.00000003    -0.00000000  0.51D-13  0.56D-13  6  6    63.02
   7      1.26824018    -0.97115469  -268.34700934     0.00000000    -0.00000000  0.15D-14  0.85D-15  6  1    67.70
   8      1.26824018    -0.97115469  -268.34700934     0.00000000    -0.00000000  0.16D-16  0.79D-17  6  2    72.34
   9      1.26824018    -0.97115469  -268.34700934    -0.00000000    -0.00000000  0.32D-18  0.10D-18  6  3    76.84

 Norm of t1 vector:      0.04589022      S-energy:    -0.00446737      T1 diagnostic:  0.00074411
 Norm of t2 vector:      0.51588203      P-energy:    -0.96668733
                                         Alpha-Beta:  -0.73708703
                                         Alpha-Alpha: -0.11899207
                                         Beta-Beta:   -0.11060822

 Spin contamination <S**2-Sz**2-Sz>     0.00145397
  Reference energy                   -267.375854641141
  RHF-RMP2 correlation energy          -0.971154694061
 !RHF-RMP2 energy                    -268.347009335201

 Starting UCCSD calculation

 ITER.      SQ.NORM     CORR.ENERGY   TOTAL ENERGY   ENERGY CHANGE        DEN1      VAR(S)    VAR(P)  DIIS     TIME
   1      1.27984642    -0.97927068  -268.35512532    -0.97927068    -0.02933269  0.65D-02  0.54D-02  1  1   158.54
   2      1.30625197    -1.00589549  -268.38175013    -0.02662482    -0.00363538  0.62D-03  0.97D-03  2  2   240.18
   3      1.32290371    -1.01271951  -268.38857415    -0.00682402    -0.00091227  0.75D-03  0.76D-04  3  3   323.01
   4      1.33414091    -1.01537819  -268.39123283    -0.00265867    -0.00038537  0.31D-03  0.33D-04  4  4   405.10
   5      1.34921700    -1.01737551  -268.39323015    -0.00199732    -0.00011811  0.10D-03  0.90D-05  5  5   486.49
   6      1.36075222    -1.01839847  -268.39425311    -0.00102296    -0.00001820  0.93D-05  0.32D-05  6  6   568.09
   7      1.36445906    -1.01864022  -268.39449486    -0.00024175    -0.00000318  0.16D-05  0.61D-06  6  1   650.00
   8      1.36506607    -1.01868253  -268.39453717    -0.00004231    -0.00000068  0.27D-06  0.15D-06  6  2   733.31
   9      1.36538885    -1.01870112  -268.39455577    -0.00001859    -0.00000015  0.67D-07  0.32D-07  6  4   816.40
  10      1.36537550    -1.01869986  -268.39455450     0.00000127    -0.00000002  0.11D-07  0.43D-08  6  3   898.71
  11      1.36543819    -1.01870496  -268.39455960    -0.00000510    -0.00000000  0.23D-08  0.94D-09  6  5   980.31
  12      1.36541776    -1.01870088  -268.39455552     0.00000408    -0.00000000  0.68D-09  0.17D-09  6  2  1062.95
  13      1.36541345    -1.01870007  -268.39455472     0.00000081    -0.00000000  0.39D-09  0.44D-10  6  6  1145.38
  14      1.36540734    -1.01869923  -268.39455387     0.00000084    -0.00000000  0.28D-09  0.18D-10  6  1  1250.10
  15      1.36540531    -1.01869893  -268.39455357     0.00000030    -0.00000000  0.24D-09  0.11D-10  6  4  1355.88
  16      1.36540744    -1.01869920  -268.39455384    -0.00000027    -0.00000000  0.17D-09  0.93D-11  6  3  1438.08
  17      1.36541066    -1.01869959  -268.39455423    -0.00000038    -0.00000000  0.88D-10  0.89D-11  6  5  1519.53
  18      1.36541223    -1.01869963  -268.39455428    -0.00000005    -0.00000000  0.32D-10  0.42D-11  6  2  1601.35
  19      1.36541244    -1.01869972  -268.39455436    -0.00000008    -0.00000000  0.73D-11  0.14D-11  6  1  1683.17
  20      1.36541123    -1.01869954  -268.39455418     0.00000018    -0.00000000  0.24D-11  0.61D-12  6  2  1764.84
  21      1.36540973    -1.01869940  -268.39455404     0.00000014    -0.00000000  0.37D-12  0.15D-12  6  6  1846.44
  22      1.36540929    -1.01869935  -268.39455400     0.00000004    -0.00000000  0.65D-13  0.35D-13  6  4  1929.13
  23      1.36540908    -1.01869933  -268.39455398     0.00000002    -0.00000000  0.20D-13  0.74D-14  6  5  2011.45
  24      1.36540909    -1.01869934  -268.39455398    -0.00000000    -0.00000000  0.57D-14  0.13D-14  6  3  2093.31
  25      1.36540908    -1.01869934  -268.39455398     0.00000000    -0.00000000  0.28D-14  0.43D-15  6  5  2175.07
  26      1.36540909    -1.01869934  -268.39455398    -0.00000000    -0.00000000  0.44D-15  0.13D-15  6  2  2257.49
  27      1.36540909    -1.01869934  -268.39455398    -0.00000000    -0.00000000  0.12D-15  0.49D-16  6  1  2339.23
  28      1.36540909    -1.01869934  -268.39455398     0.00000000    -0.00000000  0.42D-16  0.50D-17  6  6  2421.13

 Norm of t1 vector:      0.23125758      S-energy:    -0.00501474      T1 diagnostic:  0.02849709
                                                                       D1 diagnostic:  0.14604168
 Norm of t2 vector:      0.55850606      P-energy:    -1.01368460
                                         Alpha-Beta:  -0.80138201
                                         Alpha-Alpha: -0.10868512
                                         Beta-Beta:   -0.10361747

 Singles amplitudes (print threshold =  0.500E-01):

         I         SYM. A    A   T(IA) [Beta-Beta]

         8         1         1     -0.09542427
         9         1         1      0.10217629
        11         1         1     -0.05346778
        12         1         1     -0.07113705
        14         1         1     -0.11244563

 Spin contamination <S**2-Sz**2-Sz>     0.00176121

 Memory could be reduced to 360.52 Mwords without degradation in triples
 

 RESULTS
 =======

  Reference energy                   -267.375854641141
  UCCSD singles energy                 -0.005014741001
  UCCSD pair energy                    -1.013684597992
  UCCSD correlation energy             -1.018699338994
  Triples (T) contribution             -0.040836794861
  Total correlation energy             -1.059536133855
 
  RHF-UCCSD energy                   -268.394553980134
  RHF-UCCSD[T] energy                -268.438713689012
  RHF-UCCSD-T energy                 -268.434893045733
 !RHF-UCCSD(T) energy                -268.435390774995

 Program statistics:

 Available memory in ccsd:               999997692
 Min. memory needed in ccsd:              51505734
 Max. memory used in ccsd:                74803578
 Max. memory used in cckext:              59475747 (28 integral passes)
 Max. memory used in cckint:             145249478 ( 1 integral passes)



 **********************************************************************************************************************************
 DATASETS  * FILE   NREC   LENGTH (MB)   RECORD NAMES
              1      18        5.04       500      610      700      900      950      970     1000      129      960     1100   
                                          VAR    BASINP    GEOM    SYMINP    ZMAT    AOBASIS   BASIS     P2S    ABASIS      S 
                                         1400     1410     1200     1210     1080     1600     1650     1700   
                                           T        V       H0       H01     AOSYM     SMH    MOLCAS    OPER   

              2       3        2.21       700     1000     2100   
                                         GEOM     BASIS     RHF  

 PROGRAMS   *        TOTAL  UCCSD(T)       RHF       INT
 CPU TIMES  *      4090.28   4004.63     60.07     25.54
 REAL TIME  *      4210.86 SEC
 DISK USED  *        15.85 GB      
 SF USED    *         6.57 GB      
 GA USED    *         0.01 MB       (max)       0.00 MB       (current)
 **********************************************************************************************************************************

        UCCSD(T)        RHF-SCF 
   -268.43539077   -267.37585464
 **********************************************************************************************************************************
 Variable memory released
