
    -----------------------------------------------------------------------
          Psi4: An Open-Source Ab Initio Electronic Structure Package
                               Psi4 1.4a2.dev629 

                         Git: Rev {master} 2938fc2 dirty


    D. G. A. Smith, L. A. Burns, A. C. Simmonett, R. M. Parrish,
    M. C. Schieber, R. Galvelis, P. Kraus, H. Kruse, R. Di Remigio,
    A. Alenaizan, A. M. James, S. Lehtola, J. P. Misiewicz, M. Scheurer,
    R. A. Shaw, J. B. Schriber, Y. Xie, Z. L. Glick, D. A. Sirianni,
    J. S. O'Brien, J. M. Waldrop, A. Kumar, E. G. Hohenstein,
    B. P. Pritchard, B. R. Brooks, H. F. Schaefer III, A. Yu. Sokolov,
    K. Patkowski, A. E. DePrince III, U. Bozkaya, R. A. King,
    F. A. Evangelista, J. M. Turney, T. D. Crawford, C. D. Sherrill,
    J. Chem. Phys. 152(18) 184108 (2020). https://doi.org/10.1063/5.0006002

                            Additional Code Authors
    E. T. Seidl, C. L. Janssen, E. F. Valeev, M. L. Leininger,
    J. F. Gonthier, R. M. Richard, H. R. McAlexander, M. Saitow, X. Wang,
    P. Verma, and M. H. Lechner

             Previous Authors, Complete List of Code Contributors,
                       and Citations for Specific Modules
    https://github.com/psi4/psi4/blob/master/codemeta.json
    https://github.com/psi4/psi4/graphs/contributors
    http://psicode.org/psi4manual/master/introduction.html#citing-psifour

    -----------------------------------------------------------------------


    Psi4 started on: Wednesday, 21 September 2022 04:19PM

    Process ID: 87591
    Host:       n071
    PSIDATADIR: /opt/psi/4/master/share/psi4
    Memory:     500.0 MiB
    Threads:    1
    
  ==> Input File <==

--------------------------------------------------------------------------
# o-Benzyne preliminary computations

memory 14 gb

molecule {
  0 1
  units bohr
 C   -1.3750731100   -0.0242768600    0.0000003500
 O    1.3060163600    0.1207012800    0.0000003000
 H   -2.0778739500    1.9096129200   -0.0000799100
 H   -2.1089875800   -0.9792726900    1.6819738900
 H   -2.1089805500   -0.9794039300   -1.6819017300
 H    1.9411746700   -1.5774928400   -0.0000013100
}

set {
  basis cc-pvtz
  reference rhf
  e_convergence 10 
  d_convergence 10
  r_convergence 8
  maxiter 300
  freeze_core True
}

e, wfn = energy('ccsd(t)', return_wfn = True)
psi4.print_out('Giraffe The Energy is %.12f \n'%(e))
--------------------------------------------------------------------------

  Memory set to  13.039 GiB by Python driver.

Scratch directory: /tmp/

*** tstart() called on n071
*** at Wed Sep 21 16:19:56 2022

   => Loading Basis Set <=

    Name: CC-PVTZ
    Role: ORBITAL
    Keyword: BASIS
    atoms 1   entry C          line   186 file /opt/psi/4/master/share/psi4/basis/cc-pvtz.gbs 
    atoms 2   entry O          line   262 file /opt/psi/4/master/share/psi4/basis/cc-pvtz.gbs 
    atoms 3-6 entry H          line    23 file /opt/psi/4/master/share/psi4/basis/cc-pvtz.gbs 


         ---------------------------------------------------------
                                   SCF
               by Justin Turney, Rob Parrish, Andy Simmonett
                          and Daniel G. A. Smith
                              RHF Reference
                        1 Threads,  13351 MiB Core
         ---------------------------------------------------------

  ==> Geometry <==

    Molecular point group: c1
    Full point group: C1

    Geometry (in Bohr), charge = 0, multiplicity = 1:

       Center              X                  Y                   Z               Mass       
    ------------   -----------------  -----------------  -----------------  -----------------
         C           -1.375073110847    -0.024276858461     0.000000354135    12.000000000000
         O            1.306016359153     0.120701281539     0.000000304135    15.994914619570
         H           -2.077873950847     1.909612921539    -0.000079905865     1.007825032230
         H           -2.108987580847    -0.979272688461     1.681973894135     1.007825032230
         H           -2.108980550847    -0.979403928461    -1.681901725865     1.007825032230
         H            1.941174669153    -1.577492838461    -0.000001305865     1.007825032230

  Running in c1 symmetry.

  Rotational constants: A =      4.28208  B =      0.82705  C =      0.79795 [cm^-1]
  Rotational constants: A = 128373.38402  B =  24794.34267  C =  23921.99541 [MHz]
  Nuclear repulsion =   40.307747671479852

  Charge       = 0
  Multiplicity = 1
  Electrons    = 18
  Nalpha       = 9
  Nbeta        = 9

  ==> Algorithm <==

  SCF Algorithm Type is PK.
  DIIS enabled.
  MOM disabled.
  Fractional occupation disabled.
  Guess Type is SAD.
  Energy threshold   = 1.00e-10
  Density threshold  = 1.00e-10
  Integral threshold = 0.00e+00

  ==> Primary Basis <==

  Basis Set: CC-PVTZ
    Blend: CC-PVTZ
    Number of shells: 44
    Number of basis function: 116
    Number of Cartesian functions: 130
    Spherical Harmonics?: true
    Max angular momentum: 3

  ==> Integral Setup <==

  Using in-core PK algorithm.
   Calculation information:
      Number of atoms:                   6
      Number of AO shells:              44
      Number of primitives:             84
      Number of atomic orbitals:       130
      Number of basis functions:       116

      Integral cutoff                 1.00e-12
      Number of threads:                 1

  Performing in-core PK
  Using 46056582 doubles for integral storage.
  We computed 490473 shell quartets total.
  Whereas there are 490545 unique shell quartets.

  ==> DiskJK: Disk-Based J/K Matrices <==

    J tasked:                  Yes
    K tasked:                  Yes
    wK tasked:                  No
    Memory [MiB]:            10013
    Schwarz Cutoff:          1E-12

    OpenMP threads:              1

  Minimum eigenvalue in the overlap matrix is 1.8504397623E-03.
  Reciprocal condition number of the overlap matrix is 2.7981554760E-04.
    Using symmetric orthogonalization.

  ==> Pre-Iterations <==

  SCF Guess: Superposition of Atomic Densities via on-the-fly atomic UHF (no occupation information).

   -------------------------
    Irrep   Nso     Nmo    
   -------------------------
     A        116     116 
   -------------------------
    Total     116     116
   -------------------------

  ==> Iterations <==

                        Total Energy        Delta E     RMS |[F,P]|

   @RHF iter SAD:  -114.41439368614263   -1.14414e+02   0.00000e+00 
   @RHF iter   1:  -115.01448558275244   -6.00092e-01   3.41257e-03 DIIS
   @RHF iter   2:  -115.07131155980041   -5.68260e-02   1.95511e-03 DIIS
   @RHF iter   3:  -115.08815184648546   -1.68403e-02   3.00935e-04 DIIS
   @RHF iter   4:  -115.08903614659576   -8.84300e-04   8.77549e-05 DIIS
   @RHF iter   5:  -115.08910963929608   -7.34927e-05   2.14377e-05 DIIS
   @RHF iter   6:  -115.08911450103916   -4.86174e-06   4.73779e-06 DIIS
   @RHF iter   7:  -115.08911486860217   -3.67563e-07   1.09822e-06 DIIS
   @RHF iter   8:  -115.08911489012885   -2.15267e-08   2.26668e-07 DIIS
   @RHF iter   9:  -115.08911489103676   -9.07903e-10   4.21323e-08 DIIS
   @RHF iter  10:  -115.08911489106676   -2.99991e-11   1.08648e-08 DIIS
   @RHF iter  11:  -115.08911489106877   -2.01794e-12   2.22822e-09 DIIS
   @RHF iter  12:  -115.08911489106876    1.42109e-14   3.98567e-10 DIIS
   @RHF iter  13:  -115.08911489106907   -3.12639e-13   7.34566e-11 DIIS
  Energy and wave function converged.


  ==> Post-Iterations <==

    Orbital Energies [Eh]
    ---------------------

    Doubly Occupied:                                                      

       1A    -20.552620     2A    -11.269754     3A     -1.354102  
       4A     -0.923076     5A     -0.687873     6A     -0.617659  
       7A     -0.590047     8A     -0.502057     9A     -0.449146  

    Virtual:                                                              

      10A      0.138409    11A      0.178612    12A      0.220168  
      13A      0.223730    14A      0.290536    15A      0.386809  
      16A      0.404483    17A      0.544501    18A      0.583150  
      19A      0.623035    20A      0.625000    21A      0.637993  
      22A      0.689883    23A      0.703318    24A      0.720937  
      25A      0.833278    26A      0.864641    27A      0.872111  
      28A      0.927873    29A      1.067828    30A      1.100396  
      31A      1.177510    32A      1.189289    33A      1.261364  
      34A      1.272464    35A      1.281864    36A      1.365212  
      37A      1.446650    38A      1.491705    39A      1.521774  
      40A      1.544731    41A      1.582028    42A      1.619396  
      43A      1.772878    44A      2.092316    45A      2.179934  
      46A      2.196940    47A      2.299753    48A      2.322929  
      49A      2.489957    50A      2.511165    51A      2.578309  
      52A      2.805044    53A      2.949582    54A      3.054986  
      55A      3.108515    56A      3.115339    57A      3.145079  
      58A      3.222189    59A      3.242281    60A      3.312644  
      61A      3.313676    62A      3.342104    63A      3.384099  
      64A      3.499491    65A      3.612506    66A      3.633445  
      67A      3.698498    68A      3.705931    69A      3.743812  
      70A      3.759963    71A      3.813650    72A      3.835715  
      73A      3.904098    74A      4.010077    75A      4.028108  
      76A      4.117256    77A      4.159423    78A      4.168523  
      79A      4.245989    80A      4.254602    81A      4.285300  
      82A      4.396842    83A      4.435188    84A      4.463768  
      85A      4.555104    86A      4.579124    87A      4.709673  
      88A      4.780178    89A      4.991181    90A      5.030314  
      91A      5.050145    92A      5.199029    93A      5.264678  
      94A      5.309283    95A      5.365992    96A      5.435037  
      97A      5.538701    98A      5.541604    99A      5.557629  
     100A      5.784726   101A      5.943452   102A      6.187781  
     103A      6.205969   104A      6.243000   105A      6.423806  
     106A      6.635541   107A      6.994316   108A      7.125668  
     109A      7.175976   110A      7.235882   111A      7.352371  
     112A      7.428139   113A      7.594450   114A      7.907707  
     115A     12.127737   116A     13.687646  

    Final Occupation by Irrep:
              A 
    DOCC [     9 ]

  @RHF Final Energy:  -115.08911489106907

   => Energetics <=

    Nuclear Repulsion Energy =             40.3077476714798522
    One-Electron Energy =                -236.9010582406609728
    Two-Electron Energy =                  81.5041956781120405
    Total Energy =                       -115.0891148910690731

Computation Completed


Properties will be evaluated at   0.000000,   0.000000,   0.000000 [a0]

Properties computed using the SCF density matrix

  Nuclear Dipole Moment: [e a0]
     X:    -2.1570      Y:    -0.8066      Z:    -0.0000

  Electronic Dipole Moment: [e a0]
     X:     1.7698      Y:     0.2184      Z:     0.0000

  Dipole Moment: [e a0]
     X:    -0.3872      Y:    -0.5882      Z:    -0.0000     Total:     0.7042

  Dipole Moment: [D]
     X:    -0.9842      Y:    -1.4950      Z:    -0.0000     Total:     1.7899


*** tstop() called on n071 at Wed Sep 21 16:20:00 2022
Module time:
	user time   =       4.43 seconds =       0.07 minutes
	system time =       0.07 seconds =       0.00 minutes
	total time  =          4 seconds =       0.07 minutes
Total time:
	user time   =       4.43 seconds =       0.07 minutes
	system time =       0.07 seconds =       0.00 minutes
	total time  =          4 seconds =       0.07 minutes
 MINTS: Wrapper to libmints.
   by Justin Turney

   Calculation information:
      Number of threads:                 1
      Number of atoms:                   6
      Number of AO shells:              44
      Number of SO shells:              44
      Number of primitives:             84
      Number of atomic orbitals:       130
      Number of basis functions:       116

      Number of irreps:                  1
      Integral cutoff                 0.00e+00
      Number of functions per irrep: [ 116 ]

 OEINTS: Overlap, kinetic, potential, dipole, and quadrupole integrals
         stored in file 35.

      Computing two-electron integrals...done
      Computed 22876330 non-zero two-electron integrals.
        Stored in file 33.


*** tstart() called on n071
*** at Wed Sep 21 16:20:02 2022


	Wfn Parameters:
	--------------------
	Wavefunction         = CCSD_T
	Number of irreps     = 1
	Number of MOs        = 116
	Number of active MOs = 114
	AO-Basis             = NONE
	Semicanonical        = false
	Reference            = RHF
	Print Level          = 1

	IRREP	# MOs	# FZDC	# DOCC	# SOCC	# VIRT	# FZVR
	-----	-----	------	------	------	------	------
	 A	   116	    2	    7	    0	    107	    0
	Transforming integrals...
	IWL integrals will be deleted.
	(OO|OO)...
	Presorting SO-basis two-electron integrals.
	Sorting File: SO Ints (nn|nn) nbuckets = 1
	Transforming the one-electron integrals and constructing Fock matrices
	Starting first half-transformation.
	Sorting half-transformed integrals.
	First half integral transformation complete.
	Starting second half-transformation.
	Two-electron integral transformation complete.
	(OO|OV)...
	Starting second half-transformation.
	Two-electron integral transformation complete.
	(OO|VV)...
	Starting second half-transformation.
	Two-electron integral transformation complete.
	(OV|OO)...
	Starting first half-transformation.
	Sorting half-transformed integrals.
	First half integral transformation complete.
	Starting second half-transformation.
	Two-electron integral transformation complete.
	(OV|OV)...
	Starting second half-transformation.
	Two-electron integral transformation complete.
	(OV|VV)...
	Starting second half-transformation.
	Two-electron integral transformation complete.
	(VV|OO)...
	Starting first half-transformation.
	Sorting half-transformed integrals.
	First half integral transformation complete.
	Starting second half-transformation.
	Two-electron integral transformation complete.
	(VV|OV)...
	Starting second half-transformation.
	Two-electron integral transformation complete.
	(VV|VV)...
	Starting second half-transformation.
	Two-electron integral transformation complete.
	Frozen core energy     =   -106.48984035087130

	Size of irrep 0 of <ab|cd> integrals:    131.080 (MW) /   1048.637 (MB)
	Total:                                   131.080 (MW) /   1048.637 (MB)

	Size of irrep 0 of <ia|bc> integrals:      8.575 (MW) /     68.602 (MB)
	Total:                                     8.575 (MW) /     68.602 (MB)

	Size of irrep 0 of tijab amplitudes:       0.561 (MW) /      4.488 (MB)
	Total:                                     0.561 (MW) /      4.488 (MB)

	Nuclear Rep. energy          =     40.30774767147985
	SCF energy                   =   -115.08911489106907
	One-electron energy          =    -87.56612517837763
	Two-electron energy          =     38.65910296669935
	Reference energy             =   -115.08911489106973

*** tstop() called on n071 at Wed Sep 21 16:20:13 2022
Module time:
	user time   =       7.82 seconds =       0.13 minutes
	system time =       3.16 seconds =       0.05 minutes
	total time  =         11 seconds =       0.18 minutes
Total time:
	user time   =      13.77 seconds =       0.23 minutes
	system time =       3.45 seconds =       0.06 minutes
	total time  =         17 seconds =       0.28 minutes
            **************************
            *                        *
            *        CCENERGY        *
            *                        *
            **************************

    Nuclear Rep. energy (wfn)     =   40.307747671479852
    SCF energy          (wfn)     = -115.089114891069073
    Reference energy    (file100) = -115.089114891069727

    Input parameters:
    -----------------
    Wave function   =     CCSD_T
    Reference wfn   =     RHF
    Brueckner       =     No
    Memory (Mbytes) =     14000.0
    Maxiter         =    300
    R_Convergence   =     1.0e-08
    E_Convergence   =     1.0e-10
    Restart         =     Yes
    DIIS            =     Yes
    AO Basis        =     NONE
    ABCD            =     NEW
    Cache Level     =     2
    Cache Type      =     LOW
    Print Level     =     1
    Num. of threads =     1
    # Amps to Print =     10
    Print MP2 Amps? =     No
    Analyze T2 Amps =     No
    Print Pair Ener =     No
    Local CC        =     No
    SCS-MP2         =     False
    SCSN-MP2        =     False
    SCS-CCSD        =     False

MP2 correlation energy -0.4283342147672477
                Solving CC Amplitude Equations
                ------------------------------
  Iter             Energy              RMS        T1Diag      D1Diag    New D1Diag    D2Diag
  ----     ---------------------    ---------   ----------  ----------  ----------   --------
     0        -0.428334214767248    0.000e+00    0.000000    0.000000    0.000000    0.128386
     1        -0.435619549075519    4.785e-02    0.007307    0.014794    0.014794    0.129725
     2        -0.445454308810814    1.576e-02    0.007423    0.014728    0.014728    0.135515
     3        -0.446925505268611    5.532e-03    0.008330    0.016878    0.016878    0.136963
     4        -0.446833708383724    1.221e-03    0.008390    0.016993    0.016993    0.137198
     5        -0.446876601120771    4.460e-04    0.008429    0.017140    0.017140    0.137301
     6        -0.446884108781154    1.283e-04    0.008440    0.017197    0.017197    0.137309
     7        -0.446881616343911    4.759e-05    0.008443    0.017214    0.017214    0.137306
     8        -0.446881644297251    1.752e-05    0.008444    0.017224    0.017224    0.137306
     9        -0.446881727573759    4.965e-06    0.008445    0.017226    0.017226    0.137306
    10        -0.446881477236880    1.573e-06    0.008445    0.017226    0.017226    0.137306
    11        -0.446881542679215    4.897e-07    0.008445    0.017226    0.017226    0.137306
    12        -0.446881527870423    1.201e-07    0.008445    0.017226    0.017226    0.137306
    13        -0.446881531361408    4.349e-08    0.008445    0.017226    0.017226    0.137306
    14        -0.446881532576246    1.231e-08    0.008445    0.017226    0.017226    0.137306
    15        -0.446881532616804    5.133e-09    0.008445    0.017226    0.017226    0.137306
    16        -0.446881532639761    1.577e-09    0.008445    0.017226    0.017226    0.137306

    Iterations converged.


    Largest TIA Amplitudes:
              3   6        -0.0081346988
              3  14         0.0076005338
              6  14        -0.0067285565
              3   9         0.0067232158
              4   7         0.0058765129
              5   8         0.0058199650
              4   3        -0.0057811595
              6   6         0.0054857236
              3   2         0.0054847199
              4   5        -0.0051546815

    Largest TIjAb Amplitudes:
      3   3   9   9        -0.0231323453
      4   4   7   7        -0.0215785451
      6   6  14  14        -0.0210979591
      5   5  12  12        -0.0203807873
      2   2   7   7        -0.0190547443
      4   4   8   8        -0.0160903263
      3   3  14  14        -0.0151799493
      3   3   2   9        -0.0151166637
      3   3   9   2        -0.0151166637
      3   6   9   9        -0.0150251894

    SCF energy       (wfn)                    = -115.089114891069073
    Reference energy (file100)                = -115.089114891069727

    Opposite-spin MP2 correlation energy      =   -0.330131597621583
    Same-spin MP2 correlation energy          =   -0.098202617145664
    Singles MP2 correlation energy            =   -0.000000000000000
    MP2 correlation energy                    =   -0.428334214767248
      * MP2 total energy                      = -115.517449105836974

    Opposite-spin CCSD correlation energy     =   -0.357718812414009
    Same-spin CCSD correlation energy         =   -0.089162720225751
    Singles CCSD correlation energy           =    0.000000000000000
    CCSD correlation energy                   =   -0.446881532639761
      * CCSD total energy                     = -115.535996423709491

            **************************
            *                        *
            *        CCTRIPLES       *
            *                        *
            **************************


    Wave function   =    CCSD_T
    Reference wfn   =      RHF

    Nuclear Rep. energy (wfn)                =   40.307747671479852
    SCF energy          (wfn)                = -115.089114891069073
    Reference energy    (file100)            = -115.089114891069727
    CCSD energy         (file100)            =   -0.446881532639761
    Total CCSD energy   (file100)            = -115.535996423709491

    Number of ijk index combinations:               84
    Memory available in words        :      1750000000
    ~Words needed per explicit thread:         4900172
    Number of threads for explicit ijk threading:    1

    MKL num_threads set to 1 for explicit threading.

    (T) energy                                =   -0.014790160440446
      * CCSD(T) total energy                  = -115.550786584149932

Giraffe The Energy is -115.550786584150 

    Psi4 stopped on: Wednesday, 21 September 2022 04:20PM
    Psi4 wall time for execution: 0:00:50.07

*** Psi4 exiting successfully. Buy a developer a beer!
