
 Working directory              : /scratch/mel64643/tmp/40073200/
 Global scratch directory       : /scratch/mel64643/tmp/40073200/
 Wavefunction directory         : /home/mel64643/wfu/
 Main file repository           : /scratch/mel64643/tmp/40073200/

 id        : ccgc

 Nodes     nprocs
 a1-8         3
 Distribution of processes:   nprocs(total)=    4   nprocs(compute)=    3   nprocs(helper)=    1
 GA implementation: MPI file
 GA implementation (serial work in mppx): MPI file

 Using customized tuning parameters: mindgm=1; mindgv=20; mindgc=4; mindgr=1; noblas=0; minvec=7
 default implementation of scratch files=sf  


 Variables initialized (1015), CPU time= 0.00 sec
 ***,Optimization of min3
 memory,1000,m
 gthresh,energy=1.0d-12,orbital=1.0d-10,oneint=1.0d-16,twoint=1.0d-16,optgrad=1.0d-6,compress=1.0d-13
 geomtyp=xyz
 
  bohr
  geometry = {
  6
  arbitrary comment
  C   -1.3792779658   -0.0278517267    0.0024803437
  O    1.3065267811    0.1217786472    0.0085639008
  H   -2.0764321829    1.9103297517   -0.0039863758
  H   -2.1067619991   -0.9769912469    1.6823890969
  H   -2.1088798996   -0.9798249695   -1.6826964807
  H    1.9411011064   -1.5775725757   -0.0067588949
 }
 
 basis=cc-pvdz
 {rhf;maxit,200}
 {ccsd(t);maxit,200}
 Commands initialized (818), CPU time= 0.01 sec, 672 directives.
 Default parameters read. Elapsed time= 0.10 sec

 Checking input...
 Passed
1


                                         ***  PROGRAM SYSTEM MOLPRO  ***
                                       Copyright, TTI GmbH Stuttgart, 2015
                                    Version 2022.1 linked Mar  4 2022 00:40:14


 **********************************************************************************************************************************
 LABEL *   Optimization of min3                                                          
  64 bit mpp version                                                                     DATE: 07-Aug-25          TIME: 21:24:35  
 **********************************************************************************************************************************

 SHA1:             31073afc4d8441e10870424e0d77336a33bc4286
 **********************************************************************************************************************************

 Memory per process:      1000 MW
 Total memory per node:   3000 MW

 GA preallocation disabled
 GA check disabled

 Variable memory set to 1000.0 MW


 THRESHOLDS:

 ZERO    =  1.00D-12  ONEINT  =  1.00D-16  TWOINT  =  1.00D-16  PREFAC  =  1.00D-14  XXXXXX  =  1.00D-09  EORDER  =  1.00D-04
 ENERGY  =  1.00D-12  ETEST   =  0.00D+00  EDENS   =  0.00D+00  THRDEDEF=  1.00D-06  GRADIENT=  1.00D-05  STEP    =  1.00D-03
 ORBITAL =  1.00D-10  CIVEC   =  1.00D-05  COEFF   =  1.00D-04  PRINTCI =  5.00D-02  PUNCHCI =  9.90D+01  OPTGRAD =  1.00D-06
 OPTENERG=  1.00D-06  OPTSTEP =  3.00D-04  THRGRAD =  1.00D-10  COMPRESS=  1.00D-13  VARMIN  =  1.00D-07  VARMAX  =  1.00D-03
 THRDOUB =  0.00D+00  THRDIV  =  1.00D-05  THRRED  =  1.00D-07  THRPSP  =  1.00D+00  THRDC   =  1.00D-10  THRCS   =  1.00D-10
 THRNRM  =  1.00D-08  THREQ   =  0.00D+00  THRDE   =  1.00D+00  THRREF  =  1.00D-05  SPARFAC =  1.00D+00  THRDLP  =  1.00D-07
 THRDIA  =  1.00D-10  THRDLS  =  1.00D-07  THRGPS  =  0.00D+00  THRKEX  =  0.00D+00  THRDIS  =  2.00D-01  THRVAR  =  1.00D-10
 THRLOC  =  1.00D-06  THRGAP  =  1.00D-06  THRLOCT = -1.00D+00  THRGAPT = -1.00D+00  THRORB  =  1.00D-06  THRMLTP =  0.00D+00
 THRCPQCI=  1.00D-10  KEXTA   =  0.00D+00  THRCOARS=  0.00D+00  SYMTOL  =  1.00D-06  GRADTOL =  1.00D-06  THROVL  =  1.00D-08
 THRORTH =  1.00D-08  THRDLOVL= -1.00D+00  GRID    =  1.00D-06  GRIDMAX =  1.00D-03  DTMAX   =  0.00D+00  THROCCDE=  1.00D-01
 THROCCDE=  1.00D-01  THRPRINT=  2.50D-01

 SETTING GEOMTYP        =    XYZ
 ZUNIT=BOHR

 SETTING BASIS          =    CC-PVDZ


 Recomputing integrals since basis changed


 Using spherical harmonics

 Library entry C      S cc-pVDZ              selected for orbital group  1
 Library entry C      P cc-pVDZ              selected for orbital group  1
 Library entry C      D cc-pVDZ              selected for orbital group  1
 Library entry O      S cc-pVDZ              selected for orbital group  2
 Library entry O      P cc-pVDZ              selected for orbital group  2
 Library entry O      D cc-pVDZ              selected for orbital group  2
 Library entry H      S cc-pVDZ              selected for orbital group  3
 Library entry H      P cc-pVDZ              selected for orbital group  3


 PROGRAM * SEWARD (Integral evaluation for generally contracted gaussian basis sets)     Author: Roland Lindh, 1990

 Geometry written to block  1 of record 700


 Point group  C1  



 ATOMIC COORDINATES

 NR  ATOM    CHARGE       X              Y              Z

   1  C       6.00   -1.379277966   -0.027851727    0.002480344
   2  O       8.00    1.306526781    0.121778647    0.008563901
   3  H       1.00   -2.076432183    1.910329752   -0.003986376
   4  H       1.00   -2.106761999   -0.976991247    1.682389097
   5  H       1.00   -2.108879900   -0.979824969   -1.682696481
   6  H       1.00    1.941101106   -1.577572576   -0.006758895

 Bond lengths in Bohr (Angstrom)

 1-2  2.689976468  1-3  2.059760487  1-4  2.062084447  1-5  2.068427656  2-6  1.814032508
     ( 1.423474245)     ( 1.089978310)     ( 1.091208096)     ( 1.094564778)     ( 0.959944663)

 Bond angles

  1-2-6  107.28614524   2-1-3  106.59496109   2-1-4  112.08639888   2-1-5  112.31070750

  3-1-4  108.43713493   3-1-5  108.12728087   4-1-5  109.11337192

 NUCLEAR CHARGE:                   18
 NUMBER OF PRIMITIVE AOS:          82
 NUMBER OF SYMMETRY AOS:           80
 NUMBER OF CONTRACTIONS:           48   (   48A   )
 NUMBER OF INNER CORE ORBITALS:     0   (    0A   )
 NUMBER OF OUTER CORE ORBITALS:     2   (    2A   )
 NUMBER OF VALENCE ORBITALS:       12   (   12A   )


 NUCLEAR REPULSION ENERGY   40.27896146

 Eigenvalues of metric

         1 0.965E-02 0.177E-01 0.368E-01 0.373E-01 0.383E-01 0.471E-01 0.477E-01 0.519E-01


 Contracted 2-electron integrals neglected if value below      1.0D-16
 AO integral compression algorithm  1   Integral accuracy      1.0D-16

     7.078 MB (compressed) written to integral file (100.0%)

     Node minimum: 2.359 MB, node maximum: 2.359 MB


 NUMBER OF SORTED TWO-ELECTRON INTEGRALS:     231084.     BUFFER LENGTH:  32768
 NUMBER OF SEGMENTS:   1  SEGMENT LENGTH:     231084      RECORD LENGTH: 524288

 Memory used in sort:       0.79 MW

 SORT1 READ      832256. AND WROTE      227683. INTEGRALS IN      1 RECORDS. CPU TIME:     0.01 SEC, REAL TIME:     0.02 SEC
 SORT2 READ      682150. AND WROTE      692076. INTEGRALS IN     27 RECORDS. CPU TIME:     0.01 SEC, REAL TIME:     0.02 SEC

 Node minimum:      230300.  Node maximum:      231084. integrals

 OPERATOR DM      FOR CENTER  0  COORDINATES:    0.000000    0.000000    0.000000


 **********************************************************************************************************************************
 DATASETS  * FILE   NREC   LENGTH (MB)   RECORD NAMES
              1      18       28.73       500      610      700      900      950      970     1000      129      960     1100   
                                          VAR    BASINP    GEOM    SYMINP    ZMAT    AOBASIS   BASIS     P2S    ABASIS      S 
                                         1400     1410     1200     1210     1080     1600     1650     1700   
                                           T        V       H0       H01     AOSYM     SMH    MOLCAS    OPER   

 PROGRAMS   *        TOTAL       INT
 CPU TIMES  *         0.50      0.36
 REAL TIME  *         1.65 SEC
 DISK USED  *        29.07 MB (local),      104.72 MB (total)
 GA USED    *         0.00 MB       (max)       0.00 MB       (current)
 **********************************************************************************************************************************


 Program * Restricted Hartree-Fock

 Orbital guess generated from atomic densities. Full valence occupancy:   14

 Initial occupancy:   9

 NELEC=   18   SYM=1   MS2= 0   THRE=1.0D-12   THRD=1.0D-10   THRG=1.0D-10  HFMA2=F  DIIS_START=2   DIIS_MAX=10   DIIS_INCORE=F

 Level shifts:    0.00 (CLOSED)    0.00 (OPEN)    0.30 (GAP_MIN)

 ITER           ETOT              DE          GRAD        DDIFF     DIIS  NEXP   TIME(IT)  TIME(TOT)  DIAG
   1     -115.01407274    -115.01407274     0.00D+00     0.16D+00     0     0       0.00      0.00    start
   2     -115.04244502      -0.02837227     0.10D-01     0.21D-01     1     0       0.01      0.01    diag
   3     -115.04851083      -0.00606582     0.49D-02     0.64D-02     2     0       0.00      0.01    diag
   4     -115.04897507      -0.00046424     0.10D-02     0.20D-02     3     0       0.00      0.01    diag
   5     -115.04899618      -0.00002111     0.19D-03     0.43D-03     4     0       0.00      0.01    diag
   6     -115.04899699      -0.00000080     0.33D-04     0.93D-04     5     0       0.01      0.02    diag
   7     -115.04899702      -0.00000003     0.68D-05     0.15D-04     6     0       0.00      0.02    diag
   8     -115.04899702      -0.00000000     0.22D-05     0.51D-05     7     0       0.01      0.03    fixocc
   9     -115.04899702      -0.00000000     0.45D-06     0.14D-05     8     0       0.00      0.03    diag
  10     -115.04899702      -0.00000000     0.73D-07     0.24D-06     9     0       0.00      0.03    diag/orth
  11     -115.04899702      -0.00000000     0.17D-07     0.48D-07     9     0       0.00      0.03    diag
  12     -115.04899702      -0.00000000     0.45D-08     0.14D-07     9     0       0.01      0.04    diag
  13     -115.04899702       0.00000000     0.69D-09     0.19D-08     9     0       0.00      0.04    diag
  14     -115.04899702      -0.00000000     0.15D-09     0.40D-09     9     0       0.00      0.04    diag
  15     -115.04899702      -0.00000000     0.63D-10     0.12D-09     9     0       0.00      0.04    diag
  16     -115.04899702      -0.00000000     0.15D-10     0.35D-10     9     0       0.01      0.05    diag
  17     -115.04899702       0.00000000     0.33D-11     0.58D-11     0     0       0.00      0.05    diag

 Final occupancy:   9

 !RHF STATE 1.1 Energy               -115.048997022600
  RHF One-electron energy            -236.825325856241
  RHF Two-electron energy              81.497367370755
  RHF Kinetic energy                  114.941185272612
  RHF Nuclear energy                   40.278961462885
  RHF Virial quotient                  -1.000937973188

 !RHF STATE 1.1 Dipole moment          -0.39780081    -0.59679499    -0.00615834
 Dipole moment /Debye                  -1.01110880    -1.51690156    -0.01565293

 Orbital energies:

           1.1          2.1          3.1          4.1          5.1          6.1          7.1          8.1          9.1         10.1
    -20.549787   -11.274587    -1.348787    -0.921457    -0.682086    -0.614163    -0.583621    -0.497212    -0.443597     0.184594

          11.1
      0.224549


 HOMO      9.1    -0.443597 =     -12.0709eV
 LUMO     10.1     0.184594 =       5.0231eV
 LUMO-HOMO         0.628191 =      17.0939eV

 Orbitals saved in record  2100.2


 **********************************************************************************************************************************
 DATASETS  * FILE   NREC   LENGTH (MB)   RECORD NAMES
              1      18       28.73       500      610      700      900      950      970     1000      129      960     1100   
                                          VAR    BASINP    GEOM    SYMINP    ZMAT    AOBASIS   BASIS     P2S    ABASIS      S 
                                         1400     1410     1200     1210     1080     1600     1650     1700   
                                           T        V       H0       H01     AOSYM     SMH    MOLCAS    OPER   

              2       4        0.47       700     1000      520     2100   
                                         GEOM     BASIS   MCVARS     RHF  

 PROGRAMS   *        TOTAL   RHF-SCF       INT
 CPU TIMES  *         0.55      0.04      0.36
 REAL TIME  *         1.95 SEC
 DISK USED  *        29.40 MB (local),      105.70 MB (total)
 GA USED    *         0.00 MB       (max)       0.00 MB       (current)
 **********************************************************************************************************************************


 PROGRAM * CCSD (Closed-shell coupled cluster)     Authors: C. Hampel, H.-J. Werner, 1991, M. Deegan, P.J. Knowles, 1992


 Convergence thresholds:  THRVAR = 1.00D-08  THRDEN = 1.00D-12

 CCSD(T)     terms to be evaluated (factor= 1.000)


 Number of core orbitals:           2 (   2 )
 Number of closed-shell orbitals:   7 (   7 )
 Number of external orbitals:      39 (  39 )

 Molecular orbitals read from record     2100.2  Type=RHF/CANONICAL  

 Number of N-1 electron functions:               7
 Number of N-2 electron functions:              28
 Number of singly external CSFs:               273
 Number of doubly external CSFs:             37401
 Total number of CSFs:                       37675

 Length of J-op  integral file:               0.00 MB
 Length of K-op  integral file:               0.16 MB
 Length of 3-ext integral record:             0.00 MB

 Memory could be reduced to 0.73 Mwords without degradation in triples

 Integral transformation finished. Total CPU:   0.02 sec, npass=  1  Memory used:   0.66 MW

 Reference energy:                   -115.04899702

 MP2 singlet pair energy:              -0.21869475
 MP2 triplet pair energy:              -0.11984577
 MP2 correlation energy:               -0.33854052
 MP2 total energy:                   -115.38753754

 SCS-MP2 correlation energy:           -0.33700440   (PS=  1.200000  PT=  0.333333)
 SCS-MP2 total energy:               -115.38600142

 ITER.      SQ.NORM     CORR.ENERGY   TOTAL ENERGY   ENERGY CHANGE        DEN1      VAR(S)    VAR(P)  DIIS     TIME  TIME/IT
   1      1.10737723    -0.36133039  -115.41032741    -0.02278987    -0.01409903  0.91D-03  0.17D-02  1  1     0.05     0.04
   2      1.11591243    -0.36327712  -115.41227415    -0.00194673    -0.00925792  0.20D-04  0.16D-03  2  2     0.07     0.04
   3      1.11780108    -0.36340489  -115.41240191    -0.00012777    -0.00120843  0.95D-05  0.86D-05  3  3     0.09     0.03
   4      1.11831852    -0.36340355  -115.41240057     0.00000134    -0.00025570  0.34D-06  0.68D-06  4  4     0.11     0.03
   5      1.11841728    -0.36340396  -115.41240098    -0.00000041    -0.00003626  0.10D-06  0.49D-07  5  5     0.14     0.03
   6      1.11843648    -0.36340259  -115.41239961     0.00000137    -0.00000437  0.16D-07  0.41D-08  6  6     0.16     0.03
   7      1.11844129    -0.36340216  -115.41239919     0.00000042    -0.00000035  0.20D-08  0.73D-09  6  1     0.18     0.04
   8      1.11844258    -0.36340227  -115.41239929    -0.00000010     0.00000076  0.26D-09  0.73D-10  6  3     0.20     0.03
   9      1.11844365    -0.36340214  -115.41239916     0.00000013    -0.00000039  0.13D-10  0.11D-10  6  2     0.23     0.03
  10      1.11844358    -0.36340214  -115.41239917    -0.00000000     0.00000007  0.11D-11  0.89D-12  6  5     0.25     0.03
  11      1.11844361    -0.36340214  -115.41239916     0.00000000    -0.00000000  0.20D-12  0.51D-13  6  4     0.27     0.04
  12      1.11844359    -0.36340214  -115.41239917    -0.00000000     0.00000001  0.19D-13  0.10D-13  6  1     0.29     0.04
  13      1.11844359    -0.36340214  -115.41239917    -0.00000000    -0.00000000  0.24D-14  0.96D-15  6  6     0.30     0.04
  14      1.11844360    -0.36340214  -115.41239917     0.00000000    -0.00000000  0.23D-15  0.13D-15  6  3     0.33     0.04
  15      1.11844360    -0.36340214  -115.41239917    -0.00000000    -0.00000000  0.28D-16  0.17D-16  6  2     0.34     0.04
  16      1.11844360    -0.36340214  -115.41239917    -0.00000000    -0.00000000  0.65D-17  0.17D-17  6  5     0.36     0.05
  17      1.11844360    -0.36340214  -115.41239917    -0.00000000    -0.00000000  0.75D-18  0.28D-18  6  4     0.38     0.05
  18      1.11844360    -0.36340214  -115.41239917     0.00000000    -0.00000000  0.13D-18  0.52D-19  6  1     0.40     0.05
  19      1.11844360    -0.36340214  -115.41239917    -0.00000000    -0.00000000  0.21D-19  0.57D-20  6  6     0.42     0.05
  20      1.11844360    -0.36340214  -115.41239917     0.00000000     0.00000000  0.40D-20  0.10D-20  6  3     0.44     0.05

 Norm of t1 vector:      0.04174360      S-energy:    -0.00000000      T1 diagnostic:  0.00788880
                                                                       D1 diagnostic:  0.01767992
                                                                       D2 diagnostic:  0.13458353 (internal)


 Total CPU time for triples:      0.08 sec


 RESULTS
 =======

  Reference energy                   -115.048997022600
  CCSD singlet pair energy             -0.254662302075
  CCSD triplet pair energy             -0.108739842447
  CCSD correlation energy              -0.363402144522

  Triples (T) contribution             -0.007746040633
  Total correlation energy             -0.371148185155

  CCSD total energy                  -115.412399167122
  CCSD[T] energy                     -115.420435921707
  CCSD-T energy                      -115.419994839481
 !CCSD(T) total energy               -115.420145207755

 Timing summary (sec):

 STEP                 CPU(USER)    SYS     CPU(TOT)    WALL
 Transformation          0.02      0.01      0.03      0.04
 CCSD iterations         0.42      0.05      0.47      1.02
 Triples                 0.08      0.01      0.09      0.08

 Program statistics:

 Available memory in ccsd:               999999795
 Min. memory needed in ccsd:                136177
 Max. memory used in ccsd:                  162910
 Max. memory used in cckext:                178997 (20 integral passes)



 **********************************************************************************************************************************
 DATASETS  * FILE   NREC   LENGTH (MB)   RECORD NAMES
              1      19       31.13       500      610      700      900      950      970     1000      129      960     1100   
                                          VAR    BASINP    GEOM    SYMINP    ZMAT    AOBASIS   BASIS     P2S    ABASIS      S 
                                         1400     1410     1200     1210     1080     1600     1650     1700     1380   
                                           T        V       H0       H01     AOSYM     SMH    MOLCAS    OPER     JKOP   

              2       4        0.47       700     1000      520     2100   
                                         GEOM     BASIS   MCVARS     RHF  

 PROGRAMS   *        TOTAL   CCSD(T)   RHF-SCF       INT
 CPU TIMES  *         1.10      0.56      0.04      0.36
 REAL TIME  *         3.15 SEC
 DISK USED  *        35.56 MB (local),      116.36 MB (total)
 SF USED    *         5.97 MB
 GA USED    *         0.00 MB       (max)       0.00 MB       (current)
 **********************************************************************************************************************************

 CCSD(T)/cc-pVDZ energy=   -115.420145207755

         CCSD(T)         RHF-SCF
   -115.42014521   -115.04899702
 **********************************************************************************************************************************
 Molpro calculation terminated
