
 Primary working directories    : /tmp/333988.36.gen4.q
 Secondary working directories  : /tmp/333988.36.gen4.q
 Wavefunction directory         : /home/vulcan/mel64643/wfu/
 Main file repository           : /tmp/333988.36.gen4.q/

 ARCHNAME  : Linux/x86_64
 FC        : /opt/intel/compilers_and_libraries_2016.1.150/linux/bin/intel64/ifort
 FCVERSION : 16.0.1
 BLASLIB   : -mkl
 id        : ccgc

 Nodes     nprocs
 n067         3
 Number of processes for MPI-2 version of Molpro:   nprocs(total)=    4   nprocs(compute)=    3   nprocs(helper)=    1
 ga_uses_ma=false, calling ma_init with nominal heap.
 GA-space will be limited to   8.0 MW (determined by -G option)

 Using customized tuning parameters: mindgm=10; mindgv=16; mindgc=4; mindgr=1; noblas=0; mincuda=1000; minvec=7
 default implementation of scratch files=sf  

 ***,Optimization of min3
 memory,1000,m
 gthresh,energy=1.0d-10,orbital=1.0d-10,oneint=1.0d-16,twoint=1.0d-16,optgrad=1.0d-6,compress=1.0d-13
 geomtyp=xyz
 
  bohr
  geometry = {
  12
  arbitrary comment
  C         -3.1012149063          1.5871188603          0.0195842889
  C         -0.8634647765         -0.0743941840         -0.6559099158
  C         -1.1178470084         -2.7745066422          0.2454326119
  O          1.3114486097          1.1051673919          0.5889533537
  O          3.4492342313          0.1199975279         -0.2518619463
  H         -4.8068039230          0.8460957833         -0.8717610450
  H         -2.8077915862          3.5244084018         -0.6179134396
  H         -3.3967972932          1.5946760667          2.0617107646
  H         -0.4609201772          0.0064956807         -2.6766173528
  H         -2.6900898284         -3.7076671915         -0.7111898138
  H         -1.4714667088         -2.8405870834          2.2778814367
  H          0.5951526827         -3.8438563047         -0.1576996527
 }
 
 basis=cc-pvtz
 {rhf;maxit,200}
 {uccsd(t);maxit,200}

 Variables initialized (661), CPU time= 0.00 sec
 Commands  initialized (458), CPU time= 0.00 sec, 486 directives.
 Default parameters read. Elapsed time= 0.05 sec

 Checking input...
 Passed
1


                                         ***  PROGRAM SYSTEM MOLPRO  ***
                         Copyright, University College Cardiff Consultants Limited, 2008

                                    Version 2010.1 linked May 16 2016 07:17:05


 **********************************************************************************************************************************
 LABEL *   Optimization of min3                                                          
 Linux-4.4.3/n067(x86_64) 64 bit mpp version                                             DATE: 15-Jul-20          TIME: 13:25:53  
 **********************************************************************************************************************************

 SHA1:             9e8077add272b0f3cad6f7df79ec5211205f459d
 **********************************************************************************************************************************

 THRESHOLDS:

 ZERO    =  1.00D-12  ONEINT  =  1.00D-16  TWOINT  =  1.00D-16  PREFAC  =  1.00D-14  LOCALI  =  1.00D-09  EORDER  =  1.00D-04
 ENERGY  =  1.00D-10  ETEST   =  0.00D+00  EDENS   =  0.00D+00  THRDEDEF=  1.00D-06  GRADIENT=  1.00D-02  STEP    =  1.00D-03
 ORBITAL =  1.00D-10  CIVEC   =  1.00D-05  COEFF   =  1.00D-04  PRINTCI =  5.00D-02  PUNCHCI =  9.90D+01  OPTGRAD =  1.00D-06
 OPTENERG=  1.00D-06  OPTSTEP =  3.00D-04  THRGRAD =  1.00D-10  COMPRESS=  1.00D-13  VARMIN  =  1.00D-07  VARMAX  =  1.00D-03
 THRDOUB =  0.00D+00  THRDIV  =  1.00D-05  THRRED  =  1.00D-07  THRPSP  =  1.00D+00  THRDC   =  1.00D-10  THRCS   =  1.00D-10
 THRNRM  =  1.00D-08  THREQ   =  0.00D+00  THRDE   =  1.00D+00  THRREF  =  1.00D-05  SPARFAC =  1.00D+00  THRDLP  =  1.00D-07
 THRDIA  =  1.00D-10  THRDLS  =  1.00D-07  THRGPS  =  0.00D+00  THRKEX  =  0.00D+00  THRDIS  =  2.00D-01  THRVAR  =  1.00D-10
 THRLOC  =  1.00D-06  THRGAP  =  1.00D-06  THRLOCT = -1.00D+00  THRGAPT = -1.00D+00  THRORB  =  1.00D-06  THRMLTP =  0.00D+00
 THRCPQCI=  1.00D-10  KEXTA   =  0.00D+00  THRCOARS=  0.00D+00  SYMTOL  =  1.00D-06  GRADTOL =  1.00D-06  THROVL  =  1.00D-08
 THRORTH =  1.00D-08  GRID    =  1.00D-06  GRIDMAX =  1.00D-03  DTMAX   =  0.00D+00

 SETTING GEOMTYP        =    XYZ
 ZUNIT=BOHR
 

 Variable memory set to 1000000000 words,  buffer space   230000 words

 SETTING BASIS          =    CC-PVTZ


 Recomputing integrals since basis changed


 Using spherical harmonics

 Library entry C      S cc-pVTZ              selected for orbital group  1
 Library entry C      P cc-pVTZ              selected for orbital group  1
 Library entry C      D cc-pVTZ              selected for orbital group  1
 Library entry C      F cc-pVTZ              selected for orbital group  1
 Library entry O      S cc-pVTZ              selected for orbital group  2
 Library entry O      P cc-pVTZ              selected for orbital group  2
 Library entry O      D cc-pVTZ              selected for orbital group  2
 Library entry O      F cc-pVTZ              selected for orbital group  2
 Library entry H      S cc-pVTZ              selected for orbital group  3
 Library entry H      P cc-pVTZ              selected for orbital group  3
 Library entry H      D cc-pVTZ              selected for orbital group  3

1PROGRAM * SEWARD (Integral evaluation for generally contracted gaussian basis sets)     Author: Roland Lindh, 1990

 Geometry written to block  1 of record 700


 Point group  C1  



 ATOMIC COORDINATES

 NR  ATOM    CHARGE       X              Y              Z

   1  C       6.00   -3.101214906    1.587118860    0.019584289
   2  C       6.00   -0.863464776   -0.074394184   -0.655909916
   3  C       6.00   -1.117847008   -2.774506642    0.245432612
   4  O       8.00    1.311448610    1.105167392    0.588953354
   5  O       8.00    3.449234231    0.119997528   -0.251861946
   6  H       1.00   -4.806803923    0.846095783   -0.871761045
   7  H       1.00   -2.807791586    3.524408402   -0.617913440
   8  H       1.00   -3.396797293    1.594676067    2.061710765
   9  H       1.00   -0.460920177    0.006495681   -2.676617353
  10  H       1.00   -2.690089828   -3.707667192   -0.711189814
  11  H       1.00   -1.471466709   -2.840587083    2.277881437
  12  H       1.00    0.595152683   -3.843856305   -0.157699653

 Bond lengths in Bohr (Angstrom)

 1-2  2.867829085  1-6  2.062194365  1-7  2.060483285  1-8  2.063421092  2-3  2.857925114
     ( 1.517589791)     ( 1.091266258)     ( 1.090360794)     ( 1.091915414)     ( 1.512348836)

  2- 4  2.769710871   2- 9  2.061999969   3-10  2.063458883   3-11  2.064040150   3-12  2.059221276
       ( 1.465667868)       ( 1.091163388)       ( 1.091935413)       ( 1.092243006)       ( 1.089692968)

 4-5  2.499531435
     ( 1.322695068)

 Bond angles

  1-2-3  113.80537013   1-2-4  105.07725551   1-2-9  111.12641069   2-1-6  109.59482010

  2- 1- 7  111.14506677   2- 1- 8  110.30449356   2- 3-10  110.41805517   2- 3-11  110.85800051

  2- 3-12  110.78341428   2- 4- 5  110.64366105   3- 2- 4  109.29947554   3- 2- 9  111.31572601

  4-2-9  105.69116534   6-1-7  108.77807369   6-1-8  108.09596576   7-1-8  108.85384823

 10- 3-11  108.14892336  10- 3-12  107.95295452  11- 3-12  108.58229830

 NUCLEAR CHARGE:                   41
 NUMBER OF PRIMITIVE AOS:         354
 NUMBER OF SYMMETRY AOS:          322
 NUMBER OF CONTRACTIONS:          248   ( 248A   )
 NUMBER OF CORE ORBITALS:           5   (   5A   )
 NUMBER OF VALENCE ORBITALS:       27   (  27A   )


 NUCLEAR REPULSION ENERGY  186.63617419


 Eigenvalues of metric

         1 0.808E-03 0.957E-03 0.110E-02 0.124E-02 0.136E-02 0.150E-02 0.159E-02 0.164E-02


 Contracted 2-electron integrals neglected if value below      1.0D-16
 AO integral compression algorithm  1   Integral accuracy      1.0D-16

     3370.123 MB (compressed) written to integral file ( 82.0%)

     Node minimum: 1098.908 MB, node maximum: 1152.123 MB


 NUMBER OF SORTED TWO-ELECTRON INTEGRALS:  158903334.     BUFFER LENGTH:  32768
 NUMBER OF SEGMENTS:  10  SEGMENT LENGTH:   15997437      RECORD LENGTH: 524288

 Memory used in sort:      16.55 MW

 SORT1 READ   513519027. AND WROTE   152597871. INTEGRALS IN    442 RECORDS. CPU TIME:    17.55 SEC, REAL TIME:    18.55 SEC
 SORT2 READ   459294463. AND WROTE   476679126. INTEGRALS IN  12576 RECORDS. CPU TIME:     1.42 SEC, REAL TIME:    11.03 SEC

 Node minimum:   158882750.  Node maximum:   158903334. integrals

 OPERATOR DM      FOR CENTER  0  COORDINATES:    0.000000    0.000000    0.000000


 **********************************************************************************************************************************
 DATASETS  * FILE   NREC   LENGTH (MB)   RECORD NAMES
              1      18        5.04       500      610      700      900      950      970     1000      129      960     1100   
                                          VAR    BASINP    GEOM    SYMINP    ZMAT    AOBASIS   BASIS     P2S    ABASIS      S 
                                         1400     1410     1200     1210     1080     1600     1650     1700   
                                           T        V       H0       H01     AOSYM     SMH    MOLCAS    OPER   

 PROGRAMS   *        TOTAL       INT
 CPU TIMES  *        25.68     25.64
 REAL TIME  *        37.03 SEC
 DISK USED  *         8.83 GB      
 GA USED    *         0.01 MB       (max)       0.00 MB       (current)
 **********************************************************************************************************************************

1PROGRAM * RHF-SCF (OPEN SHELL)       Authors: W. Meyer, H.-J. Werner


 NUMBER OF ELECTRONS:      21+   20-    SPACE SYMMETRY=1    SPIN SYMMETRY: Doublet 
 CONVERGENCE THRESHOLDS:    1.00E-10 (Density)    1.00E-11 (Energy)
 MAX. NUMBER OF ITERATIONS:      200
 INTERPOLATION TYPE:            DIIS
 INTERPOLATION STEPS:              2 (START)      1 (STEP)
 LEVEL SHIFTS:                 -0.30 (CLOSED)  0.00 (OPEN) 



 Orbital guess generated from atomic densities. Full valence occupancy:   32

 Molecular orbital dump at record        2100.2

 ITERATION    DDIFF          GRAD             ENERGY        2-EL.EN.            DIPOLE MOMENTS         DIIS
    1      0.000D+00      0.000D+00      -267.26112542    559.829257   -1.77206   -0.07937   -0.09419    0
    2      0.000D+00      0.326D-02      -267.33461698    562.666032   -1.01649   -0.43884   -0.35767    1
    3      0.471D-02      0.230D-02      -267.36115298    561.619460   -1.18932   -0.24949   -0.21543    2
    4      0.211D-02      0.547D-03      -267.36940004    561.806491   -0.97794   -0.32172   -0.29655    3
    5      0.927D-03      0.485D-03      -267.37362238    561.847982   -0.92243   -0.32316   -0.30082    4
    6      0.584D-03      0.271D-03      -267.37553653    561.815151   -0.88151   -0.31638   -0.29873    5
    7      0.484D-03      0.132D-03      -267.37586978    561.800725   -0.89141   -0.30468   -0.29060    6
    8      0.257D-03      0.352D-04      -267.37589113    561.798204   -0.89106   -0.30159   -0.28916    7
    9      0.829D-04      0.185D-04      -267.37590143    561.798408   -0.89358   -0.30208   -0.28920    8
   10      0.438D-04      0.813D-05      -267.37590321    561.798288   -0.89475   -0.30144   -0.28890    9
   11      0.197D-04      0.315D-05      -267.37590345    561.798241   -0.89536   -0.30130   -0.28874    9
   12      0.776D-05      0.146D-05      -267.37590351    561.798465   -0.89550   -0.30139   -0.28878    9
   13      0.366D-05      0.521D-06      -267.37590352    561.798514   -0.89551   -0.30145   -0.28881    9
   14      0.147D-05      0.294D-06      -267.37590352    561.798512   -0.89550   -0.30146   -0.28882    9
   15      0.807D-06      0.142D-06      -267.37590352    561.798518   -0.89550   -0.30147   -0.28882    9
   16      0.422D-06      0.727D-07      -267.37590352    561.798520   -0.89549   -0.30147   -0.28882    9
   17      0.182D-06      0.365D-07      -267.37590352    561.798514   -0.89549   -0.30147   -0.28882    9
   18      0.132D-06      0.232D-07      -267.37590352    561.798511   -0.89549   -0.30147   -0.28882    9
   19      0.927D-07      0.166D-07      -267.37590352    561.798512   -0.89549   -0.30147   -0.28882    9
   20      0.933D-07      0.129D-07      -267.37590352    561.798510   -0.89549   -0.30147   -0.28882    9
   21      0.122D-06      0.103D-07      -267.37590352    561.798509   -0.89549   -0.30147   -0.28882    9
   22      0.151D-06      0.760D-08      -267.37590352    561.798509   -0.89549   -0.30147   -0.28882    9
   23      0.142D-06      0.429D-08      -267.37590352    561.798508   -0.89549   -0.30147   -0.28882    9
   24      0.857D-07      0.230D-08      -267.37590352    561.798508   -0.89549   -0.30147   -0.28882    9
   25      0.310D-07      0.906D-09      -267.37590352    561.798508   -0.89549   -0.30147   -0.28882    9
   26      0.454D-08      0.410D-09      -267.37590352    561.798508   -0.89549   -0.30147   -0.28882    9
   27      0.384D-08      0.188D-09      -267.37590352    561.798508   -0.89549   -0.30147   -0.28882    9
   28      0.514D-09      0.897D-10      -267.37590352    561.798508   -0.89549   -0.30147   -0.28882    9
   29      0.283D-09      0.460D-10      -267.37590352    561.798508   -0.89549   -0.30147   -0.28882    9
   30      0.138D-09      0.231D-10      -267.37590352    561.798508   -0.89549   -0.30147   -0.28882    9
   31      0.577D-10      0.197D-10      -267.37590352    561.798508   -0.89549   -0.30147   -0.28882    0

 Final alpha occupancy:  21
 Final beta  occupancy:  20

 !RHF STATE 1.1 Energy               -267.375903523140
 Nuclear energy                       186.63617419
 One-electron energy                 -734.91133182
 Two-electron energy                  280.89925410
 Virial quotient                       -1.00115410
 !RHF STATE 1.1 Dipole moment          -0.89549313    -0.30146875    -0.28881912
 Dipole moment /Debye                  -2.27596743    -0.76620695    -0.73405689

 Orbital energies:

         1.1          2.1          3.1          4.1          5.1          6.1          7.1          8.1          9.1         10.1
    -20.648541   -20.640310   -11.297654   -11.229092   -11.225283    -1.523411    -1.170814    -1.034739    -0.953047    -0.819919

        11.1         12.1         13.1         14.1         15.1         16.1         17.1         18.1         19.1         20.1
     -0.695032    -0.667931    -0.653470    -0.594893    -0.562509    -0.557277    -0.543728    -0.500837    -0.491321    -0.465172

        21.1         22.1         23.1
     -0.562863     0.137643     0.174354


 **********************************************************************************************************************************
 DATASETS  * FILE   NREC   LENGTH (MB)   RECORD NAMES
              1      18        5.04       500      610      700      900      950      970     1000      129      960     1100   
                                          VAR    BASINP    GEOM    SYMINP    ZMAT    AOBASIS   BASIS     P2S    ABASIS      S 
                                         1400     1410     1200     1210     1080     1600     1650     1700   
                                           T        V       H0       H01     AOSYM     SMH    MOLCAS    OPER   

              2       3        2.21       700     1000     2100   
                                         GEOM     BASIS     RHF  

 PROGRAMS   *        TOTAL       RHF       INT
 CPU TIMES  *        70.38     44.70     25.64
 REAL TIME  *        85.38 SEC
 DISK USED  *         8.87 GB      
 SF USED    *         0.25 MB      
 GA USED    *         0.01 MB       (max)       0.00 MB       (current)
 **********************************************************************************************************************************


1PROGRAM * CCSD (Unrestricted open-shell coupled cluster)     Authors: C. Hampel, H.-J. Werner, 1991, M. Deegan, P.J. Knowles, 1992


 Convergence thresholds:  THRVAR = 1.00D-08  THRDEN = 1.00D-10

 CCSD(T)     terms to be evaluated (factor= 1.000)


 Number of core orbitals:           5 (   5 )
 Number of closed-shell orbitals:  15 (  15 )
 Number of active  orbitals:        1 (   1 )
 Number of external orbitals:     227 ( 227 )

 Memory could be reduced to 332.02 Mwords without degradation in triples

 Number of N-1 electron functions:              31
 Number of N-2 electron functions:             465
 Number of singly external CSFs:              7068
 Number of doubly external CSFs:          18353430
 Total number of CSFs:                    18360498

 Molecular orbitals read from record     2100.2  Type=RHF/CANONICAL (state 1.1)

 Integral transformation finished. Total CPU:  27.68 sec, npass=  1  Memory used: 145.25 MW

 Starting RMP2 calculation

 ITER.      SQ.NORM     CORR.ENERGY   TOTAL ENERGY   ENERGY CHANGE        DEN1      VAR(S)    VAR(P)  DIIS     TIME
   1      1.26532942    -0.96758849  -268.34349201    -0.96758849    -0.00323606  0.26D-04  0.11D-02  1  1    31.65
   2      1.26811367    -0.97107766  -268.34698118    -0.00348917    -0.00000666  0.10D-05  0.23D-05  2  2    34.76
   3      1.26819357    -0.97113056  -268.34703408    -0.00005290    -0.00000008  0.53D-07  0.11D-07  3  3    38.35
   4      1.26819527    -0.97113036  -268.34703389     0.00000019    -0.00000000  0.16D-08  0.12D-09  4  4    43.12
   5      1.26819553    -0.97113045  -268.34703397    -0.00000009    -0.00000000  0.19D-10  0.46D-11  5  5    46.82
   6      1.26819559    -0.97113048  -268.34703401    -0.00000003    -0.00000000  0.49D-13  0.56D-13  6  6    50.73
   7      1.26819559    -0.97113048  -268.34703401     0.00000000    -0.00000000  0.14D-14  0.85D-15  6  1    54.54
   8      1.26819559    -0.97113048  -268.34703401     0.00000000    -0.00000000  0.15D-16  0.79D-17  6  2    58.32
   9      1.26819559    -0.97113048  -268.34703401    -0.00000000    -0.00000000  0.30D-18  0.10D-18  6  3    62.86

 Norm of t1 vector:      0.04587811      S-energy:    -0.00446643      T1 diagnostic:  0.00074310
 Norm of t2 vector:      0.51583988      P-energy:    -0.96666405
                                         Alpha-Beta:  -0.73706420
                                         Alpha-Alpha: -0.11899453
                                         Beta-Beta:   -0.11060532

 Spin contamination <S**2-Sz**2-Sz>     0.00145292
  Reference energy                   -267.375903523139
  RHF-RMP2 correlation energy          -0.971130482353
 !RHF-RMP2 energy                    -268.347034005491

 Starting UCCSD calculation

 ITER.      SQ.NORM     CORR.ENERGY   TOTAL ENERGY   ENERGY CHANGE        DEN1      VAR(S)    VAR(P)  DIIS     TIME
   1      1.27979796    -0.97925315  -268.35515667    -0.97925315    -0.02932636  0.65D-02  0.54D-02  1  1   144.99
   2      1.30619602    -1.00587386  -268.38177738    -0.02662071    -0.00363343  0.62D-03  0.97D-03  2  2   225.91
   3      1.32283493    -1.01269566  -268.38859919    -0.00682180    -0.00091148  0.75D-03  0.76D-04  3  3   307.17
   4      1.33407079    -1.01535518  -268.39125870    -0.00265952    -0.00038467  0.31D-03  0.33D-04  4  4   388.63
   5      1.34912921    -1.01735106  -268.39325458    -0.00199588    -0.00011758  0.10D-03  0.90D-05  5  5   470.78
   6      1.36065736    -1.01837414  -268.39427767    -0.00102309    -0.00001794  0.91D-05  0.32D-05  6  6   552.84
   7      1.36430968    -1.01861207  -268.39451559    -0.00023793    -0.00000312  0.16D-05  0.60D-06  6  1   634.49
   8      1.36490954    -1.01865390  -268.39455742    -0.00004183    -0.00000066  0.26D-06  0.15D-06  6  2   716.13
   9      1.36522630    -1.01867206  -268.39457558    -0.00001816    -0.00000014  0.64D-07  0.32D-07  6  4   798.38
  10      1.36521238    -1.01867077  -268.39457430     0.00000129    -0.00000002  0.10D-07  0.42D-08  6  3   880.16
  11      1.36527437    -1.01867585  -268.39457937    -0.00000508    -0.00000000  0.21D-08  0.92D-09  6  5   961.93
  12      1.36526679    -1.01867338  -268.39457690     0.00000247    -0.00000000  0.79D-09  0.20D-09  6  6  1044.31
  13      1.36526226    -1.01867223  -268.39457576     0.00000115    -0.00000000  0.41D-09  0.47D-10  6  1  1126.20
  14      1.36524982    -1.01867079  -268.39457431     0.00000145    -0.00000000  0.24D-09  0.14D-10  6  2  1208.95
  15      1.36524465    -1.01867017  -268.39457369     0.00000062    -0.00000000  0.19D-09  0.97D-11  6  3  1291.08
  16      1.36524224    -1.01867003  -268.39457355     0.00000014    -0.00000000  0.15D-09  0.73D-11  6  4  1373.31
  17      1.36524134    -1.01866999  -268.39457352     0.00000003    -0.00000000  0.92D-10  0.73D-11  6  5  1454.97
  18      1.36524278    -1.01867010  -268.39457362    -0.00000010    -0.00000000  0.25D-10  0.39D-11  6  6  1536.67
  19      1.36524540    -1.01867037  -268.39457389    -0.00000027    -0.00000000  0.28D-11  0.14D-11  6  2  1617.98
  20      1.36524484    -1.01867023  -268.39457376     0.00000013    -0.00000000  0.68D-12  0.18D-12  6  1  1700.52
  21      1.36524517    -1.01867028  -268.39457380    -0.00000005    -0.00000000  0.23D-12  0.55D-13  6  4  1782.17
  22      1.36524499    -1.01867025  -268.39457378     0.00000002    -0.00000000  0.73D-13  0.20D-13  6  2  1863.67
  23      1.36524501    -1.01867026  -268.39457379    -0.00000001    -0.00000000  0.20D-13  0.41D-14  6  3  1945.14
  24      1.36524492    -1.01867025  -268.39457378     0.00000001    -0.00000000  0.22D-14  0.83D-15  6  5  2026.66
  25      1.36524491    -1.01867025  -268.39457377     0.00000000    -0.00000000  0.75D-15  0.20D-15  6  6  2107.85
  26      1.36524491    -1.01867025  -268.39457377     0.00000000    -0.00000000  0.44D-15  0.68D-16  6  1  2189.36
  27      1.36524492    -1.01867025  -268.39457377    -0.00000000    -0.00000000  0.29D-15  0.20D-16  6  4  2270.64
  28      1.36524492    -1.01867025  -268.39457377    -0.00000000    -0.00000000  0.22D-15  0.11D-16  6  2  2352.39
  29      1.36524493    -1.01867025  -268.39457377    -0.00000000    -0.00000000  0.16D-15  0.87D-17  6  5  2434.00
  30      1.36524492    -1.01867025  -268.39457377     0.00000000    -0.00000000  0.54D-16  0.74D-17  6  3  2515.76
  31      1.36524492    -1.01867025  -268.39457377     0.00000000    -0.00000000  0.14D-16  0.33D-17  6  1  2597.45
  32      1.36524492    -1.01867025  -268.39457377     0.00000000    -0.00000000  0.42D-17  0.11D-17  6  6  2679.32
  33      1.36524492    -1.01867025  -268.39457377     0.00000000    -0.00000000  0.18D-17  0.41D-18  6  1  2760.98

 Norm of t1 vector:      0.23104670      S-energy:    -0.00501359      T1 diagnostic:  0.02847022
                                                                       D1 diagnostic:  0.14587772
 Norm of t2 vector:      0.55844636      P-energy:    -1.01365666
                                         Alpha-Beta:  -0.80135240
                                         Alpha-Alpha: -0.10868931
                                         Beta-Beta:   -0.10361495

 Singles amplitudes (print threshold =  0.500E-01):

         I         SYM. A    A   T(IA) [Beta-Beta]

         8         1         1     -0.09478296
         9         1         1      0.10007741
        11         1         1     -0.05551372
        12         1         1     -0.07363977
        14         1         1     -0.10970979

 Spin contamination <S**2-Sz**2-Sz>     0.00175764

 Memory could be reduced to 360.52 Mwords without degradation in triples
 

 RESULTS
 =======

  Reference energy                   -267.375903523139
  UCCSD singles energy                 -0.005013591298
  UCCSD pair energy                    -1.013656658971
  UCCSD correlation energy             -1.018670250269
  Triples (T) contribution             -0.040823395301
  Total correlation energy             -1.059493645570
 
  RHF-UCCSD energy                   -268.394573773408
  RHF-UCCSD[T] energy                -268.438718268755
  RHF-UCCSD-T energy                 -268.434898945467
 !RHF-UCCSD(T) energy                -268.435397168709

 Program statistics:

 Available memory in ccsd:               999997692
 Min. memory needed in ccsd:              51505734
 Max. memory used in ccsd:                74803578
 Max. memory used in cckext:              59475747 (33 integral passes)
 Max. memory used in cckint:             145249478 ( 1 integral passes)



 **********************************************************************************************************************************
 DATASETS  * FILE   NREC   LENGTH (MB)   RECORD NAMES
              1      18        5.04       500      610      700      900      950      970     1000      129      960     1100   
                                          VAR    BASINP    GEOM    SYMINP    ZMAT    AOBASIS   BASIS     P2S    ABASIS      S 
                                         1400     1410     1200     1210     1080     1600     1650     1700   
                                           T        V       H0       H01     AOSYM     SMH    MOLCAS    OPER   

              2       3        2.21       700     1000     2100   
                                         GEOM     BASIS     RHF  

 PROGRAMS   *        TOTAL  UCCSD(T)       RHF       INT
 CPU TIMES  *      4421.29   4350.91     44.70     25.64
 REAL TIME  *      4549.48 SEC
 DISK USED  *        15.84 GB      
 SF USED    *         6.57 GB      
 GA USED    *         0.01 MB       (max)       0.00 MB       (current)
 **********************************************************************************************************************************

        UCCSD(T)        RHF-SCF 
   -268.43539717   -267.37590352
 **********************************************************************************************************************************
 Variable memory released
