
    -----------------------------------------------------------------------
          Psi4: An Open-Source Ab Initio Electronic Structure Package
                               Psi4 1.4a2.dev629 

                         Git: Rev {master} 2938fc2 dirty


    D. G. A. Smith, L. A. Burns, A. C. Simmonett, R. M. Parrish,
    M. C. Schieber, R. Galvelis, P. Kraus, H. Kruse, R. Di Remigio,
    A. Alenaizan, A. M. James, S. Lehtola, J. P. Misiewicz, M. Scheurer,
    R. A. Shaw, J. B. Schriber, Y. Xie, Z. L. Glick, D. A. Sirianni,
    J. S. O'Brien, J. M. Waldrop, A. Kumar, E. G. Hohenstein,
    B. P. Pritchard, B. R. Brooks, H. F. Schaefer III, A. Yu. Sokolov,
    K. Patkowski, A. E. DePrince III, U. Bozkaya, R. A. King,
    F. A. Evangelista, J. M. Turney, T. D. Crawford, C. D. Sherrill,
    J. Chem. Phys. 152(18) 184108 (2020). https://doi.org/10.1063/5.0006002

                            Additional Code Authors
    E. T. Seidl, C. L. Janssen, E. F. Valeev, M. L. Leininger,
    J. F. Gonthier, R. M. Richard, H. R. McAlexander, M. Saitow, X. Wang,
    P. Verma, and M. H. Lechner

             Previous Authors, Complete List of Code Contributors,
                       and Citations for Specific Modules
    https://github.com/psi4/psi4/blob/master/codemeta.json
    https://github.com/psi4/psi4/graphs/contributors
    http://psicode.org/psi4manual/master/introduction.html#citing-psifour

    -----------------------------------------------------------------------


    Psi4 started on: Tuesday, 15 September 2020 12:44PM

    Process ID: 28861
    Host:       n059
    PSIDATADIR: /opt/psi/4/master/share/psi4
    Memory:     500.0 MiB
    Threads:    1
    
  ==> Input File <==

--------------------------------------------------------------------------
# o-Benzyne preliminary computations

memory 14 gb

molecule {
  0 1
  C         -1.3709378979         -0.0245342196          0.0010642447  
  O          1.3018495324          0.1205537218         -0.0004725418  
  H         -2.0719928033          1.9029353279         -0.0031262518  
  H         -2.1083016730         -0.9757023922          1.6753688915  
  H         -2.0985834437         -0.9756146889         -1.6774975826  
  H          1.9411037624         -1.5727685762          0.0000827833  
  units bohr
}

set {
  basis=cc-pVTZ
  reference rhf
  e_convergence 10 
  d_convergence 10
  r_convergence 8
  maxiter 300
}

energy('ccsd(t)')
--------------------------------------------------------------------------

  Memory set to  13.039 GiB by Python driver.

Scratch directory: /tmp/

*** tstart() called on n059
*** at Tue Sep 15 12:44:44 2020

   => Loading Basis Set <=

    Name: CC-PVTZ
    Role: ORBITAL
    Keyword: BASIS
    atoms 1   entry C          line   186 file /opt/psi/4/master/share/psi4/basis/cc-pvtz.gbs 
    atoms 2   entry O          line   262 file /opt/psi/4/master/share/psi4/basis/cc-pvtz.gbs 
    atoms 3-6 entry H          line    23 file /opt/psi/4/master/share/psi4/basis/cc-pvtz.gbs 


         ---------------------------------------------------------
                                   SCF
               by Justin Turney, Rob Parrish, Andy Simmonett
                          and Daniel G. A. Smith
                              RHF Reference
                        1 Threads,  13351 MiB Core
         ---------------------------------------------------------

  ==> Geometry <==

    Molecular point group: c1
    Full point group: C1

    Geometry (in Bohr), charge = 0, multiplicity = 1:

       Center              X                  Y                   Z               Mass       
    ------------   -----------------  -----------------  -----------------  -----------------
         C           -1.370937896753    -0.024534218635     0.001064243490    12.000000000000
         O            1.301849533547     0.120553722765    -0.000472543010    15.994914619570
         H           -2.071992802153     1.902935328865    -0.003126253010     1.007825032230
         H           -2.108301671853    -0.975702391235     1.675368890290     1.007825032230
         H           -2.098583442553    -0.975614687935    -1.677497583810     1.007825032230
         H            1.941103763547    -1.572768575235     0.000082782090     1.007825032230

  Running in c1 symmetry.

  Rotational constants: A =      4.31054  B =      0.83184  C =      0.80261 [cm^-1]
  Rotational constants: A = 129226.64749  B =  24937.96283  C =  24061.53041 [MHz]
  Nuclear repulsion =   40.424657075879146

  Charge       = 0
  Multiplicity = 1
  Electrons    = 18
  Nalpha       = 9
  Nbeta        = 9

  ==> Algorithm <==

  SCF Algorithm Type is PK.
  DIIS enabled.
  MOM disabled.
  Fractional occupation disabled.
  Guess Type is SAD.
  Energy threshold   = 1.00e-10
  Density threshold  = 1.00e-10
  Integral threshold = 0.00e+00

  ==> Primary Basis <==

  Basis Set: CC-PVTZ
    Blend: CC-PVTZ
    Number of shells: 44
    Number of basis function: 116
    Number of Cartesian functions: 130
    Spherical Harmonics?: true
    Max angular momentum: 3

  ==> Integral Setup <==

  Using in-core PK algorithm.
   Calculation information:
      Number of atoms:                   6
      Number of AO shells:              44
      Number of primitives:             84
      Number of atomic orbitals:       130
      Number of basis functions:       116

      Integral cutoff                 1.00e-12
      Number of threads:                 1

  Performing in-core PK
  Using 46056582 doubles for integral storage.
  We computed 490498 shell quartets total.
  Whereas there are 490545 unique shell quartets.

  ==> DiskJK: Disk-Based J/K Matrices <==

    J tasked:                  Yes
    K tasked:                  Yes
    wK tasked:                  No
    Memory [MiB]:            10013
    Schwarz Cutoff:          1E-12

    OpenMP threads:              1

  Minimum eigenvalue in the overlap matrix is 1.8301893125E-03.
  Reciprocal condition number of the overlap matrix is 2.7593033839E-04.
    Using symmetric orthogonalization.

  ==> Pre-Iterations <==

  SCF Guess: Superposition of Atomic Densities via on-the-fly atomic UHF (no occupation information).

   -------------------------
    Irrep   Nso     Nmo    
   -------------------------
     A        116     116 
   -------------------------
    Total     116     116
   -------------------------

  ==> Iterations <==

                        Total Energy        Delta E     RMS |[F,P]|

   @RHF iter SAD:  -114.42810302323296   -1.14428e+02   0.00000e+00 
   @RHF iter   1:  -115.01461432911667   -5.86511e-01   3.41859e-03 DIIS
   @RHF iter   2:  -115.07169607789176   -5.70817e-02   1.94991e-03 DIIS
   @RHF iter   3:  -115.08845010635665   -1.67540e-02   3.01105e-04 DIIS
   @RHF iter   4:  -115.08933229378466   -8.82187e-04   8.77559e-05 DIIS
   @RHF iter   5:  -115.08940548676472   -7.31930e-05   2.13408e-05 DIIS
   @RHF iter   6:  -115.08941030534130   -4.81858e-06   4.71536e-06 DIIS
   @RHF iter   7:  -115.08941066970931   -3.64368e-07   1.09361e-06 DIIS
   @RHF iter   8:  -115.08941069107964   -2.13703e-08   2.26181e-07 DIIS
   @RHF iter   9:  -115.08941069198410   -9.04464e-10   4.19961e-08 DIIS
   @RHF iter  10:  -115.08941069201373   -2.96296e-11   1.07571e-08 DIIS
   @RHF iter  11:  -115.08941069201566   -1.93268e-12   2.18944e-09 DIIS
   @RHF iter  12:  -115.08941069201582   -1.56319e-13   3.91448e-10 DIIS
   @RHF iter  13:  -115.08941069201590   -8.52651e-14   7.22683e-11 DIIS
  Energy and wave function converged.


  ==> Post-Iterations <==

    Orbital Energies [Eh]
    ---------------------

    Doubly Occupied:                                                      

       1A    -20.552185     2A    -11.267948     3A     -1.355807  
       4A     -0.924263     5A     -0.689361     6A     -0.618997  
       7A     -0.591443     8A     -0.502002     9A     -0.449007  

    Virtual:                                                              

      10A      0.138591    11A      0.178903    12A      0.220547  
      13A      0.224204    14A      0.291043    15A      0.386449  
      16A      0.404433    17A      0.546359    18A      0.584665  
      19A      0.624343    20A      0.625614    21A      0.639797  
      22A      0.690804    23A      0.704894    24A      0.722056  
      25A      0.833185    26A      0.865440    27A      0.872363  
      28A      0.927835    29A      1.069895    30A      1.101788  
      31A      1.178090    32A      1.190220    33A      1.263330  
      34A      1.271852    35A      1.284125    36A      1.365712  
      37A      1.447595    38A      1.492603    39A      1.523972  
      40A      1.546423    41A      1.584108    42A      1.622015  
      43A      1.778236    44A      2.093231    45A      2.180679  
      46A      2.200067    47A      2.301672    48A      2.323684  
      49A      2.488931    50A      2.510137    51A      2.576085  
      52A      2.805536    53A      2.952048    54A      3.056978  
      55A      3.110930    56A      3.118506    57A      3.144111  
      58A      3.225080    59A      3.244684    60A      3.314851  
      61A      3.316349    62A      3.344182    63A      3.385614  
      64A      3.502084    65A      3.615604    66A      3.635319  
      67A      3.702564    68A      3.710418    69A      3.747321  
      70A      3.762486    71A      3.817031    72A      3.844041  
      73A      3.906864    74A      4.011859    75A      4.028962  
      76A      4.119542    77A      4.162439    78A      4.173678  
      79A      4.249967    80A      4.257956    81A      4.291070  
      82A      4.403950    83A      4.441273    84A      4.469910  
      85A      4.563074    86A      4.584467    87A      4.715730  
      88A      4.788980    89A      4.999716    90A      5.038548  
      91A      5.059744    92A      5.204823    93A      5.275984  
      94A      5.318130    95A      5.375648    96A      5.442872  
      97A      5.550888    98A      5.553135    99A      5.569792  
     100A      5.793382   101A      5.946434   102A      6.193914  
     103A      6.213451   104A      6.251450   105A      6.436465  
     106A      6.644587   107A      7.000556   108A      7.127292  
     109A      7.185750   110A      7.236585   111A      7.356709  
     112A      7.436724   113A      7.594980   114A      7.916004  
     115A     12.158159   116A     13.765079  

    Final Occupation by Irrep:
              A 
    DOCC [     9 ]

  @RHF Final Energy:  -115.08941069201590

   => Energetics <=

    Nuclear Repulsion Energy =             40.4246570758791464
    One-Electron Energy =                -237.1261094318506366
    Two-Electron Energy =                  81.6120416639555941
    Total Energy =                       -115.0894106920159032

Computation Completed


Properties will be evaluated at   0.000000,   0.000000,   0.000000 [a0]

Properties computed using the SCF density matrix

  Nuclear Dipole Moment: [e a0]
     X:    -2.1486      Y:    -0.8039      Z:    -0.0026

  Electronic Dipole Moment: [e a0]
     X:     1.7666      Y:     0.2163      Z:     0.0030

  Dipole Moment: [e a0]
     X:    -0.3820      Y:    -0.5876      Z:     0.0004     Total:     0.7009

  Dipole Moment: [D]
     X:    -0.9709      Y:    -1.4936      Z:     0.0011     Total:     1.7814


*** tstop() called on n059 at Tue Sep 15 12:44:48 2020
Module time:
	user time   =       3.29 seconds =       0.05 minutes
	system time =       0.03 seconds =       0.00 minutes
	total time  =          4 seconds =       0.07 minutes
Total time:
	user time   =       3.29 seconds =       0.05 minutes
	system time =       0.03 seconds =       0.00 minutes
	total time  =          4 seconds =       0.07 minutes
 MINTS: Wrapper to libmints.
   by Justin Turney

   Calculation information:
      Number of threads:                 1
      Number of atoms:                   6
      Number of AO shells:              44
      Number of SO shells:              44
      Number of primitives:             84
      Number of atomic orbitals:       130
      Number of basis functions:       116

      Number of irreps:                  1
      Integral cutoff                 0.00e+00
      Number of functions per irrep: [ 116 ]

 OEINTS: Overlap, kinetic, potential, dipole, and quadrupole integrals
         stored in file 35.

      Computing two-electron integrals...done
      Computed 22873670 non-zero two-electron integrals.
        Stored in file 33.


*** tstart() called on n059
*** at Tue Sep 15 12:44:49 2020


	Wfn Parameters:
	--------------------
	Wavefunction         = CCSD_T
	Number of irreps     = 1
	Number of MOs        = 116
	Number of active MOs = 116
	AO-Basis             = NONE
	Semicanonical        = false
	Reference            = RHF
	Print Level          = 1

	IRREP	# MOs	# FZDC	# DOCC	# SOCC	# VIRT	# FZVR
	-----	-----	------	------	------	------	------
	 A	   116	    0	    9	    0	    107	    0
	Transforming integrals...
	IWL integrals will be deleted.
	(OO|OO)...
	Presorting SO-basis two-electron integrals.
	Sorting File: SO Ints (nn|nn) nbuckets = 1
	Transforming the one-electron integrals and constructing Fock matrices
	Starting first half-transformation.
	Sorting half-transformed integrals.
	First half integral transformation complete.
	Starting second half-transformation.
	Two-electron integral transformation complete.
	(OO|OV)...
	Starting second half-transformation.
	Two-electron integral transformation complete.
	(OO|VV)...
	Starting second half-transformation.
	Two-electron integral transformation complete.
	(OV|OO)...
	Starting first half-transformation.
	Sorting half-transformed integrals.
	First half integral transformation complete.
	Starting second half-transformation.
	Two-electron integral transformation complete.
	(OV|OV)...
	Starting second half-transformation.
	Two-electron integral transformation complete.
	(OV|VV)...
	Starting second half-transformation.
	Two-electron integral transformation complete.
	(VV|OO)...
	Starting first half-transformation.
	Sorting half-transformed integrals.
	First half integral transformation complete.
	Starting second half-transformation.
	Two-electron integral transformation complete.
	(VV|OV)...
	Starting second half-transformation.
	Two-electron integral transformation complete.
	(VV|VV)...
	Starting second half-transformation.
	Two-electron integral transformation complete.
	Frozen core energy     =      0.00000000000000

	Size of irrep 0 of <ab|cd> integrals:    131.080 (MW) /   1048.637 (MB)
	Total:                                   131.080 (MW) /   1048.637 (MB)

	Size of irrep 0 of <ia|bc> integrals:     11.025 (MW) /     88.203 (MB)
	Total:                                    11.025 (MW) /     88.203 (MB)

	Size of irrep 0 of tijab amplitudes:       0.927 (MW) /      7.419 (MB)
	Total:                                     0.927 (MW) /      7.419 (MB)

	Nuclear Rep. energy          =     40.42465707587915
	SCF energy                   =   -115.08941069201590
	One-electron energy          =   -237.12610946376000
	Two-electron energy          =     81.61204169586502
	Reference energy             =   -115.08941069201583

*** tstop() called on n059 at Tue Sep 15 12:45:00 2020
Module time:
	user time   =       7.84 seconds =       0.13 minutes
	system time =       2.71 seconds =       0.05 minutes
	total time  =         11 seconds =       0.18 minutes
Total time:
	user time   =      12.64 seconds =       0.21 minutes
	system time =       2.92 seconds =       0.05 minutes
	total time  =         16 seconds =       0.27 minutes
            **************************
            *                        *
            *        CCENERGY        *
            *                        *
            **************************

    Nuclear Rep. energy (wfn)     =   40.424657075879146
    SCF energy          (wfn)     = -115.089410692015903
    Reference energy    (file100) = -115.089410692015832

    Input parameters:
    -----------------
    Wave function   =     CCSD_T
    Reference wfn   =     RHF
    Brueckner       =     No
    Memory (Mbytes) =     14000.0
    Maxiter         =    300
    R_Convergence   =     1.0e-08
    E_Convergence   =     1.0e-10
    Restart         =     Yes
    DIIS            =     Yes
    AO Basis        =     NONE
    ABCD            =     NEW
    Cache Level     =     2
    Cache Type      =     LOW
    Print Level     =     1
    Num. of threads =     1
    # Amps to Print =     10
    Print MP2 Amps? =     No
    Analyze T2 Amps =     No
    Print Pair Ener =     No
    Local CC        =     No
    SCS-MP2         =     False
    SCSN-MP2        =     False
    SCS-CCSD        =     False

MP2 correlation energy -0.4574283839493431
                Solving CC Amplitude Equations
                ------------------------------
  Iter             Energy              RMS        T1Diag      D1Diag    New D1Diag    D2Diag
  ----     ---------------------    ---------   ----------  ----------  ----------   --------
     0        -0.457428383949343    0.000e+00    0.000000    0.000000    0.000000    0.128070
     1        -0.464956221311785    4.762e-02    0.006483    0.014788    0.014788    0.129187
     2        -0.474908431377152    1.562e-02    0.006591    0.014747    0.014747    0.134893
     3        -0.476379717788731    5.473e-03    0.007386    0.016817    0.016817    0.136318
     4        -0.476276570249751    1.202e-03    0.007438    0.016956    0.016956    0.136542
     5        -0.476316347190230    4.339e-04    0.007470    0.017088    0.017088    0.136639
     6        -0.476324915451142    1.223e-04    0.007480    0.017138    0.017138    0.136646
     7        -0.476322745651415    4.530e-05    0.007481    0.017152    0.017152    0.136643
     8        -0.476322610798265    1.683e-05    0.007483    0.017161    0.017161    0.136643
     9        -0.476322717474811    4.882e-06    0.007483    0.017163    0.017163    0.136643
    10        -0.476322472563067    1.558e-06    0.007483    0.017163    0.017163    0.136643
    11        -0.476322539683003    4.783e-07    0.007483    0.017163    0.017163    0.136643
    12        -0.476322525358756    1.169e-07    0.007483    0.017163    0.017163    0.136643
    13        -0.476322528413712    4.178e-08    0.007483    0.017163    0.017163    0.136643
    14        -0.476322529563726    1.192e-08    0.007483    0.017163    0.017163    0.136643
    15        -0.476322529607719    4.940e-09    0.007483    0.017163    0.017163    0.136643
    16        -0.476322529636722    1.559e-09    0.007483    0.017163    0.017163    0.136643

    Iterations converged.


    Largest TIA Amplitudes:
              5   6         0.0079955398
              5  14        -0.0076300962
              5   9         0.0070309295
              8  14         0.0063616005
              6   7         0.0059735406
              6   3        -0.0059178119
              7   8         0.0058102383
              5   2        -0.0056988389
              8   6        -0.0053148514
              6   5        -0.0050933040

    Largest TIjAb Amplitudes:
      5   5   9   9        -0.0229555637
      8   8  14  14        -0.0211769846
      6   6   7   7        -0.0210295819
      7   7  12  12        -0.0205129965
      4   4   7   7        -0.0191025398
      6   6   8   8        -0.0162738220
      5   5  14  14        -0.0151707034
      7   7   7   7        -0.0151101192
      5   5   2   9         0.0149267955
      5   5   9   2         0.0149267955

    SCF energy       (wfn)                    = -115.089410692015903
    Reference energy (file100)                = -115.089410692015832

    Opposite-spin MP2 correlation energy      =   -0.353849984152741
    Same-spin MP2 correlation energy          =   -0.103578399796602
    Singles MP2 correlation energy            =   -0.000000000000000
    MP2 correlation energy                    =   -0.457428383949343
      * MP2 total energy                      = -115.546839075965181

    Opposite-spin CCSD correlation energy     =   -0.381807877154238
    Same-spin CCSD correlation energy         =   -0.094514652482484
    Singles CCSD correlation energy           =    0.000000000000000
    CCSD correlation energy                   =   -0.476322529636722
      * CCSD total energy                     = -115.565733221652550

            **************************
            *                        *
            *        CCTRIPLES       *
            *                        *
            **************************


    Wave function   =    CCSD_T
    Reference wfn   =      RHF

    Nuclear Rep. energy (wfn)                =   40.424657075879146
    SCF energy          (wfn)                = -115.089410692015903
    Reference energy    (file100)            = -115.089410692015832
    CCSD energy         (file100)            =   -0.476322529636722
    Total CCSD energy   (file100)            = -115.565733221652550

    Number of ijk index combinations:              165
    Memory available in words        :      1750000000
    ~Words needed per explicit thread:         4900172
    Number of threads for explicit ijk threading:    1

    MKL num_threads set to 1 for explicit threading.

    (T) energy                                =   -0.015046540354191
      * CCSD(T) total energy                  = -115.580779762006742


    Psi4 stopped on: Tuesday, 15 September 2020 12:45PM
    Psi4 wall time for execution: 0:01:05.92

*** Psi4 exiting successfully. Buy a developer a beer!
