
 Primary working directories    : /tmp/795519.142.gen6.q
 Secondary working directories  : /tmp/795519.142.gen6.q
 Wavefunction directory         : /home/vulcan/mel64643/wfu/
 Main file repository           : /tmp/795519.142.gen6.q/

 ARCHNAME  : Linux/x86_64
 FC        : /opt/intel/compilers_and_libraries_2016.1.150/linux/bin/intel64/ifort
 FCVERSION : 16.0.1
 BLASLIB   : -mkl
 id        : ccgc

 Nodes     nprocs
 n077         1
 ga_uses_ma=false, calling ma_init with nominal heap.
 GA-space will be limited to   8.0 MW (determined by -G option)

 Using customized tuning parameters: mindgm=10; mindgv=16; mindgc=4; mindgr=1; noblas=0; mincuda=1000; minvec=7
 default implementation of scratch files=df  

 ***,Optimization of min3
 memory,1000,m
 gthresh,energy=1.0d-12,orbital=1.0d-10,oneint=1.0d-16,twoint=1.0d-16,optgrad=1.0d-6,compress=1.0d-13
 geomtyp=xyz
 
  bohr
  geometry = {
  6
  arbitrary comment
  C   -1.3747296041   -0.0233735260    0.0000003166
  O    1.3095304627    0.1206391212    0.0000003960
  H   -2.0858376933    1.9161781451   -0.0000800973
  H   -2.1072147584   -0.9805308789    1.6878712600
  H   -2.1072075508   -0.9806626446   -1.6877990271
  H    1.9417349839   -1.5823823368   -0.0000012581
 }
 
 basis=cc-pvdz
 {rhf;maxit,200}
 {ccsd(t);maxit,200}

 Variables initialized (661), CPU time= 0.00 sec
 Commands  initialized (458), CPU time= 0.01 sec, 486 directives.
 Default parameters read. Elapsed time= 0.05 sec

 Checking input...
 Passed
1


                                         ***  PROGRAM SYSTEM MOLPRO  ***
                         Copyright, University College Cardiff Consultants Limited, 2008

                                    Version 2010.1 linked May 16 2016 07:17:05


 **********************************************************************************************************************************
 LABEL *   Optimization of min3                                                          
 Linux-4.4.3/n077(x86_64) 64 bit mpp version                                             DATE: 24-Oct-22          TIME: 15:44:06  
 **********************************************************************************************************************************

 SHA1:             9e8077add272b0f3cad6f7df79ec5211205f459d
 **********************************************************************************************************************************

 THRESHOLDS:

 ZERO    =  1.00D-12  ONEINT  =  1.00D-16  TWOINT  =  1.00D-16  PREFAC  =  1.00D-14  LOCALI  =  1.00D-09  EORDER  =  1.00D-04
 ENERGY  =  1.00D-12  ETEST   =  0.00D+00  EDENS   =  0.00D+00  THRDEDEF=  1.00D-06  GRADIENT=  1.00D-02  STEP    =  1.00D-03
 ORBITAL =  1.00D-10  CIVEC   =  1.00D-05  COEFF   =  1.00D-04  PRINTCI =  5.00D-02  PUNCHCI =  9.90D+01  OPTGRAD =  1.00D-06
 OPTENERG=  1.00D-06  OPTSTEP =  3.00D-04  THRGRAD =  1.00D-10  COMPRESS=  1.00D-13  VARMIN  =  1.00D-07  VARMAX  =  1.00D-03
 THRDOUB =  0.00D+00  THRDIV  =  1.00D-05  THRRED  =  1.00D-07  THRPSP  =  1.00D+00  THRDC   =  1.00D-10  THRCS   =  1.00D-10
 THRNRM  =  1.00D-08  THREQ   =  0.00D+00  THRDE   =  1.00D+00  THRREF  =  1.00D-05  SPARFAC =  1.00D+00  THRDLP  =  1.00D-07
 THRDIA  =  1.00D-10  THRDLS  =  1.00D-07  THRGPS  =  0.00D+00  THRKEX  =  0.00D+00  THRDIS  =  2.00D-01  THRVAR  =  1.00D-10
 THRLOC  =  1.00D-06  THRGAP  =  1.00D-06  THRLOCT = -1.00D+00  THRGAPT = -1.00D+00  THRORB  =  1.00D-06  THRMLTP =  0.00D+00
 THRCPQCI=  1.00D-10  KEXTA   =  0.00D+00  THRCOARS=  0.00D+00  SYMTOL  =  1.00D-06  GRADTOL =  1.00D-06  THROVL  =  1.00D-08
 THRORTH =  1.00D-08  GRID    =  1.00D-06  GRIDMAX =  1.00D-03  DTMAX   =  0.00D+00

 SETTING GEOMTYP        =    XYZ
 ZUNIT=BOHR
 

 Variable memory set to 1000000000 words,  buffer space   230000 words

 SETTING BASIS          =    CC-PVDZ


 Recomputing integrals since basis changed


 Using spherical harmonics

 Library entry C      S cc-pVDZ              selected for orbital group  1
 Library entry C      P cc-pVDZ              selected for orbital group  1
 Library entry C      D cc-pVDZ              selected for orbital group  1
 Library entry O      S cc-pVDZ              selected for orbital group  2
 Library entry O      P cc-pVDZ              selected for orbital group  2
 Library entry O      D cc-pVDZ              selected for orbital group  2
 Library entry H      S cc-pVDZ              selected for orbital group  3
 Library entry H      P cc-pVDZ              selected for orbital group  3

1PROGRAM * SEWARD (Integral evaluation for generally contracted gaussian basis sets)     Author: Roland Lindh, 1990

 Geometry written to block  1 of record 700


 Point group  C1  



 ATOMIC COORDINATES

 NR  ATOM    CHARGE       X              Y              Z

   1  C       6.00   -1.374729604   -0.023373526    0.000000317
   2  O       8.00    1.309530463    0.120639121    0.000000396
   3  H       1.00   -2.085837693    1.916178145   -0.000080097
   4  H       1.00   -2.107214758   -0.980530879    1.687871260
   5  H       1.00   -2.107207551   -0.980662645   -1.687799027
   6  H       1.00    1.941734984   -1.582382337   -0.000001258

 Bond lengths in Bohr (Angstrom)

 1-2  2.688120486  1-3  2.065801396  1-4  2.074028211  1-5  2.074028212  2-6  1.816580481
     ( 1.422492096)     ( 1.093175017)     ( 1.097528460)     ( 1.097528461)     ( 0.961292989)

 Bond angles

  1-2-6  107.29517705   2-1-3  107.06369970   2-1-4  112.17193260   2-1-5  112.17193145

  3-1-4  108.16491403   3-1-5  108.16476260   4-1-5  108.93690472

 NUCLEAR CHARGE:                   18
 NUMBER OF PRIMITIVE AOS:          82
 NUMBER OF SYMMETRY AOS:           80
 NUMBER OF CONTRACTIONS:           48   (  48A   )
 NUMBER OF CORE ORBITALS:           2   (   2A   )
 NUMBER OF VALENCE ORBITALS:       12   (  12A   )


 NUCLEAR REPULSION ENERGY   40.23600576


 Eigenvalues of metric

         1 0.970E-02 0.177E-01 0.372E-01 0.378E-01 0.385E-01 0.476E-01 0.484E-01 0.521E-01


 Contracted 2-electron integrals neglected if value below      1.0D-16
 AO integral compression algorithm  1   Integral accuracy      1.0D-16

     6.291 MB (compressed) written to integral file ( 98.4%)

     Node minimum: 6.291 MB, node maximum: 6.291 MB


 NUMBER OF SORTED TWO-ELECTRON INTEGRALS:     692076.     BUFFER LENGTH:  32768
 NUMBER OF SEGMENTS:   1  SEGMENT LENGTH:     692076      RECORD LENGTH: 524288

 Memory used in sort:       1.25 MW

 SORT1 READ      832256. AND WROTE      682148. INTEGRALS IN      2 RECORDS. CPU TIME:     0.01 SEC, REAL TIME:     0.01 SEC
 SORT2 READ      682148. AND WROTE      692076. INTEGRALS IN     24 RECORDS. CPU TIME:     0.01 SEC, REAL TIME:     0.02 SEC

 FILE SIZES:   FILE 1:     8.0 MBYTE,  FILE 4:     8.4 MBYTE,   TOTAL:     16.4 MBYTE

 OPERATOR DM      FOR CENTER  0  COORDINATES:    0.000000    0.000000    0.000000


 **********************************************************************************************************************************
 DATASETS  * FILE   NREC   LENGTH (MB)   RECORD NAMES
              1      19        8.03       500      610      700      900      950      970     1000      129      960     1100   
                                          VAR    BASINP    GEOM    SYMINP    ZMAT    AOBASIS   BASIS     P2S    ABASIS      S 
                                         1400     1410     1200     1210     1080     1600     1650     1300     1700   
                                           T        V       H0       H01     AOSYM     SMH    MOLCAS    ERIS     OPER   

 PROGRAMS   *        TOTAL       INT
 CPU TIMES  *         0.18      0.14
 REAL TIME  *         0.38 SEC
 DISK USED  *        23.34 MB      
 GA USED    *         0.00 MB       (max)       0.00 MB       (current)
 **********************************************************************************************************************************

1PROGRAM * RHF-SCF (CLOSED SHELL)       Authors: W. Meyer, H.-J. Werner


 NUMBER OF ELECTRONS:       9+    9-    SPACE SYMMETRY=1    SPIN SYMMETRY: Singlet 
 CONVERGENCE THRESHOLDS:    1.00E-10 (Density)    1.00E-13 (Energy)
 MAX. NUMBER OF ITERATIONS:      200
 INTERPOLATION TYPE:            DIIS
 INTERPOLATION STEPS:              2 (START)      1 (STEP)
 LEVEL SHIFTS:                  0.00 (CLOSED)  0.00 (OPEN) 



 Orbital guess generated from atomic densities. Full valence occupancy:   14

 Molecular orbital dump at record        2100.2

 ITERATION    DDIFF          GRAD             ENERGY        2-EL.EN.            DIPOLE MOMENTS         DIIS
    1      0.000D+00      0.000D+00      -115.01401418    164.252477   -0.49882   -0.90202   -0.00000    0
    2      0.000D+00      0.110D-01      -115.04239840    162.038715   -0.31763   -0.53595   -0.00000    1
    3      0.205D-01      0.532D-02      -115.04848802    163.062833   -0.40198   -0.61146   -0.00000    2
    4      0.641D-02      0.112D-02      -115.04895298    162.906886   -0.39171   -0.60035   -0.00000    3
    5      0.204D-02      0.203D-03      -115.04897417    162.913531   -0.39450   -0.59606   -0.00000    4
    6      0.435D-03      0.355D-04      -115.04897497    162.913521   -0.39480   -0.59585   -0.00000    5
    7      0.930D-04      0.727D-05      -115.04897500    162.912389   -0.39493   -0.59568   -0.00000    6
    8      0.151D-04      0.233D-05      -115.04897501    162.912772   -0.39496   -0.59566   -0.00000    7
    9      0.492D-05      0.492D-06      -115.04897501    162.912728   -0.39498   -0.59566   -0.00000    6
   10      0.141D-05      0.868D-07      -115.04897501    162.912727   -0.39498   -0.59566   -0.00000    6
   11      0.233D-06      0.325D-07      -115.04897501    162.912733   -0.39498   -0.59566   -0.00000    6
   12      0.591D-07      0.135D-07      -115.04897501    162.912731   -0.39498   -0.59566   -0.00000    7
   13      0.251D-07      0.303D-08      -115.04897501    162.912731   -0.39498   -0.59566   -0.00000    7
   14      0.754D-08      0.651D-09      -115.04897501    162.912731   -0.39498   -0.59566   -0.00000    7
   15      0.166D-08      0.151D-09      -115.04897501    162.912731   -0.39498   -0.59566   -0.00000    7
   16      0.335D-09      0.446D-10      -115.04897501    162.912731   -0.39498   -0.59566   -0.00000    7
   17      0.872D-10      0.147D-10      -115.04897501    162.912731   -0.39498   -0.59566   -0.00000    0

 Final occupancy:   9

 !RHF STATE 1.1 Energy               -115.048975005962
 Nuclear energy                        40.23600576
 One-electron energy                 -236.74134620
 Two-electron energy                   81.45636544
 Virial quotient                       -1.00110776
 !RHF STATE 1.1 Dipole moment          -0.39497965    -0.59566080    -0.00000281
 Dipole moment /Debye                  -1.00387237    -1.51391958    -0.00000715

 Orbital energies:

         1.1          2.1          3.1          4.1          5.1          6.1          7.1          8.1          9.1         10.1
    -20.550330   -11.276013    -1.349087    -0.920074    -0.681709    -0.613198    -0.584237    -0.496540    -0.443119     0.184222

        11.1
      0.223905


 **********************************************************************************************************************************
 DATASETS  * FILE   NREC   LENGTH (MB)   RECORD NAMES
              1      19        8.03       500      610      700      900      950      970     1000      129      960     1100   
                                          VAR    BASINP    GEOM    SYMINP    ZMAT    AOBASIS   BASIS     P2S    ABASIS      S 
                                         1400     1410     1200     1210     1080     1600     1650     1300     1700   
                                           T        V       H0       H01     AOSYM     SMH    MOLCAS    ERIS     OPER   

              2       3        0.39       700     1000     2100   
                                         GEOM     BASIS     RHF  

 PROGRAMS   *        TOTAL       RHF       INT
 CPU TIMES  *         0.25      0.07      0.14
 REAL TIME  *         0.48 SEC
 DISK USED  *        23.34 MB      
 GA USED    *         0.00 MB       (max)       0.00 MB       (current)
 **********************************************************************************************************************************


1PROGRAM * CCSD (Closed-shell coupled cluster)     Authors: C. Hampel, H.-J. Werner, 1991, M. Deegan, P.J. Knowles, 1992


 Convergence thresholds:  THRVAR = 1.00D-08  THRDEN = 1.00D-12

 CCSD(T)     terms to be evaluated (factor= 1.000)


 Number of core orbitals:           2 (   2 )
 Number of closed-shell orbitals:   7 (   7 )
 Number of external orbitals:      39 (  39 )

 Molecular orbitals read from record     2100.2  Type=RHF/CANONICAL (state 1.1)

 Number of N-1 electron functions:               7
 Number of N-2 electron functions:              28
 Number of singly external CSFs:               273
 Number of doubly external CSFs:             37401
 Total number of CSFs:                       37675

 Length of J-op  integral file:               0.00 MB
 Length of K-op  integral file:               0.19 MB
 Length of 3-ext integral record:             0.00 MB

 Memory could be reduced to 0.96 Mwords without degradation in triples

 Integral transformation finished. Total CPU:   0.01 sec, npass=  1  Memory used:   0.66 MW

 Reference energy:                   -115.04897501

 MP2 singlet pair energy:              -0.21887409
 MP2 triplet pair energy:              -0.11988053
 MP2 correlation energy:               -0.33875462
 MP2 total energy:                   -115.38772962

 SCS-MP2 correlation energy:           -0.33724123   (PS=  1.200000  PT=  0.333333)
 SCS-MP2 total energy:               -115.38621624

 ITER.      SQ.NORM     CORR.ENERGY   TOTAL ENERGY   ENERGY CHANGE        DEN1      VAR(S)    VAR(P)  DIIS     TIME
   1      1.10763684    -0.36157025  -115.41054525    -0.02281563    -0.01409682  0.92D-03  0.18D-02  1  1     0.05
   2      1.11622409    -0.36352798  -115.41250299    -0.00195774    -0.00928679  0.20D-04  0.16D-03  2  2     0.08
   3      1.11813224    -0.36365743  -115.41263244    -0.00012945    -0.00121764  0.96D-05  0.87D-05  3  3     0.11
   4      1.11865526    -0.36365624  -115.41263124     0.00000120    -0.00025804  0.34D-06  0.69D-06  4  4     0.14
   5      1.11875519    -0.36365668  -115.41263169    -0.00000045    -0.00003660  0.10D-06  0.50D-07  5  5     0.17
   6      1.11877468    -0.36365531  -115.41263032     0.00000137    -0.00000446  0.16D-07  0.42D-08  6  6     0.21
   7      1.11877951    -0.36365489  -115.41262989     0.00000043    -0.00000035  0.21D-08  0.74D-09  6  1     0.24
   8      1.11878080    -0.36365499  -115.41263000    -0.00000010     0.00000076  0.26D-09  0.74D-10  6  3     0.27
   9      1.11878188    -0.36365487  -115.41262987     0.00000013    -0.00000039  0.13D-10  0.11D-10  6  2     0.30
  10      1.11878180    -0.36365487  -115.41262987    -0.00000000     0.00000007  0.11D-11  0.91D-12  6  5     0.34
  11      1.11878184    -0.36365487  -115.41262987     0.00000000    -0.00000000  0.19D-12  0.52D-13  6  4     0.37
  12      1.11878182    -0.36365487  -115.41262987    -0.00000000     0.00000001  0.19D-13  0.10D-13  6  1     0.40
  13      1.11878182    -0.36365487  -115.41262987    -0.00000000    -0.00000000  0.24D-14  0.96D-15  6  6     0.43
  14      1.11878183    -0.36365487  -115.41262987     0.00000000    -0.00000000  0.23D-15  0.13D-15  6  3     0.47
  15      1.11878183    -0.36365487  -115.41262987    -0.00000000    -0.00000000  0.26D-16  0.17D-16  6  2     0.50
  16      1.11878183    -0.36365487  -115.41262987    -0.00000000    -0.00000000  0.58D-17  0.17D-17  6  5     0.53
  17      1.11878183    -0.36365487  -115.41262987    -0.00000000    -0.00000000  0.56D-18  0.26D-18  6  4     0.56
  18      1.11878183    -0.36365487  -115.41262987     0.00000000    -0.00000000  0.86D-19  0.45D-19  6  1     0.60
  19      1.11878183    -0.36365487  -115.41262987    -0.00000000    -0.00000000  0.97D-20  0.45D-20  6  6     0.63
  20      1.11878183    -0.36365487  -115.41262987     0.00000000     0.00000000  0.13D-20  0.58D-21  6  3     0.66

 Norm of t1 vector:      0.04181667      S-energy:    -0.00000000      T1 diagnostic:  0.00790261
                                                                       D1 diagnostic:  0.01758725


 Total CPU time for triples:      0.17 sec


 RESULTS
 =======

  Reference energy                   -115.048975005962
  CCSD singlet pair energy             -0.254923168347
  CCSD triplet pair energy             -0.108731699149
  CCSD correlation energy              -0.363654867498

  Triples (T) contribution             -0.007769090609
  Total correlation energy             -0.371423958107

  CCSD total energy                  -115.412629873459
  CCSD[T] energy                     -115.420691553841
  CCSD-T energy                      -115.420247565234
 !CCSD(T) total energy               -115.420398964069

 Timing summary (sec):

 STEP                 CPU(USER)    SYS     CPU(TOT)    WALL
 Transformation          0.02      0.01      0.03      0.02
 CCSD iterations         0.64      0.04      0.68      0.71
 Triples                 0.17      0.00      0.17      0.17

 Program statistics:

 Available memory in ccsd:               999999704
 Min. memory needed in ccsd:                136801
 Max. memory used in ccsd:                  163198
 Max. memory used in cckext:                182024 (20 integral passes)



 **********************************************************************************************************************************
 DATASETS  * FILE   NREC   LENGTH (MB)   RECORD NAMES
              1      20       10.56       500      610      700      900      950      970     1000      129      960     1100   
                                          VAR    BASINP    GEOM    SYMINP    ZMAT    AOBASIS   BASIS     P2S    ABASIS      S 
                                         1400     1410     1200     1210     1080     1600     1650     1300     1700     1380   
                                           T        V       H0       H01     AOSYM     SMH    MOLCAS    ERIS     OPER     JKOP   

              2       3        0.39       700     1000     2100   
                                         GEOM     BASIS     RHF  

 PROGRAMS   *        TOTAL   CCSD(T)       RHF       INT
 CPU TIMES  *         1.09      0.84      0.07      0.14
 REAL TIME  *         1.40 SEC
 DISK USED  *        24.77 MB      
 GA USED    *         0.00 MB       (max)       0.00 MB       (current)
 **********************************************************************************************************************************

        CCSD(T)         RHF-SCF 
   -115.42039896   -115.04897501
 **********************************************************************************************************************************
 Variable memory released
