
 Primary working directories    : /tmp/795519.101.gen6.q
 Secondary working directories  : /tmp/795519.101.gen6.q
 Wavefunction directory         : /home/vulcan/mel64643/wfu/
 Main file repository           : /tmp/795519.101.gen6.q/

 ARCHNAME  : Linux/x86_64
 FC        : /opt/intel/compilers_and_libraries_2016.1.150/linux/bin/intel64/ifort
 FCVERSION : 16.0.1
 BLASLIB   : -mkl
 id        : ccgc

 Nodes     nprocs
 n086         1
 ga_uses_ma=false, calling ma_init with nominal heap.
 GA-space will be limited to   8.0 MW (determined by -G option)

 Using customized tuning parameters: mindgm=10; mindgv=16; mindgc=4; mindgr=1; noblas=0; mincuda=1000; minvec=7
 default implementation of scratch files=df  

 ***,Optimization of min3
 memory,1000,m
 gthresh,energy=1.0d-12,orbital=1.0d-10,oneint=1.0d-16,twoint=1.0d-16,optgrad=1.0d-6,compress=1.0d-13
 geomtyp=xyz
 
  bohr
  geometry = {
  6
  arbitrary comment
  C   -1.3785828991   -0.0255209704    0.0000002593
  O    1.3096298831    0.1133085043    0.0000003501
  H   -2.0791165654    1.9115965190   -0.0000798956
  H   -2.1149089640   -0.9778429315    1.6821254893
  H   -2.1149022303   -0.9779742225   -1.6820533152
  H    1.9541566157   -1.5736990189   -0.0000012978
 }
 
 basis=cc-pvdz
 {rhf;maxit,200}
 {ccsd(t);maxit,200}

 Variables initialized (661), CPU time= 0.01 sec
 Commands  initialized (458), CPU time= 0.00 sec, 486 directives.
 Default parameters read. Elapsed time= 0.04 sec

 Checking input...
 Passed
1


                                         ***  PROGRAM SYSTEM MOLPRO  ***
                         Copyright, University College Cardiff Consultants Limited, 2008

                                    Version 2010.1 linked May 16 2016 07:17:05


 **********************************************************************************************************************************
 LABEL *   Optimization of min3                                                          
 Linux-4.4.3/n086(x86_64) 64 bit mpp version                                             DATE: 24-Oct-22          TIME: 15:43:06  
 **********************************************************************************************************************************

 SHA1:             9e8077add272b0f3cad6f7df79ec5211205f459d
 **********************************************************************************************************************************

 THRESHOLDS:

 ZERO    =  1.00D-12  ONEINT  =  1.00D-16  TWOINT  =  1.00D-16  PREFAC  =  1.00D-14  LOCALI  =  1.00D-09  EORDER  =  1.00D-04
 ENERGY  =  1.00D-12  ETEST   =  0.00D+00  EDENS   =  0.00D+00  THRDEDEF=  1.00D-06  GRADIENT=  1.00D-02  STEP    =  1.00D-03
 ORBITAL =  1.00D-10  CIVEC   =  1.00D-05  COEFF   =  1.00D-04  PRINTCI =  5.00D-02  PUNCHCI =  9.90D+01  OPTGRAD =  1.00D-06
 OPTENERG=  1.00D-06  OPTSTEP =  3.00D-04  THRGRAD =  1.00D-10  COMPRESS=  1.00D-13  VARMIN  =  1.00D-07  VARMAX  =  1.00D-03
 THRDOUB =  0.00D+00  THRDIV  =  1.00D-05  THRRED  =  1.00D-07  THRPSP  =  1.00D+00  THRDC   =  1.00D-10  THRCS   =  1.00D-10
 THRNRM  =  1.00D-08  THREQ   =  0.00D+00  THRDE   =  1.00D+00  THRREF  =  1.00D-05  SPARFAC =  1.00D+00  THRDLP  =  1.00D-07
 THRDIA  =  1.00D-10  THRDLS  =  1.00D-07  THRGPS  =  0.00D+00  THRKEX  =  0.00D+00  THRDIS  =  2.00D-01  THRVAR  =  1.00D-10
 THRLOC  =  1.00D-06  THRGAP  =  1.00D-06  THRLOCT = -1.00D+00  THRGAPT = -1.00D+00  THRORB  =  1.00D-06  THRMLTP =  0.00D+00
 THRCPQCI=  1.00D-10  KEXTA   =  0.00D+00  THRCOARS=  0.00D+00  SYMTOL  =  1.00D-06  GRADTOL =  1.00D-06  THROVL  =  1.00D-08
 THRORTH =  1.00D-08  GRID    =  1.00D-06  GRIDMAX =  1.00D-03  DTMAX   =  0.00D+00

 SETTING GEOMTYP        =    XYZ
 ZUNIT=BOHR
 

 Variable memory set to 1000000000 words,  buffer space   230000 words

 SETTING BASIS          =    CC-PVDZ


 Recomputing integrals since basis changed


 Using spherical harmonics

 Library entry C      S cc-pVDZ              selected for orbital group  1
 Library entry C      P cc-pVDZ              selected for orbital group  1
 Library entry C      D cc-pVDZ              selected for orbital group  1
 Library entry O      S cc-pVDZ              selected for orbital group  2
 Library entry O      P cc-pVDZ              selected for orbital group  2
 Library entry O      D cc-pVDZ              selected for orbital group  2
 Library entry H      S cc-pVDZ              selected for orbital group  3
 Library entry H      P cc-pVDZ              selected for orbital group  3

1PROGRAM * SEWARD (Integral evaluation for generally contracted gaussian basis sets)     Author: Roland Lindh, 1990

 Geometry written to block  1 of record 700


 Point group  C1  



 ATOMIC COORDINATES

 NR  ATOM    CHARGE       X              Y              Z

   1  C       6.00   -1.378582899   -0.025520970    0.000000259
   2  O       8.00    1.309629883    0.113308504    0.000000350
   3  H       1.00   -2.079116565    1.911596519   -0.000079896
   4  H       1.00   -2.114908964   -0.977842932    1.682125489
   5  H       1.00   -2.114902230   -0.977974222   -1.682053315
   6  H       1.00    1.954156616   -1.573699019   -0.000001298

 Bond lengths in Bohr (Angstrom)

 1-2  2.691795235  1-3  2.059896015  1-4  2.068487003  1-5  2.068486786  2-6  1.805937178
     ( 1.424436689)     ( 1.090050024)     ( 1.094596179)     ( 1.094596064)     ( 0.955660796)

 Bond angles

  1-2-6  107.95317574   2-1-3  106.92552894   2-1-4  112.28688656   2-1-5  112.28689382

  3-1-4  108.17530470   3-1-5  108.17515648   4-1-5  108.81914365

 NUCLEAR CHARGE:                   18
 NUMBER OF PRIMITIVE AOS:          82
 NUMBER OF SYMMETRY AOS:           80
 NUMBER OF CONTRACTIONS:           48   (  48A   )
 NUMBER OF CORE ORBITALS:           2   (   2A   )
 NUMBER OF VALENCE ORBITALS:       12   (  12A   )


 NUCLEAR REPULSION ENERGY   40.25903862


 Eigenvalues of metric

         1 0.968E-02 0.177E-01 0.368E-01 0.374E-01 0.379E-01 0.474E-01 0.479E-01 0.517E-01


 Contracted 2-electron integrals neglected if value below      1.0D-16
 AO integral compression algorithm  1   Integral accuracy      1.0D-16

     6.291 MB (compressed) written to integral file ( 98.4%)

     Node minimum: 6.291 MB, node maximum: 6.291 MB


 NUMBER OF SORTED TWO-ELECTRON INTEGRALS:     692076.     BUFFER LENGTH:  32768
 NUMBER OF SEGMENTS:   1  SEGMENT LENGTH:     692076      RECORD LENGTH: 524288

 Memory used in sort:       1.25 MW

 SORT1 READ      832256. AND WROTE      682148. INTEGRALS IN      2 RECORDS. CPU TIME:     0.01 SEC, REAL TIME:     0.01 SEC
 SORT2 READ      682148. AND WROTE      692076. INTEGRALS IN     24 RECORDS. CPU TIME:     0.01 SEC, REAL TIME:     0.02 SEC

 FILE SIZES:   FILE 1:     8.0 MBYTE,  FILE 4:     8.4 MBYTE,   TOTAL:     16.4 MBYTE

 OPERATOR DM      FOR CENTER  0  COORDINATES:    0.000000    0.000000    0.000000


 **********************************************************************************************************************************
 DATASETS  * FILE   NREC   LENGTH (MB)   RECORD NAMES
              1      19        8.03       500      610      700      900      950      970     1000      129      960     1100   
                                          VAR    BASINP    GEOM    SYMINP    ZMAT    AOBASIS   BASIS     P2S    ABASIS      S 
                                         1400     1410     1200     1210     1080     1600     1650     1300     1700   
                                           T        V       H0       H01     AOSYM     SMH    MOLCAS    ERIS     OPER   

 PROGRAMS   *        TOTAL       INT
 CPU TIMES  *         0.19      0.14
 REAL TIME  *         0.37 SEC
 DISK USED  *        23.34 MB      
 GA USED    *         0.00 MB       (max)       0.00 MB       (current)
 **********************************************************************************************************************************

1PROGRAM * RHF-SCF (CLOSED SHELL)       Authors: W. Meyer, H.-J. Werner


 NUMBER OF ELECTRONS:       9+    9-    SPACE SYMMETRY=1    SPIN SYMMETRY: Singlet 
 CONVERGENCE THRESHOLDS:    1.00E-10 (Density)    1.00E-13 (Energy)
 MAX. NUMBER OF ITERATIONS:      200
 INTERPOLATION TYPE:            DIIS
 INTERPOLATION STEPS:              2 (START)      1 (STEP)
 LEVEL SHIFTS:                  0.00 (CLOSED)  0.00 (OPEN) 



 Orbital guess generated from atomic densities. Full valence occupancy:   14

 Molecular orbital dump at record        2100.2

 ITERATION    DDIFF          GRAD             ENERGY        2-EL.EN.            DIPOLE MOMENTS         DIIS
    1      0.000D+00      0.000D+00      -115.01434556    164.289903   -0.50035   -0.89280   -0.00000    0
    2      0.000D+00      0.110D-01      -115.04260968    162.080853   -0.31964   -0.53387   -0.00000    1
    3      0.205D-01      0.530D-02      -115.04863752    163.101638   -0.40338   -0.60783   -0.00000    2
    4      0.639D-02      0.112D-02      -115.04909767    162.946762   -0.39291   -0.59721   -0.00000    3
    5      0.203D-02      0.200D-03      -115.04911820    162.952980   -0.39555   -0.59303   -0.00000    4
    6      0.429D-03      0.348D-04      -115.04911897    162.953131   -0.39579   -0.59285   -0.00000    5
    7      0.918D-04      0.718D-05      -115.04911900    162.951953   -0.39590   -0.59269   -0.00000    6
    8      0.146D-04      0.231D-05      -115.04911900    162.952324   -0.39593   -0.59266   -0.00000    7
    9      0.493D-05      0.475D-06      -115.04911900    162.952284   -0.39594   -0.59266   -0.00000    6
   10      0.137D-05      0.819D-07      -115.04911900    162.952282   -0.39595   -0.59266   -0.00000    6
   11      0.224D-06      0.307D-07      -115.04911900    162.952288   -0.39595   -0.59266   -0.00000    6
   12      0.560D-07      0.123D-07      -115.04911900    162.952286   -0.39595   -0.59266   -0.00000    7
   13      0.226D-07      0.284D-08      -115.04911900    162.952286   -0.39595   -0.59266   -0.00000    7
   14      0.699D-08      0.617D-09      -115.04911900    162.952286   -0.39595   -0.59266   -0.00000    7
   15      0.158D-08      0.141D-09      -115.04911900    162.952286   -0.39595   -0.59266   -0.00000    7
   16      0.311D-09      0.416D-10      -115.04911900    162.952286   -0.39595   -0.59266   -0.00000    7
   17      0.801D-10      0.136D-10      -115.04911900    162.952286   -0.39595   -0.59266   -0.00000    0

 Final occupancy:   9

 !RHF STATE 1.1 Energy               -115.049118998367
 Nuclear energy                        40.25903862
 One-electron energy                 -236.78430069
 Two-electron energy                   81.47614307
 Virial quotient                       -1.00095423
 !RHF STATE 1.1 Dipole moment          -0.39594609    -0.59266118    -0.00000283
 Dipole moment /Debye                  -1.00632867    -1.50629579    -0.00000719

 Orbital energies:

         1.1          2.1          3.1          4.1          5.1          6.1          7.1          8.1          9.1         10.1
    -20.549341   -11.275238    -1.349021    -0.921936    -0.682601    -0.613140    -0.584378    -0.496900    -0.443452     0.184996

        11.1
      0.224332


 **********************************************************************************************************************************
 DATASETS  * FILE   NREC   LENGTH (MB)   RECORD NAMES
              1      19        8.03       500      610      700      900      950      970     1000      129      960     1100   
                                          VAR    BASINP    GEOM    SYMINP    ZMAT    AOBASIS   BASIS     P2S    ABASIS      S 
                                         1400     1410     1200     1210     1080     1600     1650     1300     1700   
                                           T        V       H0       H01     AOSYM     SMH    MOLCAS    ERIS     OPER   

              2       3        0.39       700     1000     2100   
                                         GEOM     BASIS     RHF  

 PROGRAMS   *        TOTAL       RHF       INT
 CPU TIMES  *         0.26      0.07      0.14
 REAL TIME  *         0.47 SEC
 DISK USED  *        23.34 MB      
 GA USED    *         0.00 MB       (max)       0.00 MB       (current)
 **********************************************************************************************************************************


1PROGRAM * CCSD (Closed-shell coupled cluster)     Authors: C. Hampel, H.-J. Werner, 1991, M. Deegan, P.J. Knowles, 1992


 Convergence thresholds:  THRVAR = 1.00D-08  THRDEN = 1.00D-12

 CCSD(T)     terms to be evaluated (factor= 1.000)


 Number of core orbitals:           2 (   2 )
 Number of closed-shell orbitals:   7 (   7 )
 Number of external orbitals:      39 (  39 )

 Molecular orbitals read from record     2100.2  Type=RHF/CANONICAL (state 1.1)

 Number of N-1 electron functions:               7
 Number of N-2 electron functions:              28
 Number of singly external CSFs:               273
 Number of doubly external CSFs:             37401
 Total number of CSFs:                       37675

 Length of J-op  integral file:               0.00 MB
 Length of K-op  integral file:               0.19 MB
 Length of 3-ext integral record:             0.00 MB

 Memory could be reduced to 0.96 Mwords without degradation in triples

 Integral transformation finished. Total CPU:   0.01 sec, npass=  1  Memory used:   0.66 MW

 Reference energy:                   -115.04911900

 MP2 singlet pair energy:              -0.21859927
 MP2 triplet pair energy:              -0.11976907
 MP2 correlation energy:               -0.33836835
 MP2 total energy:                   -115.38748734

 SCS-MP2 correlation energy:           -0.33684211   (PS=  1.200000  PT=  0.333333)
 SCS-MP2 total energy:               -115.38596110

 ITER.      SQ.NORM     CORR.ENERGY   TOTAL ENERGY   ENERGY CHANGE        DEN1      VAR(S)    VAR(P)  DIIS     TIME
   1      1.10732233    -0.36118857  -115.41030757    -0.02282023    -0.01414021  0.91D-03  0.17D-02  1  1     0.04
   2      1.11585211    -0.36313391  -115.41225291    -0.00194534    -0.00925015  0.20D-04  0.16D-03  2  2     0.08
   3      1.11773546    -0.36326186  -115.41238086    -0.00012795    -0.00120444  0.95D-05  0.86D-05  3  3     0.11
   4      1.11825189    -0.36326042  -115.41237942     0.00000144    -0.00025526  0.34D-06  0.68D-06  4  4     0.14
   5      1.11835079    -0.36326080  -115.41237979    -0.00000038    -0.00003628  0.10D-06  0.50D-07  5  5     0.18
   6      1.11837008    -0.36325943  -115.41237843     0.00000137    -0.00000440  0.16D-07  0.41D-08  6  6     0.21
   7      1.11837488    -0.36325900  -115.41237800     0.00000043    -0.00000035  0.20D-08  0.73D-09  6  1     0.24
   8      1.11837616    -0.36325911  -115.41237811    -0.00000010     0.00000075  0.26D-09  0.73D-10  6  3     0.28
   9      1.11837723    -0.36325898  -115.41237798     0.00000013    -0.00000039  0.13D-10  0.11D-10  6  2     0.31
  10      1.11837716    -0.36325898  -115.41237798    -0.00000000     0.00000007  0.11D-11  0.89D-12  6  5     0.34
  11      1.11837719    -0.36325898  -115.41237798     0.00000000    -0.00000000  0.19D-12  0.51D-13  6  4     0.37
  12      1.11837717    -0.36325898  -115.41237798    -0.00000000     0.00000001  0.19D-13  0.10D-13  6  1     0.40
  13      1.11837717    -0.36325898  -115.41237798    -0.00000000    -0.00000000  0.24D-14  0.96D-15  6  6     0.44
  14      1.11837717    -0.36325898  -115.41237798     0.00000000    -0.00000000  0.22D-15  0.13D-15  6  3     0.47
  15      1.11837717    -0.36325898  -115.41237798    -0.00000000    -0.00000000  0.25D-16  0.17D-16  6  2     0.50
  16      1.11837717    -0.36325898  -115.41237798    -0.00000000    -0.00000000  0.57D-17  0.16D-17  6  5     0.53
  17      1.11837717    -0.36325898  -115.41237798    -0.00000000    -0.00000000  0.55D-18  0.25D-18  6  4     0.56
  18      1.11837717    -0.36325898  -115.41237798     0.00000000    -0.00000000  0.84D-19  0.43D-19  6  1     0.59
  19      1.11837717    -0.36325898  -115.41237798    -0.00000000    -0.00000000  0.96D-20  0.44D-20  6  6     0.63
  20      1.11837717    -0.36325898  -115.41237798     0.00000000     0.00000000  0.13D-20  0.57D-21  6  3     0.66

 Norm of t1 vector:      0.04169005      S-energy:    -0.00000000      T1 diagnostic:  0.00787868
                                                                       D1 diagnostic:  0.01765857


 Total CPU time for triples:      0.17 sec


 RESULTS
 =======

  Reference energy                   -115.049118998367
  CCSD singlet pair energy             -0.254562152578
  CCSD triplet pair energy             -0.108696832250
  CCSD correlation energy              -0.363258984829

  Triples (T) contribution             -0.007735519309
  Total correlation energy             -0.370994504138

  CCSD total energy                  -115.412377983196
  CCSD[T] energy                     -115.420404063392
  CCSD-T energy                      -115.419963190599
 !CCSD(T) total energy               -115.420113502505

 Timing summary (sec):

 STEP                 CPU(USER)    SYS     CPU(TOT)    WALL
 Transformation          0.02      0.01      0.03      0.02
 CCSD iterations         0.64      0.03      0.67      0.71
 Triples                 0.17      0.01      0.18      0.17

 Program statistics:

 Available memory in ccsd:               999999704
 Min. memory needed in ccsd:                136801
 Max. memory used in ccsd:                  163198
 Max. memory used in cckext:                182024 (20 integral passes)



 **********************************************************************************************************************************
 DATASETS  * FILE   NREC   LENGTH (MB)   RECORD NAMES
              1      20       10.56       500      610      700      900      950      970     1000      129      960     1100   
                                          VAR    BASINP    GEOM    SYMINP    ZMAT    AOBASIS   BASIS     P2S    ABASIS      S 
                                         1400     1410     1200     1210     1080     1600     1650     1300     1700     1380   
                                           T        V       H0       H01     AOSYM     SMH    MOLCAS    ERIS     OPER     JKOP   

              2       3        0.39       700     1000     2100   
                                         GEOM     BASIS     RHF  

 PROGRAMS   *        TOTAL   CCSD(T)       RHF       INT
 CPU TIMES  *         1.10      0.84      0.07      0.14
 REAL TIME  *         1.40 SEC
 DISK USED  *        24.77 MB      
 GA USED    *         0.00 MB       (max)       0.00 MB       (current)
 **********************************************************************************************************************************

        CCSD(T)         RHF-SCF 
   -115.42011350   -115.04911900
 **********************************************************************************************************************************
 Variable memory released
