
 Primary working directories    : /tmp/795519.112.gen6.q
 Secondary working directories  : /tmp/795519.112.gen6.q
 Wavefunction directory         : /home/vulcan/mel64643/wfu/
 Main file repository           : /tmp/795519.112.gen6.q/

 ARCHNAME  : Linux/x86_64
 FC        : /opt/intel/compilers_and_libraries_2016.1.150/linux/bin/intel64/ifort
 FCVERSION : 16.0.1
 BLASLIB   : -mkl
 id        : ccgc

 Nodes     nprocs
 n079         1
 ga_uses_ma=false, calling ma_init with nominal heap.
 GA-space will be limited to   8.0 MW (determined by -G option)

 Using customized tuning parameters: mindgm=10; mindgv=16; mindgc=4; mindgr=1; noblas=0; mincuda=1000; minvec=7
 default implementation of scratch files=df  

 ***,Optimization of min3
 memory,1000,m
 gthresh,energy=1.0d-12,orbital=1.0d-10,oneint=1.0d-16,twoint=1.0d-16,optgrad=1.0d-6,compress=1.0d-13
 geomtyp=xyz
 
  bohr
  geometry = {
  6
  arbitrary comment
  C   -1.3762128348   -0.0233317833    0.0000003636
  O    1.3146494480    0.1223424901    0.0000003371
  H   -2.0865974243    1.9106443599   -0.0000799350
  H   -2.1081269956   -0.9782631791    1.6814450945
  H   -2.1081196814   -0.9783943551   -1.6813729959
  H    1.9406833281   -1.5831296526   -0.0000012743
 }
 
 basis=cc-pvdz
 {rhf;maxit,200}
 {ccsd(t);maxit,200}

 Variables initialized (661), CPU time= 0.01 sec
 Commands  initialized (458), CPU time= 0.00 sec, 486 directives.
 Default parameters read. Elapsed time= 0.04 sec

 Checking input...
 Passed
1


                                         ***  PROGRAM SYSTEM MOLPRO  ***
                         Copyright, University College Cardiff Consultants Limited, 2008

                                    Version 2010.1 linked May 16 2016 07:17:05


 **********************************************************************************************************************************
 LABEL *   Optimization of min3                                                          
 Linux-4.4.3/n079(x86_64) 64 bit mpp version                                             DATE: 24-Oct-22          TIME: 15:43:20  
 **********************************************************************************************************************************

 SHA1:             9e8077add272b0f3cad6f7df79ec5211205f459d
 **********************************************************************************************************************************

 THRESHOLDS:

 ZERO    =  1.00D-12  ONEINT  =  1.00D-16  TWOINT  =  1.00D-16  PREFAC  =  1.00D-14  LOCALI  =  1.00D-09  EORDER  =  1.00D-04
 ENERGY  =  1.00D-12  ETEST   =  0.00D+00  EDENS   =  0.00D+00  THRDEDEF=  1.00D-06  GRADIENT=  1.00D-02  STEP    =  1.00D-03
 ORBITAL =  1.00D-10  CIVEC   =  1.00D-05  COEFF   =  1.00D-04  PRINTCI =  5.00D-02  PUNCHCI =  9.90D+01  OPTGRAD =  1.00D-06
 OPTENERG=  1.00D-06  OPTSTEP =  3.00D-04  THRGRAD =  1.00D-10  COMPRESS=  1.00D-13  VARMIN  =  1.00D-07  VARMAX  =  1.00D-03
 THRDOUB =  0.00D+00  THRDIV  =  1.00D-05  THRRED  =  1.00D-07  THRPSP  =  1.00D+00  THRDC   =  1.00D-10  THRCS   =  1.00D-10
 THRNRM  =  1.00D-08  THREQ   =  0.00D+00  THRDE   =  1.00D+00  THRREF  =  1.00D-05  SPARFAC =  1.00D+00  THRDLP  =  1.00D-07
 THRDIA  =  1.00D-10  THRDLS  =  1.00D-07  THRGPS  =  0.00D+00  THRKEX  =  0.00D+00  THRDIS  =  2.00D-01  THRVAR  =  1.00D-10
 THRLOC  =  1.00D-06  THRGAP  =  1.00D-06  THRLOCT = -1.00D+00  THRGAPT = -1.00D+00  THRORB  =  1.00D-06  THRMLTP =  0.00D+00
 THRCPQCI=  1.00D-10  KEXTA   =  0.00D+00  THRCOARS=  0.00D+00  SYMTOL  =  1.00D-06  GRADTOL =  1.00D-06  THROVL  =  1.00D-08
 THRORTH =  1.00D-08  GRID    =  1.00D-06  GRIDMAX =  1.00D-03  DTMAX   =  0.00D+00

 SETTING GEOMTYP        =    XYZ
 ZUNIT=BOHR
 

 Variable memory set to 1000000000 words,  buffer space   230000 words

 SETTING BASIS          =    CC-PVDZ


 Recomputing integrals since basis changed


 Using spherical harmonics

 Library entry C      S cc-pVDZ              selected for orbital group  1
 Library entry C      P cc-pVDZ              selected for orbital group  1
 Library entry C      D cc-pVDZ              selected for orbital group  1
 Library entry O      S cc-pVDZ              selected for orbital group  2
 Library entry O      P cc-pVDZ              selected for orbital group  2
 Library entry O      D cc-pVDZ              selected for orbital group  2
 Library entry H      S cc-pVDZ              selected for orbital group  3
 Library entry H      P cc-pVDZ              selected for orbital group  3

1PROGRAM * SEWARD (Integral evaluation for generally contracted gaussian basis sets)     Author: Roland Lindh, 1990

 Geometry written to block  1 of record 700


 Point group  C1  



 ATOMIC COORDINATES

 NR  ATOM    CHARGE       X              Y              Z

   1  C       6.00   -1.376212835   -0.023331783    0.000000364
   2  O       8.00    1.314649448    0.122342490    0.000000337
   3  H       1.00   -2.086597424    1.910644360   -0.000079935
   4  H       1.00   -2.108126996   -0.978263179    1.681445094
   5  H       1.00   -2.108119681   -0.978394355   -1.681372996
   6  H       1.00    1.940683328   -1.583129653   -0.000001274

 Bond lengths in Bohr (Angstrom)

 1-2  2.694802557  1-3  2.060317935  1-4  2.067570722  1-5  2.067570681  2-6  1.816742593
     ( 1.426028096)     ( 1.090273295)     ( 1.094111304)     ( 1.094111283)     ( 0.961378775)

 Bond angles

  1-2-6  107.05807880   2-1-3  107.07042462   2-1-4  112.23749699   2-1-5  112.23749010

  3-1-4  108.15056783   3-1-5  108.15041048   4-1-5  108.82530426

 NUCLEAR CHARGE:                   18
 NUMBER OF PRIMITIVE AOS:          82
 NUMBER OF SYMMETRY AOS:           80
 NUMBER OF CONTRACTIONS:           48   (  48A   )
 NUMBER OF CORE ORBITALS:           2   (   2A   )
 NUMBER OF VALENCE ORBITALS:       12   (  12A   )


 NUCLEAR REPULSION ENERGY   40.21672369


 Eigenvalues of metric

         1 0.969E-02 0.177E-01 0.369E-01 0.374E-01 0.384E-01 0.474E-01 0.478E-01 0.519E-01


 Contracted 2-electron integrals neglected if value below      1.0D-16
 AO integral compression algorithm  1   Integral accuracy      1.0D-16

     6.291 MB (compressed) written to integral file ( 98.1%)

     Node minimum: 6.291 MB, node maximum: 6.291 MB


 NUMBER OF SORTED TWO-ELECTRON INTEGRALS:     692076.     BUFFER LENGTH:  32768
 NUMBER OF SEGMENTS:   1  SEGMENT LENGTH:     692076      RECORD LENGTH: 524288

 Memory used in sort:       1.25 MW

 SORT1 READ      832256. AND WROTE      682147. INTEGRALS IN      2 RECORDS. CPU TIME:     0.01 SEC, REAL TIME:     0.01 SEC
 SORT2 READ      682147. AND WROTE      692076. INTEGRALS IN     24 RECORDS. CPU TIME:     0.02 SEC, REAL TIME:     0.02 SEC

 FILE SIZES:   FILE 1:     8.0 MBYTE,  FILE 4:     8.4 MBYTE,   TOTAL:     16.4 MBYTE

 OPERATOR DM      FOR CENTER  0  COORDINATES:    0.000000    0.000000    0.000000


 **********************************************************************************************************************************
 DATASETS  * FILE   NREC   LENGTH (MB)   RECORD NAMES
              1      19        8.02       500      610      700      900      950      970     1000      129      960     1100   
                                          VAR    BASINP    GEOM    SYMINP    ZMAT    AOBASIS   BASIS     P2S    ABASIS      S 
                                         1400     1410     1200     1210     1080     1600     1650     1300     1700   
                                           T        V       H0       H01     AOSYM     SMH    MOLCAS    ERIS     OPER   

 PROGRAMS   *        TOTAL       INT
 CPU TIMES  *         0.19      0.15
 REAL TIME  *         0.37 SEC
 DISK USED  *        23.33 MB      
 GA USED    *         0.00 MB       (max)       0.00 MB       (current)
 **********************************************************************************************************************************

1PROGRAM * RHF-SCF (CLOSED SHELL)       Authors: W. Meyer, H.-J. Werner


 NUMBER OF ELECTRONS:       9+    9-    SPACE SYMMETRY=1    SPIN SYMMETRY: Singlet 
 CONVERGENCE THRESHOLDS:    1.00E-10 (Density)    1.00E-13 (Energy)
 MAX. NUMBER OF ITERATIONS:      200
 INTERPOLATION TYPE:            DIIS
 INTERPOLATION STEPS:              2 (START)      1 (STEP)
 LEVEL SHIFTS:                  0.00 (CLOSED)  0.00 (OPEN) 



 Orbital guess generated from atomic densities. Full valence occupancy:   14

 Molecular orbital dump at record        2100.2

 ITERATION    DDIFF          GRAD             ENERGY        2-EL.EN.            DIPOLE MOMENTS         DIIS
    1      0.000D+00      0.000D+00      -115.01390068    164.213662   -0.50827   -0.90377   -0.00000    0
    2      0.000D+00      0.110D-01      -115.04227742    162.001649   -0.32572   -0.53707   -0.00000    1
    3      0.205D-01      0.532D-02      -115.04837107    163.025384   -0.41056   -0.61287   -0.00000    2
    4      0.642D-02      0.113D-02      -115.04883710    162.869709   -0.40017   -0.60174   -0.00000    3
    5      0.204D-02      0.203D-03      -115.04885844    162.876088   -0.40300   -0.59745   -0.00000    4
    6      0.436D-03      0.357D-04      -115.04885925    162.876209   -0.40330   -0.59725   -0.00000    5
    7      0.936D-04      0.743D-05      -115.04885928    162.875019   -0.40344   -0.59708   -0.00000    6
    8      0.152D-04      0.239D-05      -115.04885929    162.875406   -0.40348   -0.59706   -0.00000    7
    9      0.506D-05      0.494D-06      -115.04885929    162.875364   -0.40349   -0.59706   -0.00000    6
   10      0.142D-05      0.873D-07      -115.04885929    162.875363   -0.40349   -0.59706   -0.00000    6
   11      0.234D-06      0.326D-07      -115.04885929    162.875368   -0.40349   -0.59706   -0.00000    6
   12      0.586D-07      0.136D-07      -115.04885929    162.875366   -0.40349   -0.59706   -0.00000    7
   13      0.254D-07      0.302D-08      -115.04885929    162.875366   -0.40349   -0.59706   -0.00000    7
   14      0.757D-08      0.658D-09      -115.04885929    162.875366   -0.40349   -0.59706   -0.00000    7
   15      0.169D-08      0.151D-09      -115.04885929    162.875366   -0.40349   -0.59706   -0.00000    7
   16      0.338D-09      0.455D-10      -115.04885929    162.875366   -0.40349   -0.59706   -0.00000    7
   17      0.893D-10      0.163D-10      -115.04885929    162.875366   -0.40349   -0.59706   -0.00000    7
   18      0.419D-10      0.270D-11      -115.04885929    162.875366   -0.40349   -0.59706   -0.00000    0

 Final occupancy:   9

 !RHF STATE 1.1 Energy               -115.048859285688
 Nuclear energy                        40.21672369
 One-electron energy                 -236.70326620
 Two-electron energy                   81.43768323
 Virial quotient                       -1.00104830
 !RHF STATE 1.1 Dipole moment          -0.40349360    -0.59705852    -0.00000274
 Dipole moment /Debye                  -1.02551127    -1.51747199    -0.00000697

 Orbital energies:

         1.1          2.1          3.1          4.1          5.1          6.1          7.1          8.1          9.1         10.1
    -20.550350   -11.275203    -1.347861    -0.921247    -0.681247    -0.613206    -0.583564    -0.497572    -0.443699     0.184369

        11.1
      0.224038


 **********************************************************************************************************************************
 DATASETS  * FILE   NREC   LENGTH (MB)   RECORD NAMES
              1      19        8.02       500      610      700      900      950      970     1000      129      960     1100   
                                          VAR    BASINP    GEOM    SYMINP    ZMAT    AOBASIS   BASIS     P2S    ABASIS      S 
                                         1400     1410     1200     1210     1080     1600     1650     1300     1700   
                                           T        V       H0       H01     AOSYM     SMH    MOLCAS    ERIS     OPER   

              2       3        0.39       700     1000     2100   
                                         GEOM     BASIS     RHF  

 PROGRAMS   *        TOTAL       RHF       INT
 CPU TIMES  *         0.27      0.08      0.15
 REAL TIME  *         0.47 SEC
 DISK USED  *        23.33 MB      
 GA USED    *         0.00 MB       (max)       0.00 MB       (current)
 **********************************************************************************************************************************


1PROGRAM * CCSD (Closed-shell coupled cluster)     Authors: C. Hampel, H.-J. Werner, 1991, M. Deegan, P.J. Knowles, 1992


 Convergence thresholds:  THRVAR = 1.00D-08  THRDEN = 1.00D-12

 CCSD(T)     terms to be evaluated (factor= 1.000)


 Number of core orbitals:           2 (   2 )
 Number of closed-shell orbitals:   7 (   7 )
 Number of external orbitals:      39 (  39 )

 Molecular orbitals read from record     2100.2  Type=RHF/CANONICAL (state 1.1)

 Number of N-1 electron functions:               7
 Number of N-2 electron functions:              28
 Number of singly external CSFs:               273
 Number of doubly external CSFs:             37401
 Total number of CSFs:                       37675

 Length of J-op  integral file:               0.00 MB
 Length of K-op  integral file:               0.19 MB
 Length of 3-ext integral record:             0.00 MB

 Memory could be reduced to 0.96 Mwords without degradation in triples

 Integral transformation finished. Total CPU:   0.01 sec, npass=  1  Memory used:   0.66 MW

 Reference energy:                   -115.04885929

 MP2 singlet pair energy:              -0.21884795
 MP2 triplet pair energy:              -0.11989389
 MP2 correlation energy:               -0.33874184
 MP2 total energy:                   -115.38760113

 SCS-MP2 correlation energy:           -0.33721819   (PS=  1.200000  PT=  0.333333)
 SCS-MP2 total energy:               -115.38607747

 ITER.      SQ.NORM     CORR.ENERGY   TOTAL ENERGY   ENERGY CHANGE        DEN1      VAR(S)    VAR(P)  DIIS     TIME
   1      1.10756636    -0.36152865  -115.41038793    -0.02278680    -0.01407064  0.92D-03  0.17D-02  1  1     0.04
   2      1.11613532    -0.36348138  -115.41234066    -0.00195273    -0.00927918  0.20D-04  0.16D-03  2  2     0.08
   3      1.11804067    -0.36361033  -115.41246962    -0.00012895    -0.00121705  0.96D-05  0.87D-05  3  3     0.11
   4      1.11856329    -0.36360900  -115.41246829     0.00000133    -0.00025785  0.34D-06  0.69D-06  4  4     0.14
   5      1.11866332    -0.36360942  -115.41246870    -0.00000042    -0.00003667  0.10D-06  0.50D-07  5  5     0.18
   6      1.11868282    -0.36360803  -115.41246732     0.00000139    -0.00000443  0.16D-07  0.42D-08  6  6     0.21
   7      1.11868769    -0.36360761  -115.41246689     0.00000043    -0.00000035  0.21D-08  0.74D-09  6  1     0.24
   8      1.11868898    -0.36360771  -115.41246700    -0.00000010     0.00000076  0.26D-09  0.75D-10  6  3     0.27
   9      1.11869007    -0.36360758  -115.41246687     0.00000013    -0.00000039  0.13D-10  0.11D-10  6  2     0.30
  10      1.11869000    -0.36360759  -115.41246687    -0.00000000     0.00000007  0.11D-11  0.91D-12  6  5     0.34
  11      1.11869003    -0.36360758  -115.41246687     0.00000000    -0.00000000  0.20D-12  0.52D-13  6  4     0.37
  12      1.11869001    -0.36360759  -115.41246687    -0.00000000     0.00000001  0.19D-13  0.10D-13  6  1     0.40
  13      1.11869002    -0.36360759  -115.41246687    -0.00000000    -0.00000000  0.24D-14  0.96D-15  6  6     0.43
  14      1.11869002    -0.36360759  -115.41246687     0.00000000    -0.00000000  0.23D-15  0.13D-15  6  3     0.46
  15      1.11869002    -0.36360759  -115.41246687    -0.00000000    -0.00000000  0.26D-16  0.17D-16  6  2     0.50
  16      1.11869002    -0.36360759  -115.41246687    -0.00000000    -0.00000000  0.58D-17  0.17D-17  6  5     0.53
  17      1.11869002    -0.36360759  -115.41246687    -0.00000000    -0.00000000  0.55D-18  0.26D-18  6  4     0.56
  18      1.11869002    -0.36360759  -115.41246687     0.00000000    -0.00000000  0.85D-19  0.44D-19  6  1     0.60
  19      1.11869002    -0.36360759  -115.41246687    -0.00000000    -0.00000000  0.96D-20  0.44D-20  6  6     0.63
  20      1.11869002    -0.36360759  -115.41246687     0.00000000     0.00000000  0.14D-20  0.57D-21  6  3     0.66

 Norm of t1 vector:      0.04189724      S-energy:    -0.00000000      T1 diagnostic:  0.00791783
                                                                       D1 diagnostic:  0.01776080


 Total CPU time for triples:      0.17 sec


 RESULTS
 =======

  Reference energy                   -115.048859285688
  CCSD singlet pair energy             -0.254866117332
  CCSD triplet pair energy             -0.108741468231
  CCSD correlation energy              -0.363607585563

  Triples (T) contribution             -0.007770015727
  Total correlation energy             -0.371377601290

  CCSD total energy                  -115.412466871251
  CCSD[T] energy                     -115.420529709740
  CCSD-T energy                      -115.420085422839
 !CCSD(T) total energy               -115.420236886978

 Timing summary (sec):

 STEP                 CPU(USER)    SYS     CPU(TOT)    WALL
 Transformation          0.01      0.00      0.01      0.02
 CCSD iterations         0.65      0.03      0.68      0.71
 Triples                 0.17      0.01      0.18      0.17

 Program statistics:

 Available memory in ccsd:               999999704
 Min. memory needed in ccsd:                136801
 Max. memory used in ccsd:                  163198
 Max. memory used in cckext:                182024 (20 integral passes)



 **********************************************************************************************************************************
 DATASETS  * FILE   NREC   LENGTH (MB)   RECORD NAMES
              1      20       10.56       500      610      700      900      950      970     1000      129      960     1100   
                                          VAR    BASINP    GEOM    SYMINP    ZMAT    AOBASIS   BASIS     P2S    ABASIS      S 
                                         1400     1410     1200     1210     1080     1600     1650     1300     1700     1380   
                                           T        V       H0       H01     AOSYM     SMH    MOLCAS    ERIS     OPER     JKOP   

              2       3        0.39       700     1000     2100   
                                         GEOM     BASIS     RHF  

 PROGRAMS   *        TOTAL   CCSD(T)       RHF       INT
 CPU TIMES  *         1.11      0.84      0.08      0.15
 REAL TIME  *         1.39 SEC
 DISK USED  *        24.76 MB      
 GA USED    *         0.00 MB       (max)       0.00 MB       (current)
 **********************************************************************************************************************************

        CCSD(T)         RHF-SCF 
   -115.42023689   -115.04885929
 **********************************************************************************************************************************
 Variable memory released
