
    -----------------------------------------------------------------------
          Psi4: An Open-Source Ab Initio Electronic Structure Package
                               Psi4 1.4a2.dev629 

                         Git: Rev {master} 2938fc2 dirty


    D. G. A. Smith, L. A. Burns, A. C. Simmonett, R. M. Parrish,
    M. C. Schieber, R. Galvelis, P. Kraus, H. Kruse, R. Di Remigio,
    A. Alenaizan, A. M. James, S. Lehtola, J. P. Misiewicz, M. Scheurer,
    R. A. Shaw, J. B. Schriber, Y. Xie, Z. L. Glick, D. A. Sirianni,
    J. S. O'Brien, J. M. Waldrop, A. Kumar, E. G. Hohenstein,
    B. P. Pritchard, B. R. Brooks, H. F. Schaefer III, A. Yu. Sokolov,
    K. Patkowski, A. E. DePrince III, U. Bozkaya, R. A. King,
    F. A. Evangelista, J. M. Turney, T. D. Crawford, C. D. Sherrill,
    J. Chem. Phys. 152(18) 184108 (2020). https://doi.org/10.1063/5.0006002

                            Additional Code Authors
    E. T. Seidl, C. L. Janssen, E. F. Valeev, M. L. Leininger,
    J. F. Gonthier, R. M. Richard, H. R. McAlexander, M. Saitow, X. Wang,
    P. Verma, and M. H. Lechner

             Previous Authors, Complete List of Code Contributors,
                       and Citations for Specific Modules
    https://github.com/psi4/psi4/blob/master/codemeta.json
    https://github.com/psi4/psi4/graphs/contributors
    http://psicode.org/psi4manual/master/introduction.html#citing-psifour

    -----------------------------------------------------------------------


    Psi4 started on: Saturday, 19 September 2020 05:49PM

    Process ID: 2689
    Host:       n067
    PSIDATADIR: /opt/psi/4/master/share/psi4
    Memory:     500.0 MiB
    Threads:    1
    
  ==> Input File <==

--------------------------------------------------------------------------
# o-Benzyne preliminary computations

memory 14 gb

molecule {
  0 1
  C   -1.3702054281   -0.0264056996    0.0000042718
  O    1.3024234213    0.1227821253    0.0000034615
  H   -2.0704436461    1.9013626510   -0.0009180721
  H   -2.1030127681   -0.9745303834    1.6780032297
  H   -2.1029318261   -0.9760444924   -1.6771736288
  H    1.9373060071   -1.5723026608   -0.0000122520
  units bohr
}

set {
  basis=cc-pVTZ
  reference rhf
  e_convergence 10 
  d_convergence 10
  r_convergence 8
  maxiter 300
}

energy('ccsd(t)')
--------------------------------------------------------------------------

  Memory set to  13.039 GiB by Python driver.

Scratch directory: /tmp/

*** tstart() called on n067
*** at Sat Sep 19 17:49:54 2020

   => Loading Basis Set <=

    Name: CC-PVTZ
    Role: ORBITAL
    Keyword: BASIS
    atoms 1   entry C          line   186 file /opt/psi/4/master/share/psi4/basis/cc-pvtz.gbs 
    atoms 2   entry O          line   262 file /opt/psi/4/master/share/psi4/basis/cc-pvtz.gbs 
    atoms 3-6 entry H          line    23 file /opt/psi/4/master/share/psi4/basis/cc-pvtz.gbs 


         ---------------------------------------------------------
                                   SCF
               by Justin Turney, Rob Parrish, Andy Simmonett
                          and Daniel G. A. Smith
                              RHF Reference
                        1 Threads,  13351 MiB Core
         ---------------------------------------------------------

  ==> Geometry <==

    Molecular point group: c1
    Full point group: C1

    Geometry (in Bohr), charge = 0, multiplicity = 1:

       Center              X                  Y                   Z               Mass       
    ------------   -----------------  -----------------  -----------------  -----------------
         C           -1.370725333235    -0.026805931849     0.000004112036    12.000000000000
         O            1.301903516165     0.122381893051     0.000003301736    15.994914619570
         H           -2.070963551235     1.900962418751    -0.000918231864     1.007825032230
         H           -2.103532673235    -0.974930615649     1.678003069936     1.007825032230
         H           -2.103451731235    -0.976444724649    -1.677173788564     1.007825032230
         H            1.936786101965    -1.572702893049    -0.000012411764     1.007825032230

  Running in c1 symmetry.

  Rotational constants: A =      4.30791  B =      0.83204  C =      0.80287 [cm^-1]
  Rotational constants: A = 129147.93795  B =  24944.03468  C =  24069.46468 [MHz]
  Nuclear repulsion =   40.427117864448675

  Charge       = 0
  Multiplicity = 1
  Electrons    = 18
  Nalpha       = 9
  Nbeta        = 9

  ==> Algorithm <==

  SCF Algorithm Type is PK.
  DIIS enabled.
  MOM disabled.
  Fractional occupation disabled.
  Guess Type is SAD.
  Energy threshold   = 1.00e-10
  Density threshold  = 1.00e-10
  Integral threshold = 0.00e+00

  ==> Primary Basis <==

  Basis Set: CC-PVTZ
    Blend: CC-PVTZ
    Number of shells: 44
    Number of basis function: 116
    Number of Cartesian functions: 130
    Spherical Harmonics?: true
    Max angular momentum: 3

  ==> Integral Setup <==

  Using in-core PK algorithm.
   Calculation information:
      Number of atoms:                   6
      Number of AO shells:              44
      Number of primitives:             84
      Number of atomic orbitals:       130
      Number of basis functions:       116

      Integral cutoff                 1.00e-12
      Number of threads:                 1

  Performing in-core PK
  Using 46056582 doubles for integral storage.
  We computed 490499 shell quartets total.
  Whereas there are 490545 unique shell quartets.

  ==> DiskJK: Disk-Based J/K Matrices <==

    J tasked:                  Yes
    K tasked:                  Yes
    wK tasked:                  No
    Memory [MiB]:            10013
    Schwarz Cutoff:          1E-12

    OpenMP threads:              1

  Minimum eigenvalue in the overlap matrix is 1.8299007314E-03.
  Reciprocal condition number of the overlap matrix is 2.7581980133E-04.
    Using symmetric orthogonalization.

  ==> Pre-Iterations <==

  SCF Guess: Superposition of Atomic Densities via on-the-fly atomic UHF (no occupation information).

   -------------------------
    Irrep   Nso     Nmo    
   -------------------------
     A        116     116 
   -------------------------
    Total     116     116
   -------------------------

  ==> Iterations <==

                        Total Energy        Delta E     RMS |[F,P]|

   @RHF iter SAD:  -114.42861648652634   -1.14429e+02   0.00000e+00 
   @RHF iter   1:  -115.01457429872040   -5.85958e-01   3.41817e-03 DIIS
   @RHF iter   2:  -115.07165831197987   -5.70840e-02   1.94984e-03 DIIS
   @RHF iter   3:  -115.08841028992393   -1.67520e-02   3.01259e-04 DIIS
   @RHF iter   4:  -115.08929302092966   -8.82731e-04   8.78335e-05 DIIS
   @RHF iter   5:  -115.08936639127938   -7.33703e-05   2.13640e-05 DIIS
   @RHF iter   6:  -115.08937122179816   -4.83052e-06   4.72436e-06 DIIS
   @RHF iter   7:  -115.08937158762269   -3.65825e-07   1.09400e-06 DIIS
   @RHF iter   8:  -115.08937160898860   -2.13659e-08   2.25977e-07 DIIS
   @RHF iter   9:  -115.08937160988826   -8.99661e-10   4.20089e-08 DIIS
   @RHF iter  10:  -115.08937160991803   -2.97717e-11   1.07578e-08 DIIS
   @RHF iter  11:  -115.08937160992014   -2.10321e-12   2.19318e-09 DIIS
   @RHF iter  12:  -115.08937160992012    1.42109e-14   3.92288e-10 DIIS
   @RHF iter  13:  -115.08937160992014   -1.42109e-14   7.20831e-11 DIIS
  Energy and wave function converged.


  ==> Post-Iterations <==

    Orbital Energies [Eh]
    ---------------------

    Doubly Occupied:                                                      

       1A    -20.552337     2A    -11.267921     3A     -1.355980  
       4A     -0.924180     5A     -0.689366     6A     -0.619184  
       7A     -0.591197     8A     -0.502140     9A     -0.449185  

    Virtual:                                                              

      10A      0.138568    11A      0.178978    12A      0.220479  
      13A      0.224153    14A      0.291052    15A      0.386217  
      16A      0.404693    17A      0.545911    18A      0.585324  
      19A      0.624391    20A      0.625396    21A      0.639826  
      22A      0.690581    23A      0.705026    24A      0.721604  
      25A      0.833441    26A      0.864737    27A      0.872774  
      28A      0.927183    29A      1.069835    30A      1.102124  
      31A      1.178194    32A      1.190215    33A      1.263450  
      34A      1.272375    35A      1.284263    36A      1.364896  
      37A      1.447843    38A      1.492720    39A      1.523835  
      40A      1.546850    41A      1.585321    42A      1.620812  
      43A      1.778410    44A      2.093561    45A      2.180614  
      46A      2.200641    47A      2.300292    48A      2.323789  
      49A      2.488006    50A      2.511314    51A      2.576374  
      52A      2.804862    53A      2.953096    54A      3.056902  
      55A      3.110840    56A      3.118130    57A      3.143139  
      58A      3.224339    59A      3.244799    60A      3.315228  
      61A      3.315784    62A      3.343043    63A      3.385650  
      64A      3.503228    65A      3.615608    66A      3.634959  
      67A      3.702207    68A      3.710901    69A      3.747917  
      70A      3.763130    71A      3.818124    72A      3.843886  
      73A      3.905843    74A      4.012227    75A      4.029096  
      76A      4.119375    77A      4.162979    78A      4.173840  
      79A      4.250667    80A      4.259233    81A      4.290316  
      82A      4.404160    83A      4.440360    84A      4.468105  
      85A      4.563695    86A      4.585058    87A      4.715274  
      88A      4.787719    89A      5.000937    90A      5.038426  
      91A      5.060684    92A      5.204104    93A      5.275988  
      94A      5.318025    95A      5.378249    96A      5.443192  
      97A      5.551931    98A      5.552457    99A      5.569298  
     100A      5.792344   101A      5.946947   102A      6.193716  
     103A      6.215285   104A      6.251038   105A      6.436844  
     106A      6.642804   107A      6.999711   108A      7.127599  
     109A      7.184283   110A      7.237897   111A      7.356745  
     112A      7.438764   113A      7.593853   114A      7.914934  
     115A     12.159165   116A     13.764494  

    Final Occupation by Irrep:
              A 
    DOCC [     9 ]

  @RHF Final Energy:  -115.08937160992014

   => Energetics <=

    Nuclear Repulsion Energy =             40.4271178644486753
    One-Electron Energy =                -237.1299993660209964
    Two-Electron Energy =                  81.6135098916521997
    Total Energy =                       -115.0893716099201356

Computation Completed


Properties will be evaluated at   0.000000,   0.000000,   0.000000 [a0]

Properties computed using the SCF density matrix

  Nuclear Dipole Moment: [e a0]
     X:    -2.1503      Y:    -0.8049      Z:    -0.0001

  Electronic Dipole Moment: [e a0]
     X:     1.7673      Y:     0.2165      Z:     0.0000

  Dipole Moment: [e a0]
     X:    -0.3830      Y:    -0.5884      Z:    -0.0000     Total:     0.7021

  Dipole Moment: [D]
     X:    -0.9735      Y:    -1.4956      Z:    -0.0001     Total:     1.7845


*** tstop() called on n067 at Sat Sep 19 17:49:58 2020
Module time:
	user time   =       3.27 seconds =       0.05 minutes
	system time =       0.03 seconds =       0.00 minutes
	total time  =          4 seconds =       0.07 minutes
Total time:
	user time   =       3.27 seconds =       0.05 minutes
	system time =       0.03 seconds =       0.00 minutes
	total time  =          4 seconds =       0.07 minutes
 MINTS: Wrapper to libmints.
   by Justin Turney

   Calculation information:
      Number of threads:                 1
      Number of atoms:                   6
      Number of AO shells:              44
      Number of SO shells:              44
      Number of primitives:             84
      Number of atomic orbitals:       130
      Number of basis functions:       116

      Number of irreps:                  1
      Integral cutoff                 0.00e+00
      Number of functions per irrep: [ 116 ]

 OEINTS: Overlap, kinetic, potential, dipole, and quadrupole integrals
         stored in file 35.

      Computing two-electron integrals...done
      Computed 22879641 non-zero two-electron integrals.
        Stored in file 33.


*** tstart() called on n067
*** at Sat Sep 19 17:49:59 2020


	Wfn Parameters:
	--------------------
	Wavefunction         = CCSD_T
	Number of irreps     = 1
	Number of MOs        = 116
	Number of active MOs = 116
	AO-Basis             = NONE
	Semicanonical        = false
	Reference            = RHF
	Print Level          = 1

	IRREP	# MOs	# FZDC	# DOCC	# SOCC	# VIRT	# FZVR
	-----	-----	------	------	------	------	------
	 A	   116	    0	    9	    0	    107	    0
	Transforming integrals...
	IWL integrals will be deleted.
	(OO|OO)...
	Presorting SO-basis two-electron integrals.
	Sorting File: SO Ints (nn|nn) nbuckets = 1
	Transforming the one-electron integrals and constructing Fock matrices
	Starting first half-transformation.
	Sorting half-transformed integrals.
	First half integral transformation complete.
	Starting second half-transformation.
	Two-electron integral transformation complete.
	(OO|OV)...
	Starting second half-transformation.
	Two-electron integral transformation complete.
	(OO|VV)...
	Starting second half-transformation.
	Two-electron integral transformation complete.
	(OV|OO)...
	Starting first half-transformation.
	Sorting half-transformed integrals.
	First half integral transformation complete.
	Starting second half-transformation.
	Two-electron integral transformation complete.
	(OV|OV)...
	Starting second half-transformation.
	Two-electron integral transformation complete.
	(OV|VV)...
	Starting second half-transformation.
	Two-electron integral transformation complete.
	(VV|OO)...
	Starting first half-transformation.
	Sorting half-transformed integrals.
	First half integral transformation complete.
	Starting second half-transformation.
	Two-electron integral transformation complete.
	(VV|OV)...
	Starting second half-transformation.
	Two-electron integral transformation complete.
	(VV|VV)...
	Starting second half-transformation.
	Two-electron integral transformation complete.
	Frozen core energy     =      0.00000000000000

	Size of irrep 0 of <ab|cd> integrals:    131.080 (MW) /   1048.637 (MB)
	Total:                                   131.080 (MW) /   1048.637 (MB)

	Size of irrep 0 of <ia|bc> integrals:     11.025 (MW) /     88.203 (MB)
	Total:                                    11.025 (MW) /     88.203 (MB)

	Size of irrep 0 of tijab amplitudes:       0.927 (MW) /      7.419 (MB)
	Total:                                     0.927 (MW) /      7.419 (MB)

	Nuclear Rep. energy          =     40.42711786444868
	SCF energy                   =   -115.08937160992014
	One-electron energy          =   -237.12999939787093
	Two-electron energy          =     81.61350992350226
	Reference energy             =   -115.08937160991998

*** tstop() called on n067 at Sat Sep 19 17:50:10 2020
Module time:
	user time   =       7.90 seconds =       0.13 minutes
	system time =       2.65 seconds =       0.04 minutes
	total time  =         11 seconds =       0.18 minutes
Total time:
	user time   =      12.72 seconds =       0.21 minutes
	system time =       2.83 seconds =       0.05 minutes
	total time  =         16 seconds =       0.27 minutes
            **************************
            *                        *
            *        CCENERGY        *
            *                        *
            **************************

    Nuclear Rep. energy (wfn)     =   40.427117864448675
    SCF energy          (wfn)     = -115.089371609920136
    Reference energy    (file100) = -115.089371609919979

    Input parameters:
    -----------------
    Wave function   =     CCSD_T
    Reference wfn   =     RHF
    Brueckner       =     No
    Memory (Mbytes) =     14000.0
    Maxiter         =    300
    R_Convergence   =     1.0e-08
    E_Convergence   =     1.0e-10
    Restart         =     Yes
    DIIS            =     Yes
    AO Basis        =     NONE
    ABCD            =     NEW
    Cache Level     =     2
    Cache Type      =     LOW
    Print Level     =     1
    Num. of threads =     1
    # Amps to Print =     10
    Print MP2 Amps? =     No
    Analyze T2 Amps =     No
    Print Pair Ener =     No
    Local CC        =     No
    SCS-MP2         =     False
    SCSN-MP2        =     False
    SCS-CCSD        =     False

MP2 correlation energy -0.4574687694247026
                Solving CC Amplitude Equations
                ------------------------------
  Iter             Energy              RMS        T1Diag      D1Diag    New D1Diag    D2Diag
  ----     ---------------------    ---------   ----------  ----------  ----------   --------
     0        -0.457468769424703    0.000e+00    0.000000    0.000000    0.000000    0.128103
     1        -0.464985738785700    4.763e-02    0.006486    0.014797    0.014797    0.129221
     2        -0.474939975774331    1.562e-02    0.006594    0.014753    0.014753    0.134928
     3        -0.476413410833802    5.476e-03    0.007389    0.016820    0.016820    0.136359
     4        -0.476310088175899    1.202e-03    0.007441    0.016961    0.016961    0.136583
     5        -0.476349885836496    4.336e-04    0.007473    0.017092    0.017092    0.136679
     6        -0.476358460929172    1.219e-04    0.007483    0.017142    0.017142    0.136686
     7        -0.476356302685686    4.513e-05    0.007485    0.017156    0.017156    0.136684
     8        -0.476356169453468    1.675e-05    0.007486    0.017165    0.017165    0.136683
     9        -0.476356275982261    4.870e-06    0.007486    0.017166    0.017166    0.136683
    10        -0.476356031278442    1.556e-06    0.007486    0.017167    0.017167    0.136683
    11        -0.476356098253656    4.779e-07    0.007486    0.017167    0.017167    0.136683
    12        -0.476356083909440    1.170e-07    0.007486    0.017167    0.017167    0.136683
    13        -0.476356086960061    4.179e-08    0.007486    0.017167    0.017167    0.136683
    14        -0.476356088109647    1.191e-08    0.007486    0.017167    0.017167    0.136683
    15        -0.476356088153420    4.917e-09    0.007486    0.017167    0.017167    0.136683
    16        -0.476356088182641    1.536e-09    0.007486    0.017167    0.017167    0.136683

    Iterations converged.


    Largest TIA Amplitudes:
              5   6        -0.0080112058
              5  14         0.0076330070
              5   9         0.0070364763
              8  14        -0.0063849960
              6   7         0.0059859627
              6   3        -0.0059311938
              7   8         0.0057880602
              5   2         0.0056950020
              8   6         0.0053378240
              6   5        -0.0050891803

    Largest TIjAb Amplitudes:
      5   5   9   9        -0.0230210378
      6   6   7   7        -0.0211576271
      8   8  14  14        -0.0211457687
      7   7  12  12        -0.0204899943
      4   4   7   7        -0.0191039746
      6   6   8   8        -0.0162227654
      5   5  14  14        -0.0151909927
      7   7   7   7        -0.0150820296
      5   5   2   9        -0.0149432219
      5   5   9   2        -0.0149432219

    SCF energy       (wfn)                    = -115.089371609920136
    Reference energy (file100)                = -115.089371609919979

    Opposite-spin MP2 correlation energy      =   -0.353877751439852
    Same-spin MP2 correlation energy          =   -0.103591017984850
    Singles MP2 correlation energy            =   -0.000000000000000
    MP2 correlation energy                    =   -0.457468769424703
      * MP2 total energy                      = -115.546840379344687

    Opposite-spin CCSD correlation energy     =   -0.381833331600619
    Same-spin CCSD correlation energy         =   -0.094522756582022
    Singles CCSD correlation energy           =    0.000000000000000
    CCSD correlation energy                   =   -0.476356088182641
      * CCSD total energy                     = -115.565727698102620

            **************************
            *                        *
            *        CCTRIPLES       *
            *                        *
            **************************


    Wave function   =    CCSD_T
    Reference wfn   =      RHF

    Nuclear Rep. energy (wfn)                =   40.427117864448675
    SCF energy          (wfn)                = -115.089371609920136
    Reference energy    (file100)            = -115.089371609919979
    CCSD energy         (file100)            =   -0.476356088182641
    Total CCSD energy   (file100)            = -115.565727698102620

    Number of ijk index combinations:              165
    Memory available in words        :      1750000000
    ~Words needed per explicit thread:         4900172
    Number of threads for explicit ijk threading:    1

    MKL num_threads set to 1 for explicit threading.

    (T) energy                                =   -0.015051252222218
      * CCSD(T) total energy                  = -115.580778950324842


    Psi4 stopped on: Saturday, 19 September 2020 05:50PM
    Psi4 wall time for execution: 0:01:04.94

*** Psi4 exiting successfully. Buy a developer a beer!
