
 Primary working directories    : /tmp/601556.11.gen4.q
 Secondary working directories  : /tmp/601556.11.gen4.q
 Wavefunction directory         : /home/vulcan/mel64643/wfu/
 Main file repository           : /tmp/601556.11.gen4.q/

 ARCHNAME  : Linux/x86_64
 FC        : /opt/intel/compilers_and_libraries_2016.1.150/linux/bin/intel64/ifort
 FCVERSION : 16.0.1
 BLASLIB   : -mkl
 id        : ccgc

 Nodes     nprocs
 n062         1
 ga_uses_ma=false, calling ma_init with nominal heap.
 GA-space will be limited to   8.0 MW (determined by -G option)

 Using customized tuning parameters: mindgm=10; mindgv=16; mindgc=4; mindgr=1; noblas=0; mincuda=1000; minvec=7
 default implementation of scratch files=df  

 ***,Optimization of min3
 memory,1000,m
 gthresh,energy=1.0d-12,orbital=1.0d-10,oneint=1.0d-16,twoint=1.0d-16,optgrad=1.0d-6,compress=1.0d-13
 geomtyp=xyz
 
  bohr
  geometry = {
  6
  arbitrary comment
  C   -1.3739186642   -0.0271109697   -0.0000014626
  O    1.3069788146    0.1247106132   -0.0000003037
  H   -2.0746682793    1.9074753905   -0.0000779074
  H   -2.1083359314   -0.9792647471    1.6833771864
  H   -2.1083233849   -0.9793985500   -1.6833030971
  H    1.9345432852   -1.5765438569   -0.0000028256
 }
 
 basis=cc-pvtz
 {rhf;maxit,200}
 {ccsd(t);maxit,200}

 Variables initialized (661), CPU time= 0.00 sec
 Commands  initialized (458), CPU time= 0.01 sec, 486 directives.
 Default parameters read. Elapsed time= 0.05 sec

 Checking input...
 Passed
1


                                         ***  PROGRAM SYSTEM MOLPRO  ***
                         Copyright, University College Cardiff Consultants Limited, 2008

                                    Version 2010.1 linked May 16 2016 07:17:05


 **********************************************************************************************************************************
 LABEL *   Optimization of min3                                                          
 Linux-4.4.3/n062(x86_64) 64 bit mpp version                                             DATE: 06-Nov-21          TIME: 15:41:16  
 **********************************************************************************************************************************

 SHA1:             9e8077add272b0f3cad6f7df79ec5211205f459d
 **********************************************************************************************************************************

 THRESHOLDS:

 ZERO    =  1.00D-12  ONEINT  =  1.00D-16  TWOINT  =  1.00D-16  PREFAC  =  1.00D-14  LOCALI  =  1.00D-09  EORDER  =  1.00D-04
 ENERGY  =  1.00D-12  ETEST   =  0.00D+00  EDENS   =  0.00D+00  THRDEDEF=  1.00D-06  GRADIENT=  1.00D-02  STEP    =  1.00D-03
 ORBITAL =  1.00D-10  CIVEC   =  1.00D-05  COEFF   =  1.00D-04  PRINTCI =  5.00D-02  PUNCHCI =  9.90D+01  OPTGRAD =  1.00D-06
 OPTENERG=  1.00D-06  OPTSTEP =  3.00D-04  THRGRAD =  1.00D-10  COMPRESS=  1.00D-13  VARMIN  =  1.00D-07  VARMAX  =  1.00D-03
 THRDOUB =  0.00D+00  THRDIV  =  1.00D-05  THRRED  =  1.00D-07  THRPSP  =  1.00D+00  THRDC   =  1.00D-10  THRCS   =  1.00D-10
 THRNRM  =  1.00D-08  THREQ   =  0.00D+00  THRDE   =  1.00D+00  THRREF  =  1.00D-05  SPARFAC =  1.00D+00  THRDLP  =  1.00D-07
 THRDIA  =  1.00D-10  THRDLS  =  1.00D-07  THRGPS  =  0.00D+00  THRKEX  =  0.00D+00  THRDIS  =  2.00D-01  THRVAR  =  1.00D-10
 THRLOC  =  1.00D-06  THRGAP  =  1.00D-06  THRLOCT = -1.00D+00  THRGAPT = -1.00D+00  THRORB  =  1.00D-06  THRMLTP =  0.00D+00
 THRCPQCI=  1.00D-10  KEXTA   =  0.00D+00  THRCOARS=  0.00D+00  SYMTOL  =  1.00D-06  GRADTOL =  1.00D-06  THROVL  =  1.00D-08
 THRORTH =  1.00D-08  GRID    =  1.00D-06  GRIDMAX =  1.00D-03  DTMAX   =  0.00D+00

 SETTING GEOMTYP        =    XYZ
 ZUNIT=BOHR
 

 Variable memory set to 1000000000 words,  buffer space   230000 words

 SETTING BASIS          =    CC-PVTZ


 Recomputing integrals since basis changed


 Using spherical harmonics

 Library entry C      S cc-pVTZ              selected for orbital group  1
 Library entry C      P cc-pVTZ              selected for orbital group  1
 Library entry C      D cc-pVTZ              selected for orbital group  1
 Library entry C      F cc-pVTZ              selected for orbital group  1
 Library entry O      S cc-pVTZ              selected for orbital group  2
 Library entry O      P cc-pVTZ              selected for orbital group  2
 Library entry O      D cc-pVTZ              selected for orbital group  2
 Library entry O      F cc-pVTZ              selected for orbital group  2
 Library entry H      S cc-pVTZ              selected for orbital group  3
 Library entry H      P cc-pVTZ              selected for orbital group  3
 Library entry H      D cc-pVTZ              selected for orbital group  3

1PROGRAM * SEWARD (Integral evaluation for generally contracted gaussian basis sets)     Author: Roland Lindh, 1990

 Geometry written to block  1 of record 700


 Point group  C1  



 ATOMIC COORDINATES

 NR  ATOM    CHARGE       X              Y              Z

   1  C       6.00   -1.373918664   -0.027110970   -0.000001463
   2  O       8.00    1.306978815    0.124710613   -0.000000304
   3  H       1.00   -2.074668279    1.907475390   -0.000077907
   4  H       1.00   -2.108335931   -0.979264747    1.683377186
   5  H       1.00   -2.108323385   -0.979398550   -1.683303097
   6  H       1.00    1.934543285   -1.576543857   -0.000002826

 Bond lengths in Bohr (Angstrom)

 1-2  2.685192933  1-3  2.057589467  1-4  2.068750641  1-5  2.068745108  2-6  1.813312973
     ( 1.420942902)     ( 1.088829451)     ( 1.094735690)     ( 1.094732762)     ( 0.959563898)

 Bond angles

  1-2-6  107.00693028   2-1-3  106.67024945   2-1-4  112.36217565   2-1-5  112.36213363

  3-1-4  108.17184270   3-1-5  108.17203863   4-1-5  108.91804558

 NUCLEAR CHARGE:                   18
 NUMBER OF PRIMITIVE AOS:         162
 NUMBER OF SYMMETRY AOS:          148
 NUMBER OF CONTRACTIONS:          116   ( 116A   )
 NUMBER OF CORE ORBITALS:           2   (   2A   )
 NUMBER OF VALENCE ORBITALS:       12   (  12A   )


 NUCLEAR REPULSION ENERGY   40.31145146


 Eigenvalues of metric

         1 0.133E-02 0.180E-02 0.191E-02 0.235E-02 0.330E-02 0.461E-02 0.738E-02 0.100E-01


 Contracted 2-electron integrals neglected if value below      1.0D-16
 AO integral compression algorithm  1   Integral accuracy      1.0D-16

     196.346 MB (compressed) written to integral file ( 92.2%)

     Node minimum: 196.346 MB, node maximum: 196.346 MB


 NUMBER OF SORTED TWO-ELECTRON INTEGRALS:   23028291.     BUFFER LENGTH:  32768
 NUMBER OF SEGMENTS:   2  SEGMENT LENGTH:   15997996      RECORD LENGTH: 524288

 Memory used in sort:      16.56 MW

 SORT1 READ    26631627. AND WROTE    22813262. INTEGRALS IN     67 RECORDS. CPU TIME:     0.25 SEC, REAL TIME:     0.39 SEC
 SORT2 READ    22813262. AND WROTE    23028291. INTEGRALS IN    749 RECORDS. CPU TIME:     0.22 SEC, REAL TIME:     0.33 SEC

 FILE SIZES:   FILE 1:   176.0 MBYTE,  FILE 4:   281.1 MBYTE,   TOTAL:    457.0 MBYTE

 OPERATOR DM      FOR CENTER  0  COORDINATES:    0.000000    0.000000    0.000000


 **********************************************************************************************************************************
 DATASETS  * FILE   NREC   LENGTH (MB)   RECORD NAMES
              1      19      176.14       500      610      700      900      950      970     1000      129      960     1100   
                                          VAR    BASINP    GEOM    SYMINP    ZMAT    AOBASIS   BASIS     P2S    ABASIS      S 
                                         1400     1410     1200     1210     1080     1600     1650     1300     1700   
                                           T        V       H0       H01     AOSYM     SMH    MOLCAS    ERIS     OPER   

 PROGRAMS   *        TOTAL       INT
 CPU TIMES  *         1.62      1.58
 REAL TIME  *         2.12 SEC
 DISK USED  *       654.02 MB      
 GA USED    *         0.00 MB       (max)       0.00 MB       (current)
 **********************************************************************************************************************************

1PROGRAM * RHF-SCF (CLOSED SHELL)       Authors: W. Meyer, H.-J. Werner


 NUMBER OF ELECTRONS:       9+    9-    SPACE SYMMETRY=1    SPIN SYMMETRY: Singlet 
 CONVERGENCE THRESHOLDS:    1.00E-10 (Density)    1.00E-13 (Energy)
 MAX. NUMBER OF ITERATIONS:      200
 INTERPOLATION TYPE:            DIIS
 INTERPOLATION STEPS:              2 (START)      1 (STEP)
 LEVEL SHIFTS:                  0.00 (CLOSED)  0.00 (OPEN) 



 Orbital guess generated from atomic densities. Full valence occupancy:   14

 Molecular orbital dump at record        2100.2

 ITERATION    DDIFF          GRAD             ENERGY        2-EL.EN.            DIPOLE MOMENTS         DIIS
    1      0.000D+00      0.000D+00      -115.05306562    164.439241   -0.48872   -0.90761   -0.00000    0
    2      0.000D+00      0.474D-02      -115.08140181    161.994077   -0.29968   -0.50195   -0.00000    1
    3      0.784D-02      0.255D-02      -115.08849919    163.162672   -0.39173   -0.60059   -0.00000    2
    4      0.257D-02      0.498D-03      -115.08900679    163.007327   -0.38472   -0.59458   -0.00000    3
    5      0.686D-03      0.983D-04      -115.08903790    163.014513   -0.38835   -0.58987   -0.00000    4
    6      0.186D-03      0.186D-04      -115.08903927    163.013051   -0.38875   -0.58987   -0.00000    5
    7      0.480D-04      0.395D-05      -115.08903932    163.012154   -0.38895   -0.58966   -0.00000    6
    8      0.915D-05      0.119D-05      -115.08903933    163.012616   -0.38898   -0.58964   -0.00000    7
    9      0.232D-05      0.323D-06      -115.08903933    163.012509   -0.38899   -0.58963   -0.00000    6
   10      0.766D-06      0.598D-07      -115.08903933    163.012520   -0.38899   -0.58963   -0.00000    6
   11      0.159D-06      0.150D-07      -115.08903933    163.012524   -0.38899   -0.58963   -0.00000    6
   12      0.299D-07      0.634D-08      -115.08903933    163.012522   -0.38899   -0.58963   -0.00000    7
   13      0.111D-07      0.171D-08      -115.08903933    163.012522   -0.38899   -0.58963   -0.00000    7
   14      0.348D-08      0.356D-09      -115.08903933    163.012522   -0.38899   -0.58963   -0.00000    7
   15      0.859D-09      0.912D-10      -115.08903933    163.012522   -0.38899   -0.58963   -0.00000    7
   16      0.186D-09      0.226D-10      -115.08903933    163.012522   -0.38899   -0.58963   -0.00000    7
   17      0.525D-10      0.728D-11      -115.08903933    163.012522   -0.38899   -0.58963   -0.00000    7
   18      0.145D-10      0.157D-11      -115.08903933    163.012522   -0.38899   -0.58963   -0.00000    7
   19      0.300D-11      0.499D-12      -115.08903933    163.012522   -0.38899   -0.58963   -0.00000    7
   20      0.117D-11      0.122D-12      -115.08903933    163.012522   -0.38899   -0.58963   -0.00000    7
   21      0.296D-12      0.642D-13      -115.08903933    163.012522   -0.38899   -0.58963   -0.00000    0

 Final occupancy:   9

 !RHF STATE 1.1 Energy               -115.089039329279
 Nuclear energy                        40.31145146
 One-electron energy                 -236.90675184
 Two-electron energy                   81.50626105
 Virial quotient                       -1.00128064
 !RHF STATE 1.1 Dipole moment          -0.38899325    -0.58962850    -0.00000375
 Dipole moment /Debye                  -0.98865747    -1.49858800    -0.00000954

 Orbital energies:

         1.1          2.1          3.1          4.1          5.1          6.1          7.1          8.1          9.1         10.1
    -20.552877   -11.269715    -1.354380    -0.922930    -0.687922    -0.617901    -0.589604    -0.502376    -0.449409     0.138359

        11.1
      0.178750


 **********************************************************************************************************************************
 DATASETS  * FILE   NREC   LENGTH (MB)   RECORD NAMES
              1      19      176.14       500      610      700      900      950      970     1000      129      960     1100   
                                          VAR    BASINP    GEOM    SYMINP    ZMAT    AOBASIS   BASIS     P2S    ABASIS      S 
                                         1400     1410     1200     1210     1080     1600     1650     1300     1700   
                                           T        V       H0       H01     AOSYM     SMH    MOLCAS    ERIS     OPER   

              2       3        0.63       700     1000     2100   
                                         GEOM     BASIS     RHF  

 PROGRAMS   *        TOTAL       RHF       INT
 CPU TIMES  *         5.18      3.56      1.58
 REAL TIME  *         6.15 SEC
 DISK USED  *       654.02 MB      
 GA USED    *         0.00 MB       (max)       0.00 MB       (current)
 **********************************************************************************************************************************


1PROGRAM * CCSD (Closed-shell coupled cluster)     Authors: C. Hampel, H.-J. Werner, 1991, M. Deegan, P.J. Knowles, 1992


 Convergence thresholds:  THRVAR = 1.00D-08  THRDEN = 1.00D-12

 CCSD(T)     terms to be evaluated (factor= 1.000)


 Number of core orbitals:           2 (   2 )
 Number of closed-shell orbitals:   7 (   7 )
 Number of external orbitals:     107 ( 107 )

 Molecular orbitals read from record     2100.2  Type=RHF/CANONICAL (state 1.1)

 Number of N-1 electron functions:               7
 Number of N-2 electron functions:              28
 Number of singly external CSFs:               749
 Number of doubly external CSFs:            280875
 Total number of CSFs:                      281625

 Length of J-op  integral file:               0.00 MB
 Length of K-op  integral file:               0.96 MB
 Length of 3-ext integral record:             0.00 MB

 Memory could be reduced to 12.77 Mwords without degradation in triples

 Integral transformation finished. Total CPU:   0.59 sec, npass=  1  Memory used:   7.23 MW

 Reference energy:                   -115.08903933

 MP2 singlet pair energy:              -0.28106839
 MP2 triplet pair energy:              -0.14733741
 MP2 correlation energy:               -0.42840580
 MP2 total energy:                   -115.51744513

 SCS-MP2 correlation energy:           -0.42895868   (PS=  1.200000  PT=  0.333333)
 SCS-MP2 total energy:               -115.51799801

 ITER.      SQ.NORM     CORR.ENERGY   TOTAL ENERGY   ENERGY CHANGE        DEN1      VAR(S)    VAR(P)  DIIS     TIME
   1      1.11806220    -0.44567942  -115.53471875    -0.01727362    -0.00691582  0.12D-02  0.18D-02  1  1     1.23
   2      1.12594723    -0.44686345  -115.53590278    -0.00118403    -0.00945326  0.16D-04  0.22D-03  2  2     1.92
   3      1.12854166    -0.44694012  -115.53597945    -0.00007667    -0.00178523  0.76D-05  0.10D-04  3  3     2.61
   4      1.12918256    -0.44694147  -115.53598080    -0.00000135    -0.00033334  0.35D-06  0.84D-06  4  4     3.29
   5      1.12928810    -0.44694332  -115.53598264    -0.00000184    -0.00003997  0.11D-06  0.65D-07  5  5     3.99
   6      1.12931302    -0.44694115  -115.53598047     0.00000217    -0.00000745  0.18D-07  0.50D-08  6  6     4.68
   7      1.12931657    -0.44694105  -115.53598038     0.00000009    -0.00000027  0.26D-08  0.89D-09  6  2     5.37
   8      1.12931790    -0.44694100  -115.53598033     0.00000005     0.00000002  0.42D-09  0.10D-09  6  1     6.07
   9      1.12931863    -0.44694095  -115.53598028     0.00000005    -0.00000003  0.28D-10  0.17D-10  6  3     6.77
  10      1.12931871    -0.44694096  -115.53598029    -0.00000002     0.00000006  0.25D-11  0.19D-11  6  4     7.47
  11      1.12931857    -0.44694097  -115.53598030    -0.00000001     0.00000011  0.23D-12  0.12D-12  6  6     8.14
  12      1.12931856    -0.44694097  -115.53598030    -0.00000000     0.00000001  0.27D-13  0.11D-13  6  5     8.83
  13      1.12931856    -0.44694097  -115.53598030    -0.00000000    -0.00000000  0.56D-14  0.17D-14  6  2     9.52
  14      1.12931856    -0.44694097  -115.53598030     0.00000000    -0.00000000  0.43D-15  0.14D-15  6  1    10.21
  15      1.12931856    -0.44694097  -115.53598030    -0.00000000    -0.00000000  0.62D-16  0.28D-16  6  3    10.91
  16      1.12931856    -0.44694097  -115.53598030     0.00000000     0.00000000  0.18D-16  0.33D-17  6  4    11.59
  17      1.12931856    -0.44694097  -115.53598030    -0.00000000     0.00000000  0.12D-17  0.72D-18  6  5    12.27
  18      1.12931856    -0.44694097  -115.53598030    -0.00000000     0.00000000  0.91D-19  0.44D-19  6  6    12.97
  19      1.12931856    -0.44694097  -115.53598030     0.00000000    -0.00000000  0.18D-19  0.96D-20  6  2    13.67
  20      1.12931856    -0.44694097  -115.53598030     0.00000000    -0.00000000  0.13D-20  0.72D-21  6  1    14.36

 Norm of t1 vector:      0.04472211      S-energy:    -0.00000000      T1 diagnostic:  0.00845168
                                                                       D1 diagnostic:  0.01723567


 Total CPU time for triples:      7.25 sec


 RESULTS
 =======

  Reference energy                   -115.089039329280
  CCSD singlet pair energy             -0.313175835723
  CCSD triplet pair energy             -0.133765138914
  CCSD correlation energy              -0.446940974636

  Triples (T) contribution             -0.014798564321
  Total correlation energy             -0.461739538957

  CCSD total energy                  -115.535980303916
  CCSD[T] energy                     -115.551245734335
  CCSD-T energy                      -115.550512918074
 !CCSD(T) total energy               -115.550778868237

 Timing summary (sec):

 STEP                 CPU(USER)    SYS     CPU(TOT)    WALL
 Transformation          0.60      0.07      0.67      0.68
 CCSD iterations        13.76      0.73     14.49     14.52
 Triples                 7.25      0.13      7.38      7.39

 Program statistics:

 Available memory in ccsd:               999999704
 Min. memory needed in ccsd:                915605
 Max. memory used in ccsd:                 1141922
 Max. memory used in cckext:                874802 (20 integral passes)



 **********************************************************************************************************************************
 DATASETS  * FILE   NREC   LENGTH (MB)   RECORD NAMES
              1      20      215.54       500      610      700      900      950      970     1000      129      960     1100   
                                          VAR    BASINP    GEOM    SYMINP    ZMAT    AOBASIS   BASIS     P2S    ABASIS      S 
                                         1400     1410     1200     1210     1080     1600     1650     1300     1700     1380   
                                           T        V       H0       H01     AOSYM     SMH    MOLCAS    ERIS     OPER     JKOP   

              2       3        0.63       700     1000     2100   
                                         GEOM     BASIS     RHF  

 PROGRAMS   *        TOTAL   CCSD(T)       RHF       INT
 CPU TIMES  *        26.80     21.62      3.56      1.58
 REAL TIME  *        28.77 SEC
 DISK USED  *       654.02 MB      
 GA USED    *         0.00 MB       (max)       0.00 MB       (current)
 **********************************************************************************************************************************

        CCSD(T)         RHF-SCF 
   -115.55077887   -115.08903933
 **********************************************************************************************************************************
 Variable memory released
