
 Primary working directories    : /tmp/601556.16.gen6.q
 Secondary working directories  : /tmp/601556.16.gen6.q
 Wavefunction directory         : /home/vulcan/mel64643/wfu/
 Main file repository           : /tmp/601556.16.gen6.q/

 ARCHNAME  : Linux/x86_64
 FC        : /opt/intel/compilers_and_libraries_2016.1.150/linux/bin/intel64/ifort
 FCVERSION : 16.0.1
 BLASLIB   : -mkl
 id        : ccgc

 Nodes     nprocs
 n090         1
 ga_uses_ma=false, calling ma_init with nominal heap.
 GA-space will be limited to   8.0 MW (determined by -G option)

 Using customized tuning parameters: mindgm=10; mindgv=16; mindgc=4; mindgr=1; noblas=0; mincuda=1000; minvec=7
 default implementation of scratch files=df  

 ***,Optimization of min3
 memory,1000,m
 gthresh,energy=1.0d-12,orbital=1.0d-10,oneint=1.0d-16,twoint=1.0d-16,optgrad=1.0d-6,compress=1.0d-13
 geomtyp=xyz
 
  bohr
  geometry = {
  6
  arbitrary comment
  C   -1.3758119983   -0.0257246756    0.0000007097
  O    1.3054549542    0.1193400440    0.0000013401
  H   -2.0807026530    1.9075745197   -0.0000846891
  H   -2.1071121803   -0.9763652139    1.6853653616
  H   -2.1071063133   -0.9764892888   -1.6852894947
  H    1.9415540307   -1.5784675054   -0.0000016377
 }
 
 basis=cc-pvtz
 {rhf;maxit,200}
 {ccsd(t);maxit,200}

 Variables initialized (661), CPU time= 0.00 sec
 Commands  initialized (458), CPU time= 0.00 sec, 486 directives.
 Default parameters read. Elapsed time= 0.04 sec

 Checking input...
 Passed
1


                                         ***  PROGRAM SYSTEM MOLPRO  ***
                         Copyright, University College Cardiff Consultants Limited, 2008

                                    Version 2010.1 linked May 16 2016 07:17:05


 **********************************************************************************************************************************
 LABEL *   Optimization of min3                                                          
 Linux-4.4.3/n090(x86_64) 64 bit mpp version                                             DATE: 06-Nov-21          TIME: 15:41:16  
 **********************************************************************************************************************************

 SHA1:             9e8077add272b0f3cad6f7df79ec5211205f459d
 **********************************************************************************************************************************

 THRESHOLDS:

 ZERO    =  1.00D-12  ONEINT  =  1.00D-16  TWOINT  =  1.00D-16  PREFAC  =  1.00D-14  LOCALI  =  1.00D-09  EORDER  =  1.00D-04
 ENERGY  =  1.00D-12  ETEST   =  0.00D+00  EDENS   =  0.00D+00  THRDEDEF=  1.00D-06  GRADIENT=  1.00D-02  STEP    =  1.00D-03
 ORBITAL =  1.00D-10  CIVEC   =  1.00D-05  COEFF   =  1.00D-04  PRINTCI =  5.00D-02  PUNCHCI =  9.90D+01  OPTGRAD =  1.00D-06
 OPTENERG=  1.00D-06  OPTSTEP =  3.00D-04  THRGRAD =  1.00D-10  COMPRESS=  1.00D-13  VARMIN  =  1.00D-07  VARMAX  =  1.00D-03
 THRDOUB =  0.00D+00  THRDIV  =  1.00D-05  THRRED  =  1.00D-07  THRPSP  =  1.00D+00  THRDC   =  1.00D-10  THRCS   =  1.00D-10
 THRNRM  =  1.00D-08  THREQ   =  0.00D+00  THRDE   =  1.00D+00  THRREF  =  1.00D-05  SPARFAC =  1.00D+00  THRDLP  =  1.00D-07
 THRDIA  =  1.00D-10  THRDLS  =  1.00D-07  THRGPS  =  0.00D+00  THRKEX  =  0.00D+00  THRDIS  =  2.00D-01  THRVAR  =  1.00D-10
 THRLOC  =  1.00D-06  THRGAP  =  1.00D-06  THRLOCT = -1.00D+00  THRGAPT = -1.00D+00  THRORB  =  1.00D-06  THRMLTP =  0.00D+00
 THRCPQCI=  1.00D-10  KEXTA   =  0.00D+00  THRCOARS=  0.00D+00  SYMTOL  =  1.00D-06  GRADTOL =  1.00D-06  THROVL  =  1.00D-08
 THRORTH =  1.00D-08  GRID    =  1.00D-06  GRIDMAX =  1.00D-03  DTMAX   =  0.00D+00

 SETTING GEOMTYP        =    XYZ
 ZUNIT=BOHR
 

 Variable memory set to 1000000000 words,  buffer space   230000 words

 SETTING BASIS          =    CC-PVTZ


 Recomputing integrals since basis changed


 Using spherical harmonics

 Library entry C      S cc-pVTZ              selected for orbital group  1
 Library entry C      P cc-pVTZ              selected for orbital group  1
 Library entry C      D cc-pVTZ              selected for orbital group  1
 Library entry C      F cc-pVTZ              selected for orbital group  1
 Library entry O      S cc-pVTZ              selected for orbital group  2
 Library entry O      P cc-pVTZ              selected for orbital group  2
 Library entry O      D cc-pVTZ              selected for orbital group  2
 Library entry O      F cc-pVTZ              selected for orbital group  2
 Library entry H      S cc-pVTZ              selected for orbital group  3
 Library entry H      P cc-pVTZ              selected for orbital group  3
 Library entry H      D cc-pVTZ              selected for orbital group  3

1PROGRAM * SEWARD (Integral evaluation for generally contracted gaussian basis sets)     Author: Roland Lindh, 1990

 Geometry written to block  1 of record 700


 Point group  C1  



 ATOMIC COORDINATES

 NR  ATOM    CHARGE       X              Y              Z

   1  C       6.00   -1.375811998   -0.025724676    0.000000710
   2  O       8.00    1.305454954    0.119340044    0.000001340
   3  H       1.00   -2.080702653    1.907574520   -0.000084689
   4  H       1.00   -2.107112180   -0.976365214    1.685365362
   5  H       1.00   -2.107106313   -0.976489289   -1.685289495
   6  H       1.00    1.941554031   -1.578467505   -0.000001638

 Bond lengths in Bohr (Angstrom)

 1-2  2.685188307  1-3  2.057794115  1-4  2.068567475  1-5  2.068561770  2-6  1.813056124
     ( 1.420940454)     ( 1.088937747)     ( 1.094638763)     ( 1.094635744)     ( 0.959427980)

 Bond angles

  1-2-6  107.44206295   2-1-3  106.93525395   2-1-4  112.20000302   2-1-5  112.20011645

  3-1-4  108.10110244   3-1-5  108.10053326   4-1-5  109.12189895

 NUCLEAR CHARGE:                   18
 NUMBER OF PRIMITIVE AOS:         162
 NUMBER OF SYMMETRY AOS:          148
 NUMBER OF CONTRACTIONS:          116   ( 116A   )
 NUMBER OF CORE ORBITALS:           2   (   2A   )
 NUMBER OF VALENCE ORBITALS:       12   (  12A   )


 NUCLEAR REPULSION ENERGY   40.30723494


 Eigenvalues of metric

         1 0.133E-02 0.180E-02 0.191E-02 0.235E-02 0.329E-02 0.461E-02 0.737E-02 0.100E-01


 Contracted 2-electron integrals neglected if value below      1.0D-16
 AO integral compression algorithm  1   Integral accuracy      1.0D-16

     196.346 MB (compressed) written to integral file ( 92.3%)

     Node minimum: 196.346 MB, node maximum: 196.346 MB


 NUMBER OF SORTED TWO-ELECTRON INTEGRALS:   23028291.     BUFFER LENGTH:  32768
 NUMBER OF SEGMENTS:   2  SEGMENT LENGTH:   15997996      RECORD LENGTH: 524288

 Memory used in sort:      16.56 MW

 SORT1 READ    26631627. AND WROTE    22813248. INTEGRALS IN     67 RECORDS. CPU TIME:     0.22 SEC, REAL TIME:     0.36 SEC
 SORT2 READ    22813248. AND WROTE    23028291. INTEGRALS IN    749 RECORDS. CPU TIME:     0.21 SEC, REAL TIME:     0.28 SEC

 FILE SIZES:   FILE 1:   176.0 MBYTE,  FILE 4:   281.1 MBYTE,   TOTAL:    457.1 MBYTE

 OPERATOR DM      FOR CENTER  0  COORDINATES:    0.000000    0.000000    0.000000


 **********************************************************************************************************************************
 DATASETS  * FILE   NREC   LENGTH (MB)   RECORD NAMES
              1      19      176.17       500      610      700      900      950      970     1000      129      960     1100   
                                          VAR    BASINP    GEOM    SYMINP    ZMAT    AOBASIS   BASIS     P2S    ABASIS      S 
                                         1400     1410     1200     1210     1080     1600     1650     1300     1700   
                                           T        V       H0       H01     AOSYM     SMH    MOLCAS    ERIS     OPER   

 PROGRAMS   *        TOTAL       INT
 CPU TIMES  *         1.36      1.33
 REAL TIME  *         1.86 SEC
 DISK USED  *       654.05 MB      
 GA USED    *         0.00 MB       (max)       0.00 MB       (current)
 **********************************************************************************************************************************

1PROGRAM * RHF-SCF (CLOSED SHELL)       Authors: W. Meyer, H.-J. Werner


 NUMBER OF ELECTRONS:       9+    9-    SPACE SYMMETRY=1    SPIN SYMMETRY: Singlet 
 CONVERGENCE THRESHOLDS:    1.00E-10 (Density)    1.00E-13 (Energy)
 MAX. NUMBER OF ITERATIONS:      200
 INTERPOLATION TYPE:            DIIS
 INTERPOLATION STEPS:              2 (START)      1 (STEP)
 LEVEL SHIFTS:                  0.00 (CLOSED)  0.00 (OPEN) 



 Orbital guess generated from atomic densities. Full valence occupancy:   14

 Molecular orbital dump at record        2100.2

 ITERATION    DDIFF          GRAD             ENERGY        2-EL.EN.            DIPOLE MOMENTS         DIIS
    1      0.000D+00      0.000D+00      -115.05317980    164.439082   -0.48600   -0.90359   -0.00000    0
    2      0.000D+00      0.474D-02      -115.08149497    161.988691   -0.29828   -0.50088   -0.00000    1
    3      0.784D-02      0.254D-02      -115.08858148    163.159100   -0.38999   -0.59853   -0.00000    2
    4      0.257D-02      0.497D-03      -115.08908806    163.003810   -0.38312   -0.59260   -0.00000    3
    5      0.686D-03      0.980D-04      -115.08911895    163.010901   -0.38674   -0.58790   -0.00000    4
    6      0.186D-03      0.185D-04      -115.08912030    163.009477   -0.38715   -0.58790   -0.00000    5
    7      0.478D-04      0.393D-05      -115.08912036    163.008570   -0.38734   -0.58769   -0.00000    6
    8      0.910D-05      0.119D-05      -115.08912036    163.009032   -0.38737   -0.58766   -0.00000    7
    9      0.232D-05      0.322D-06      -115.08912036    163.008927   -0.38738   -0.58765   -0.00000    6
   10      0.767D-06      0.598D-07      -115.08912036    163.008938   -0.38738   -0.58765   -0.00000    6
   11      0.159D-06      0.150D-07      -115.08912036    163.008941   -0.38738   -0.58765   -0.00000    6
   12      0.299D-07      0.632D-08      -115.08912036    163.008939   -0.38738   -0.58765   -0.00000    7
   13      0.111D-07      0.171D-08      -115.08912036    163.008940   -0.38738   -0.58765   -0.00000    7
   14      0.347D-08      0.353D-09      -115.08912036    163.008940   -0.38738   -0.58765   -0.00000    7
   15      0.848D-09      0.906D-10      -115.08912036    163.008940   -0.38738   -0.58765   -0.00000    7
   16      0.184D-09      0.225D-10      -115.08912036    163.008940   -0.38738   -0.58765   -0.00000    7
   17      0.518D-10      0.731D-11      -115.08912036    163.008940   -0.38738   -0.58765   -0.00000    7
   18      0.145D-10      0.157D-11      -115.08912036    163.008940   -0.38738   -0.58765   -0.00000    7
   19      0.302D-11      0.500D-12      -115.08912036    163.008940   -0.38738   -0.58765   -0.00000    7
   20      0.122D-11      0.165D-12      -115.08912036    163.008940   -0.38738   -0.58765   -0.00000    0

 Final occupancy:   9

 !RHF STATE 1.1 Energy               -115.089120362657
 Nuclear energy                        40.30723494
 One-electron energy                 -236.90082512
 Two-electron energy                   81.50446982
 Virial quotient                       -1.00128789
 !RHF STATE 1.1 Dipole moment          -0.38738015    -0.58765074    -0.00000463
 Dipole moment /Debye                  -0.98455763    -1.49356136    -0.00001177

 Orbital energies:

         1.1          2.1          3.1          4.1          5.1          6.1          7.1          8.1          9.1         10.1
    -20.552514   -11.269736    -1.354002    -0.923076    -0.687536    -0.618094    -0.590068    -0.501611    -0.449306     0.138462

        11.1
      0.178601


 **********************************************************************************************************************************
 DATASETS  * FILE   NREC   LENGTH (MB)   RECORD NAMES
              1      19      176.17       500      610      700      900      950      970     1000      129      960     1100   
                                          VAR    BASINP    GEOM    SYMINP    ZMAT    AOBASIS   BASIS     P2S    ABASIS      S 
                                         1400     1410     1200     1210     1080     1600     1650     1300     1700   
                                           T        V       H0       H01     AOSYM     SMH    MOLCAS    ERIS     OPER   

              2       3        0.63       700     1000     2100   
                                         GEOM     BASIS     RHF  

 PROGRAMS   *        TOTAL       RHF       INT
 CPU TIMES  *         4.04      2.67      1.33
 REAL TIME  *         4.89 SEC
 DISK USED  *       654.05 MB      
 GA USED    *         0.00 MB       (max)       0.00 MB       (current)
 **********************************************************************************************************************************


1PROGRAM * CCSD (Closed-shell coupled cluster)     Authors: C. Hampel, H.-J. Werner, 1991, M. Deegan, P.J. Knowles, 1992


 Convergence thresholds:  THRVAR = 1.00D-08  THRDEN = 1.00D-12

 CCSD(T)     terms to be evaluated (factor= 1.000)


 Number of core orbitals:           2 (   2 )
 Number of closed-shell orbitals:   7 (   7 )
 Number of external orbitals:     107 ( 107 )

 Molecular orbitals read from record     2100.2  Type=RHF/CANONICAL (state 1.1)

 Number of N-1 electron functions:               7
 Number of N-2 electron functions:              28
 Number of singly external CSFs:               749
 Number of doubly external CSFs:            280875
 Total number of CSFs:                      281625

 Length of J-op  integral file:               0.00 MB
 Length of K-op  integral file:               0.96 MB
 Length of 3-ext integral record:             0.00 MB

 Memory could be reduced to 12.77 Mwords without degradation in triples

 Integral transformation finished. Total CPU:   0.46 sec, npass=  1  Memory used:   7.23 MW

 Reference energy:                   -115.08912036

 MP2 singlet pair energy:              -0.28102576
 MP2 triplet pair energy:              -0.14729870
 MP2 correlation energy:               -0.42832446
 MP2 total energy:                   -115.51744482

 SCS-MP2 correlation energy:           -0.42888344   (PS=  1.200000  PT=  0.333333)
 SCS-MP2 total energy:               -115.51800380

 ITER.      SQ.NORM     CORR.ENERGY   TOTAL ENERGY   ENERGY CHANGE        DEN1      VAR(S)    VAR(P)  DIIS     TIME
   1      1.11802682    -0.44561127  -115.53473163    -0.01728681    -0.00693733  0.12D-02  0.18D-02  1  1     0.98
   2      1.12590773    -0.44679656  -115.53591692    -0.00118529    -0.00944858  0.16D-04  0.22D-03  2  2     1.55
   3      1.12849861    -0.44687312  -115.53599348    -0.00007656    -0.00178344  0.75D-05  0.10D-04  3  3     2.13
   4      1.12913840    -0.44687457  -115.53599493    -0.00000145    -0.00033278  0.35D-06  0.84D-06  4  4     2.70
   5      1.12924376    -0.44687640  -115.53599676    -0.00000183    -0.00003992  0.11D-06  0.65D-07  5  5     3.28
   6      1.12926873    -0.44687424  -115.53599460     0.00000216    -0.00000746  0.18D-07  0.50D-08  6  6     3.86
   7      1.12927231    -0.44687415  -115.53599451     0.00000009    -0.00000027  0.26D-08  0.90D-09  6  2     4.44
   8      1.12927366    -0.44687410  -115.53599446     0.00000005     0.00000002  0.43D-09  0.11D-09  6  1     5.02
   9      1.12927439    -0.44687404  -115.53599441     0.00000005    -0.00000003  0.28D-10  0.17D-10  6  3     5.60
  10      1.12927447    -0.44687406  -115.53599442    -0.00000002     0.00000007  0.25D-11  0.19D-11  6  4     6.18
  11      1.12927434    -0.44687407  -115.53599443    -0.00000001     0.00000011  0.23D-12  0.12D-12  6  6     6.76
  12      1.12927432    -0.44687407  -115.53599443    -0.00000000     0.00000001  0.27D-13  0.11D-13  6  5     7.34
  13      1.12927432    -0.44687407  -115.53599443    -0.00000000    -0.00000000  0.56D-14  0.17D-14  6  2     7.92
  14      1.12927432    -0.44687407  -115.53599443     0.00000000    -0.00000000  0.43D-15  0.14D-15  6  1     8.49
  15      1.12927432    -0.44687407  -115.53599443    -0.00000000    -0.00000000  0.63D-16  0.28D-16  6  3     9.06
  16      1.12927432    -0.44687407  -115.53599443     0.00000000     0.00000000  0.18D-16  0.34D-17  6  4     9.64
  17      1.12927432    -0.44687407  -115.53599443    -0.00000000     0.00000000  0.12D-17  0.73D-18  6  5    10.22
  18      1.12927432    -0.44687407  -115.53599443    -0.00000000     0.00000000  0.94D-19  0.45D-19  6  6    10.80
  19      1.12927432    -0.44687407  -115.53599443     0.00000000    -0.00000000  0.19D-19  0.99D-20  6  2    11.38
  20      1.12927432    -0.44687407  -115.53599443     0.00000000    -0.00000000  0.13D-20  0.74D-21  6  1    11.95

 Norm of t1 vector:      0.04467110      S-energy:    -0.00000000      T1 diagnostic:  0.00844204
                                                                       D1 diagnostic:  0.01722805


 Total CPU time for triples:      5.98 sec


 RESULTS
 =======

  Reference energy                   -115.089120362656
  CCSD singlet pair energy             -0.313133547485
  CCSD triplet pair energy             -0.133740522271
  CCSD correlation energy              -0.446874069756

  Triples (T) contribution             -0.014788764616
  Total correlation energy             -0.461662834372

  CCSD total energy                  -115.535994432412
  CCSD[T] energy                     -115.551249197997
  CCSD-T energy                      -115.550517585062
 !CCSD(T) total energy               -115.550783197028

 Timing summary (sec):

 STEP                 CPU(USER)    SYS     CPU(TOT)    WALL
 Transformation          0.47      0.07      0.54      0.54
 CCSD iterations        11.48      0.59     12.07     12.13
 Triples                 5.98      0.12      6.10      6.10

 Program statistics:

 Available memory in ccsd:               999999704
 Min. memory needed in ccsd:                915605
 Max. memory used in ccsd:                 1141922
 Max. memory used in cckext:                874802 (20 integral passes)



 **********************************************************************************************************************************
 DATASETS  * FILE   NREC   LENGTH (MB)   RECORD NAMES
              1      20      215.57       500      610      700      900      950      970     1000      129      960     1100   
                                          VAR    BASINP    GEOM    SYMINP    ZMAT    AOBASIS   BASIS     P2S    ABASIS      S 
                                         1400     1410     1200     1210     1080     1600     1650     1300     1700     1380   
                                           T        V       H0       H01     AOSYM     SMH    MOLCAS    ERIS     OPER     JKOP   

              2       3        0.63       700     1000     2100   
                                         GEOM     BASIS     RHF  

 PROGRAMS   *        TOTAL   CCSD(T)       RHF       INT
 CPU TIMES  *        21.97     17.93      2.67      1.33
 REAL TIME  *        23.68 SEC
 DISK USED  *       654.05 MB      
 GA USED    *         0.00 MB       (max)       0.00 MB       (current)
 **********************************************************************************************************************************

        CCSD(T)         RHF-SCF 
   -115.55078320   -115.08912036
 **********************************************************************************************************************************
 Variable memory released
