
 Primary working directories    : /tmp/601555.29.gen4.q
 Secondary working directories  : /tmp/601555.29.gen4.q
 Wavefunction directory         : /home/vulcan/mel64643/wfu/
 Main file repository           : /tmp/601555.29.gen4.q/

 ARCHNAME  : Linux/x86_64
 FC        : /opt/intel/compilers_and_libraries_2016.1.150/linux/bin/intel64/ifort
 FCVERSION : 16.0.1
 BLASLIB   : -mkl
 id        : ccgc

 Nodes     nprocs
 n021         1
 ga_uses_ma=false, calling ma_init with nominal heap.
 GA-space will be limited to   8.0 MW (determined by -G option)

 Using customized tuning parameters: mindgm=10; mindgv=16; mindgc=4; mindgr=1; noblas=0; mincuda=1000; minvec=7
 default implementation of scratch files=df  

 ***,Optimization of min3
 memory,1000,m
 gthresh,energy=1.0d-12,orbital=1.0d-10,oneint=1.0d-16,twoint=1.0d-16,optgrad=1.0d-6,compress=1.0d-13
 geomtyp=xyz
 
  bohr
  geometry = {
  6
  arbitrary comment
  C   -1.3724260724   -0.0234638584    0.0027262626
  O    1.3057017802    0.1204360741   -0.0009004625
  H   -2.0786953019    1.9093211234   -0.0010074304
  H   -2.1098446961   -0.9797671006    1.6811860742
  H   -2.1096595691   -0.9791932427   -1.6822102629
  H    1.9411996993   -1.5774651158    0.0001974090
 }
 
 basis=cc-pvdz
 {rhf;maxit,200}
 {ccsd(t);maxit,200}

 Variables initialized (661), CPU time= 0.00 sec
 Commands  initialized (458), CPU time= 0.00 sec, 486 directives.
 Default parameters read. Elapsed time= 0.07 sec

 Checking input...
 Passed
1


                                         ***  PROGRAM SYSTEM MOLPRO  ***
                         Copyright, University College Cardiff Consultants Limited, 2008

                                    Version 2010.1 linked May 16 2016 07:17:05


 **********************************************************************************************************************************
 LABEL *   Optimization of min3                                                          
 Linux-4.4.3/n021(x86_64) 64 bit mpp version                                             DATE: 06-Nov-21          TIME: 15:38:46  
 **********************************************************************************************************************************

 SHA1:             9e8077add272b0f3cad6f7df79ec5211205f459d
 **********************************************************************************************************************************

 THRESHOLDS:

 ZERO    =  1.00D-12  ONEINT  =  1.00D-16  TWOINT  =  1.00D-16  PREFAC  =  1.00D-14  LOCALI  =  1.00D-09  EORDER  =  1.00D-04
 ENERGY  =  1.00D-12  ETEST   =  0.00D+00  EDENS   =  0.00D+00  THRDEDEF=  1.00D-06  GRADIENT=  1.00D-02  STEP    =  1.00D-03
 ORBITAL =  1.00D-10  CIVEC   =  1.00D-05  COEFF   =  1.00D-04  PRINTCI =  5.00D-02  PUNCHCI =  9.90D+01  OPTGRAD =  1.00D-06
 OPTENERG=  1.00D-06  OPTSTEP =  3.00D-04  THRGRAD =  1.00D-10  COMPRESS=  1.00D-13  VARMIN  =  1.00D-07  VARMAX  =  1.00D-03
 THRDOUB =  0.00D+00  THRDIV  =  1.00D-05  THRRED  =  1.00D-07  THRPSP  =  1.00D+00  THRDC   =  1.00D-10  THRCS   =  1.00D-10
 THRNRM  =  1.00D-08  THREQ   =  0.00D+00  THRDE   =  1.00D+00  THRREF  =  1.00D-05  SPARFAC =  1.00D+00  THRDLP  =  1.00D-07
 THRDIA  =  1.00D-10  THRDLS  =  1.00D-07  THRGPS  =  0.00D+00  THRKEX  =  0.00D+00  THRDIS  =  2.00D-01  THRVAR  =  1.00D-10
 THRLOC  =  1.00D-06  THRGAP  =  1.00D-06  THRLOCT = -1.00D+00  THRGAPT = -1.00D+00  THRORB  =  1.00D-06  THRMLTP =  0.00D+00
 THRCPQCI=  1.00D-10  KEXTA   =  0.00D+00  THRCOARS=  0.00D+00  SYMTOL  =  1.00D-06  GRADTOL =  1.00D-06  THROVL  =  1.00D-08
 THRORTH =  1.00D-08  GRID    =  1.00D-06  GRIDMAX =  1.00D-03  DTMAX   =  0.00D+00

 SETTING GEOMTYP        =    XYZ
 ZUNIT=BOHR
 

 Variable memory set to 1000000000 words,  buffer space   230000 words

 SETTING BASIS          =    CC-PVDZ


 Recomputing integrals since basis changed


 Using spherical harmonics

 Library entry C      S cc-pVDZ              selected for orbital group  1
 Library entry C      P cc-pVDZ              selected for orbital group  1
 Library entry C      D cc-pVDZ              selected for orbital group  1
 Library entry O      S cc-pVDZ              selected for orbital group  2
 Library entry O      P cc-pVDZ              selected for orbital group  2
 Library entry O      D cc-pVDZ              selected for orbital group  2
 Library entry H      S cc-pVDZ              selected for orbital group  3
 Library entry H      P cc-pVDZ              selected for orbital group  3

1PROGRAM * SEWARD (Integral evaluation for generally contracted gaussian basis sets)     Author: Roland Lindh, 1990

 Geometry written to block  1 of record 700


 Point group  C1  



 ATOMIC COORDINATES

 NR  ATOM    CHARGE       X              Y              Z

   1  C       6.00   -1.372426072   -0.023463858    0.002726263
   2  O       8.00    1.305701780    0.120436074   -0.000900463
   3  H       1.00   -2.078695302    1.909321123   -0.001007430
   4  H       1.00   -2.109844696   -0.979767101    1.681186074
   5  H       1.00   -2.109659569   -0.979193243   -1.682210263
   6  H       1.00    1.941199699   -1.577465116    0.000197409

 Bond lengths in Bohr (Angstrom)

 1-2  2.681993501  1-3  2.057787149  1-4  2.067735345  1-5  2.072665670  2-6  1.812933331
     ( 1.419249835)     ( 1.088934060)     ( 1.094198419)     ( 1.096807434)     ( 0.959363000)

 Bond angles

  1-2-6  107.44438874   2-1-3  106.99725285   2-1-4  112.45942551   2-1-5  112.26073018

  3-1-4  108.26815115   3-1-5  108.03182878   4-1-5  108.64951608

 NUCLEAR CHARGE:                   18
 NUMBER OF PRIMITIVE AOS:          82
 NUMBER OF SYMMETRY AOS:           80
 NUMBER OF CONTRACTIONS:           48   (  48A   )
 NUMBER OF CORE ORBITALS:           2   (   2A   )
 NUMBER OF VALENCE ORBITALS:       12   (  12A   )


 NUCLEAR REPULSION ENERGY   40.32433047


 Eigenvalues of metric

         1 0.967E-02 0.176E-01 0.368E-01 0.375E-01 0.381E-01 0.475E-01 0.479E-01 0.517E-01


 Contracted 2-electron integrals neglected if value below      1.0D-16
 AO integral compression algorithm  1   Integral accuracy      1.0D-16

     6.816 MB (compressed) written to integral file (100.0%)

     Node minimum: 6.816 MB, node maximum: 6.816 MB


 NUMBER OF SORTED TWO-ELECTRON INTEGRALS:     692076.     BUFFER LENGTH:  32768
 NUMBER OF SEGMENTS:   1  SEGMENT LENGTH:     692076      RECORD LENGTH: 524288

 Memory used in sort:       1.25 MW

 SORT1 READ      832256. AND WROTE      682150. INTEGRALS IN      2 RECORDS. CPU TIME:     0.01 SEC, REAL TIME:     0.02 SEC
 SORT2 READ      682150. AND WROTE      692076. INTEGRALS IN     26 RECORDS. CPU TIME:     0.01 SEC, REAL TIME:     0.02 SEC

 FILE SIZES:   FILE 1:     8.4 MBYTE,  FILE 4:     8.4 MBYTE,   TOTAL:     16.8 MBYTE

 OPERATOR DM      FOR CENTER  0  COORDINATES:    0.000000    0.000000    0.000000


 **********************************************************************************************************************************
 DATASETS  * FILE   NREC   LENGTH (MB)   RECORD NAMES
              1      19        8.40       500      610      700      900      950      970     1000      129      960     1100   
                                          VAR    BASINP    GEOM    SYMINP    ZMAT    AOBASIS   BASIS     P2S    ABASIS      S 
                                         1400     1410     1200     1210     1080     1600     1650     1300     1700   
                                           T        V       H0       H01     AOSYM     SMH    MOLCAS    ERIS     OPER   

 PROGRAMS   *        TOTAL       INT
 CPU TIMES  *         0.34      0.27
 REAL TIME  *         0.53 SEC
 DISK USED  *        24.23 MB      
 GA USED    *         0.00 MB       (max)       0.00 MB       (current)
 **********************************************************************************************************************************

1PROGRAM * RHF-SCF (CLOSED SHELL)       Authors: W. Meyer, H.-J. Werner


 NUMBER OF ELECTRONS:       9+    9-    SPACE SYMMETRY=1    SPIN SYMMETRY: Singlet 
 CONVERGENCE THRESHOLDS:    1.00E-10 (Density)    1.00E-13 (Energy)
 MAX. NUMBER OF ITERATIONS:      200
 INTERPOLATION TYPE:            DIIS
 INTERPOLATION STEPS:              2 (START)      1 (STEP)
 LEVEL SHIFTS:                  0.00 (CLOSED)  0.00 (OPEN) 



 Orbital guess generated from atomic densities. Full valence occupancy:   14

 Molecular orbital dump at record        2100.2

 ITERATION    DDIFF          GRAD             ENERGY        2-EL.EN.            DIPOLE MOMENTS         DIIS
    1      0.000D+00      0.000D+00      -115.01430424    164.416197   -0.49189   -0.90040    0.00089    0
    2      0.000D+00      0.109D-01      -115.04265294    162.198584   -0.31384   -0.53538    0.00131    1
    3      0.205D-01      0.529D-02      -115.04866522    163.222684   -0.39725   -0.61036    0.00173    2
    4      0.638D-02      0.112D-02      -115.04912862    163.066294   -0.38713   -0.59920    0.00188    3
    5      0.204D-02      0.202D-03      -115.04914958    163.072768   -0.38994   -0.59490    0.00195    4
    6      0.433D-03      0.354D-04      -115.04915038    163.072908   -0.39024   -0.59469    0.00196    5
    7      0.928D-04      0.733D-05      -115.04915041    163.071727   -0.39037   -0.59452    0.00197    6
    8      0.150D-04      0.236D-05      -115.04915041    163.072108   -0.39041   -0.59450    0.00197    7
    9      0.502D-05      0.489D-06      -115.04915041    163.072067   -0.39042   -0.59450    0.00197    6
   10      0.140D-05      0.870D-07      -115.04915041    163.072066   -0.39042   -0.59449    0.00197    6
   11      0.234D-06      0.325D-07      -115.04915041    163.072071   -0.39042   -0.59449    0.00197    6
   12      0.589D-07      0.135D-07      -115.04915041    163.072069   -0.39042   -0.59449    0.00197    7
   13      0.251D-07      0.302D-08      -115.04915041    163.072070   -0.39042   -0.59449    0.00197    7
   14      0.751D-08      0.646D-09      -115.04915041    163.072070   -0.39042   -0.59449    0.00197    7
   15      0.165D-08      0.150D-09      -115.04915041    163.072070   -0.39042   -0.59449    0.00197    7
   16      0.333D-09      0.450D-10      -115.04915041    163.072070   -0.39042   -0.59449    0.00197    7
   17      0.867D-10      0.163D-10      -115.04915041    163.072070   -0.39042   -0.59449    0.00197    7
   18      0.417D-10      0.281D-11      -115.04915041    163.072070   -0.39042   -0.59449    0.00197    0

 Final occupancy:   9

 !RHF STATE 1.1 Energy               -115.049150410153
 Nuclear energy                        40.32433047
 One-electron energy                 -236.90951574
 Two-electron energy                   81.53603486
 Virial quotient                       -1.00092105
 !RHF STATE 1.1 Dipole moment          -0.39042288    -0.59449485     0.00196588
 Dipole moment /Debye                  -0.99229099    -1.51095621     0.00499645

 Orbital energies:

         1.1          2.1          3.1          4.1          5.1          6.1          7.1          8.1          9.1         10.1
    -20.550101   -11.274765    -1.350554    -0.921167    -0.683211    -0.613604    -0.585460    -0.496939    -0.442921     0.184551

        11.1
      0.224297


 **********************************************************************************************************************************
 DATASETS  * FILE   NREC   LENGTH (MB)   RECORD NAMES
              1      19        8.40       500      610      700      900      950      970     1000      129      960     1100   
                                          VAR    BASINP    GEOM    SYMINP    ZMAT    AOBASIS   BASIS     P2S    ABASIS      S 
                                         1400     1410     1200     1210     1080     1600     1650     1300     1700   
                                           T        V       H0       H01     AOSYM     SMH    MOLCAS    ERIS     OPER   

              2       3        0.39       700     1000     2100   
                                         GEOM     BASIS     RHF  

 PROGRAMS   *        TOTAL       RHF       INT
 CPU TIMES  *         0.43      0.09      0.27
 REAL TIME  *         0.67 SEC
 DISK USED  *        24.23 MB      
 GA USED    *         0.00 MB       (max)       0.00 MB       (current)
 **********************************************************************************************************************************


1PROGRAM * CCSD (Closed-shell coupled cluster)     Authors: C. Hampel, H.-J. Werner, 1991, M. Deegan, P.J. Knowles, 1992


 Convergence thresholds:  THRVAR = 1.00D-08  THRDEN = 1.00D-12

 CCSD(T)     terms to be evaluated (factor= 1.000)


 Number of core orbitals:           2 (   2 )
 Number of closed-shell orbitals:   7 (   7 )
 Number of external orbitals:      39 (  39 )

 Molecular orbitals read from record     2100.2  Type=RHF/CANONICAL (state 1.1)

 Number of N-1 electron functions:               7
 Number of N-2 electron functions:              28
 Number of singly external CSFs:               273
 Number of doubly external CSFs:             37401
 Total number of CSFs:                       37675

 Length of J-op  integral file:               0.00 MB
 Length of K-op  integral file:               0.19 MB
 Length of 3-ext integral record:             0.00 MB

 Memory could be reduced to 0.96 Mwords without degradation in triples

 Integral transformation finished. Total CPU:   0.02 sec, npass=  1  Memory used:   0.66 MW

 Reference energy:                   -115.04915041

 MP2 singlet pair energy:              -0.21863337
 MP2 triplet pair energy:              -0.11984031
 MP2 correlation energy:               -0.33847368
 MP2 total energy:                   -115.38762409

 SCS-MP2 correlation energy:           -0.33692735   (PS=  1.200000  PT=  0.333333)
 SCS-MP2 total energy:               -115.38607776

 ITER.      SQ.NORM     CORR.ENERGY   TOTAL ENERGY   ENERGY CHANGE        DEN1      VAR(S)    VAR(P)  DIIS     TIME
   1      1.10732504    -0.36127671  -115.41042712    -0.02280303    -0.01412542  0.91D-03  0.17D-02  1  1     0.08
   2      1.11584990    -0.36322159  -115.41237200    -0.00194489    -0.00924866  0.20D-04  0.16D-03  2  2     0.13
   3      1.11773020    -0.36334887  -115.41249928    -0.00012728    -0.00120323  0.95D-05  0.86D-05  3  3     0.18
   4      1.11824502    -0.36334752  -115.41249793     0.00000135    -0.00025485  0.33D-06  0.67D-06  4  4     0.23
   5      1.11834308    -0.36334793  -115.41249834    -0.00000041    -0.00003602  0.99D-07  0.49D-07  5  5     0.28
   6      1.11836212    -0.36334658  -115.41249699     0.00000135    -0.00000437  0.16D-07  0.41D-08  6  6     0.33
   7      1.11836686    -0.36334616  -115.41249657     0.00000042    -0.00000035  0.20D-08  0.72D-09  6  1     0.38
   8      1.11836812    -0.36334627  -115.41249668    -0.00000010     0.00000075  0.26D-09  0.72D-10  6  3     0.43
   9      1.11836919    -0.36334614  -115.41249655     0.00000012    -0.00000038  0.13D-10  0.10D-10  6  2     0.48
  10      1.11836911    -0.36334614  -115.41249655    -0.00000000     0.00000007  0.11D-11  0.87D-12  6  5     0.53
  11      1.11836914    -0.36334614  -115.41249655     0.00000000    -0.00000000  0.19D-12  0.50D-13  6  4     0.58
  12      1.11836913    -0.36334614  -115.41249655    -0.00000000     0.00000001  0.19D-13  0.10D-13  6  1     0.63
  13      1.11836913    -0.36334614  -115.41249655    -0.00000000    -0.00000000  0.24D-14  0.94D-15  6  6     0.68
  14      1.11836913    -0.36334614  -115.41249655     0.00000000    -0.00000000  0.22D-15  0.12D-15  6  3     0.73
  15      1.11836913    -0.36334614  -115.41249655    -0.00000000    -0.00000000  0.25D-16  0.16D-16  6  2     0.78
  16      1.11836913    -0.36334614  -115.41249655    -0.00000000    -0.00000000  0.56D-17  0.16D-17  6  5     0.83
  17      1.11836913    -0.36334614  -115.41249655    -0.00000000    -0.00000000  0.55D-18  0.25D-18  6  4     0.87
  18      1.11836913    -0.36334614  -115.41249655     0.00000000    -0.00000000  0.86D-19  0.43D-19  6  1     0.93
  19      1.11836913    -0.36334614  -115.41249655    -0.00000000    -0.00000000  0.10D-19  0.44D-20  6  6     0.97
  20      1.11836913    -0.36334614  -115.41249655     0.00000000     0.00000000  0.16D-20  0.59D-21  6  3     1.03

 Norm of t1 vector:      0.04163609      S-energy:    -0.00000000      T1 diagnostic:  0.00786848
                                                                       D1 diagnostic:  0.01742677


 Total CPU time for triples:      0.24 sec


 RESULTS
 =======

  Reference energy                   -115.049150410153
  CCSD singlet pair energy             -0.254584259114
  CCSD triplet pair energy             -0.108761885274
  CCSD correlation energy              -0.363346144387

  Triples (T) contribution             -0.007735972065
  Total correlation energy             -0.371082116453

  CCSD total energy                  -115.412496554541
  CCSD[T] energy                     -115.420522343470
  CCSD-T energy                      -115.420082677015
 !CCSD(T) total energy               -115.420232526606

 Timing summary (sec):

 STEP                 CPU(USER)    SYS     CPU(TOT)    WALL
 Transformation          0.02      0.00      0.02      0.03
 CCSD iterations         1.01      0.05      1.06      1.08
 Triples                 0.24      0.00      0.24      0.25

 Program statistics:

 Available memory in ccsd:               999999704
 Min. memory needed in ccsd:                136801
 Max. memory used in ccsd:                  163198
 Max. memory used in cckext:                182024 (20 integral passes)



 **********************************************************************************************************************************
 DATASETS  * FILE   NREC   LENGTH (MB)   RECORD NAMES
              1      20       10.93       500      610      700      900      950      970     1000      129      960     1100   
                                          VAR    BASINP    GEOM    SYMINP    ZMAT    AOBASIS   BASIS     P2S    ABASIS      S 
                                         1400     1410     1200     1210     1080     1600     1650     1300     1700     1380   
                                           T        V       H0       H01     AOSYM     SMH    MOLCAS    ERIS     OPER     JKOP   

              2       3        0.39       700     1000     2100   
                                         GEOM     BASIS     RHF  

 PROGRAMS   *        TOTAL   CCSD(T)       RHF       INT
 CPU TIMES  *         1.71      1.28      0.09      0.27
 REAL TIME  *         2.06 SEC
 DISK USED  *        25.66 MB      
 GA USED    *         0.00 MB       (max)       0.00 MB       (current)
 **********************************************************************************************************************************

        CCSD(T)         RHF-SCF 
   -115.42023253   -115.04915041
 **********************************************************************************************************************************
 Variable memory released
