
 Primary working directories    : /tmp/601555.92.gen4.q
 Secondary working directories  : /tmp/601555.92.gen4.q
 Wavefunction directory         : /home/vulcan/mel64643/wfu/
 Main file repository           : /tmp/601555.92.gen4.q/

 ARCHNAME  : Linux/x86_64
 FC        : /opt/intel/compilers_and_libraries_2016.1.150/linux/bin/intel64/ifort
 FCVERSION : 16.0.1
 BLASLIB   : -mkl
 id        : ccgc

 Nodes     nprocs
 n065         1
 ga_uses_ma=false, calling ma_init with nominal heap.
 GA-space will be limited to   8.0 MW (determined by -G option)

 Using customized tuning parameters: mindgm=10; mindgv=16; mindgc=4; mindgr=1; noblas=0; mincuda=1000; minvec=7
 default implementation of scratch files=df  

 ***,Optimization of min3
 memory,1000,m
 gthresh,energy=1.0d-12,orbital=1.0d-10,oneint=1.0d-16,twoint=1.0d-16,optgrad=1.0d-6,compress=1.0d-13
 geomtyp=xyz
 
  bohr
  geometry = {
  6
  arbitrary comment
  C   -1.3748099580   -0.0247251943    0.0000003747
  O    1.3032425608    0.1249418436    0.0000003017
  H   -2.0769668736    1.9153206850   -0.0000802641
  H   -2.1087338789   -0.9821507666    1.6779698570
  H   -2.1087269282   -0.9822814891   -1.6778973783
  H    1.9422709179   -1.5812371987   -0.0000013011
 }
 
 basis=cc-pvdz
 {rhf;maxit,200}
 {ccsd(t);maxit,200}

 Variables initialized (661), CPU time= 0.00 sec
 Commands  initialized (458), CPU time= 0.01 sec, 486 directives.
 Default parameters read. Elapsed time= 0.05 sec

 Checking input...
 Passed
1


                                         ***  PROGRAM SYSTEM MOLPRO  ***
                         Copyright, University College Cardiff Consultants Limited, 2008

                                    Version 2010.1 linked May 16 2016 07:17:05


 **********************************************************************************************************************************
 LABEL *   Optimization of min3                                                          
 Linux-4.4.3/n065(x86_64) 64 bit mpp version                                             DATE: 06-Nov-21          TIME: 15:39:46  
 **********************************************************************************************************************************

 SHA1:             9e8077add272b0f3cad6f7df79ec5211205f459d
 **********************************************************************************************************************************

 THRESHOLDS:

 ZERO    =  1.00D-12  ONEINT  =  1.00D-16  TWOINT  =  1.00D-16  PREFAC  =  1.00D-14  LOCALI  =  1.00D-09  EORDER  =  1.00D-04
 ENERGY  =  1.00D-12  ETEST   =  0.00D+00  EDENS   =  0.00D+00  THRDEDEF=  1.00D-06  GRADIENT=  1.00D-02  STEP    =  1.00D-03
 ORBITAL =  1.00D-10  CIVEC   =  1.00D-05  COEFF   =  1.00D-04  PRINTCI =  5.00D-02  PUNCHCI =  9.90D+01  OPTGRAD =  1.00D-06
 OPTENERG=  1.00D-06  OPTSTEP =  3.00D-04  THRGRAD =  1.00D-10  COMPRESS=  1.00D-13  VARMIN  =  1.00D-07  VARMAX  =  1.00D-03
 THRDOUB =  0.00D+00  THRDIV  =  1.00D-05  THRRED  =  1.00D-07  THRPSP  =  1.00D+00  THRDC   =  1.00D-10  THRCS   =  1.00D-10
 THRNRM  =  1.00D-08  THREQ   =  0.00D+00  THRDE   =  1.00D+00  THRREF  =  1.00D-05  SPARFAC =  1.00D+00  THRDLP  =  1.00D-07
 THRDIA  =  1.00D-10  THRDLS  =  1.00D-07  THRGPS  =  0.00D+00  THRKEX  =  0.00D+00  THRDIS  =  2.00D-01  THRVAR  =  1.00D-10
 THRLOC  =  1.00D-06  THRGAP  =  1.00D-06  THRLOCT = -1.00D+00  THRGAPT = -1.00D+00  THRORB  =  1.00D-06  THRMLTP =  0.00D+00
 THRCPQCI=  1.00D-10  KEXTA   =  0.00D+00  THRCOARS=  0.00D+00  SYMTOL  =  1.00D-06  GRADTOL =  1.00D-06  THROVL  =  1.00D-08
 THRORTH =  1.00D-08  GRID    =  1.00D-06  GRIDMAX =  1.00D-03  DTMAX   =  0.00D+00

 SETTING GEOMTYP        =    XYZ
 ZUNIT=BOHR
 

 Variable memory set to 1000000000 words,  buffer space   230000 words

 SETTING BASIS          =    CC-PVDZ


 Recomputing integrals since basis changed


 Using spherical harmonics

 Library entry C      S cc-pVDZ              selected for orbital group  1
 Library entry C      P cc-pVDZ              selected for orbital group  1
 Library entry C      D cc-pVDZ              selected for orbital group  1
 Library entry O      S cc-pVDZ              selected for orbital group  2
 Library entry O      P cc-pVDZ              selected for orbital group  2
 Library entry O      D cc-pVDZ              selected for orbital group  2
 Library entry H      S cc-pVDZ              selected for orbital group  3
 Library entry H      P cc-pVDZ              selected for orbital group  3

1PROGRAM * SEWARD (Integral evaluation for generally contracted gaussian basis sets)     Author: Roland Lindh, 1990

 Geometry written to block  1 of record 700


 Point group  C1  



 ATOMIC COORDINATES

 NR  ATOM    CHARGE       X              Y              Z

   1  C       6.00   -1.374809958   -0.024725194    0.000000375
   2  O       8.00    1.303242561    0.124941844    0.000000302
   3  H       1.00   -2.076966874    1.915320685   -0.000080264
   4  H       1.00   -2.108733879   -0.982150767    1.677969857
   5  H       1.00   -2.108726928   -0.982281489   -1.677897378
   6  H       1.00    1.942270918   -1.581237199   -0.000001301

 Bond lengths in Bohr (Angstrom)

 1-2  2.682231443  1-3  2.063201966  1-4  2.066613082  1-5  2.066612941  2-6  1.821923205
     ( 1.419375749)     ( 1.091799458)     ( 1.093604543)     ( 1.093604468)     ( 0.964120237)

 Bond angles

  1-2-6  107.33408463   2-1-3  106.69787398   2-1-4  112.36040181   2-1-5  112.36041131

  3-1-4  108.34871495   3-1-5  108.34854459   4-1-5  108.56876626

 NUCLEAR CHARGE:                   18
 NUMBER OF PRIMITIVE AOS:          82
 NUMBER OF SYMMETRY AOS:           80
 NUMBER OF CONTRACTIONS:           48   (  48A   )
 NUMBER OF CORE ORBITALS:           2   (   2A   )
 NUMBER OF VALENCE ORBITALS:       12   (  12A   )


 NUCLEAR REPULSION ENERGY   40.30533665


 Eigenvalues of metric

         1 0.966E-02 0.177E-01 0.370E-01 0.372E-01 0.385E-01 0.474E-01 0.477E-01 0.521E-01


 Contracted 2-electron integrals neglected if value below      1.0D-16
 AO integral compression algorithm  1   Integral accuracy      1.0D-16

     6.291 MB (compressed) written to integral file ( 98.4%)

     Node minimum: 6.291 MB, node maximum: 6.291 MB


 NUMBER OF SORTED TWO-ELECTRON INTEGRALS:     692076.     BUFFER LENGTH:  32768
 NUMBER OF SEGMENTS:   1  SEGMENT LENGTH:     692076      RECORD LENGTH: 524288

 Memory used in sort:       1.25 MW

 SORT1 READ      832256. AND WROTE      682148. INTEGRALS IN      2 RECORDS. CPU TIME:     0.01 SEC, REAL TIME:     0.01 SEC
 SORT2 READ      682148. AND WROTE      692076. INTEGRALS IN     24 RECORDS. CPU TIME:     0.01 SEC, REAL TIME:     0.02 SEC

 FILE SIZES:   FILE 1:     8.0 MBYTE,  FILE 4:     8.4 MBYTE,   TOTAL:     16.4 MBYTE

 OPERATOR DM      FOR CENTER  0  COORDINATES:    0.000000    0.000000    0.000000


 **********************************************************************************************************************************
 DATASETS  * FILE   NREC   LENGTH (MB)   RECORD NAMES
              1      19        8.03       500      610      700      900      950      970     1000      129      960     1100   
                                          VAR    BASINP    GEOM    SYMINP    ZMAT    AOBASIS   BASIS     P2S    ABASIS      S 
                                         1400     1410     1200     1210     1080     1600     1650     1300     1700   
                                           T        V       H0       H01     AOSYM     SMH    MOLCAS    ERIS     OPER   

 PROGRAMS   *        TOTAL       INT
 CPU TIMES  *         0.23      0.19
 REAL TIME  *         0.41 SEC
 DISK USED  *        23.34 MB      
 GA USED    *         0.00 MB       (max)       0.00 MB       (current)
 **********************************************************************************************************************************

1PROGRAM * RHF-SCF (CLOSED SHELL)       Authors: W. Meyer, H.-J. Werner


 NUMBER OF ELECTRONS:       9+    9-    SPACE SYMMETRY=1    SPIN SYMMETRY: Singlet 
 CONVERGENCE THRESHOLDS:    1.00E-10 (Density)    1.00E-13 (Energy)
 MAX. NUMBER OF ITERATIONS:      200
 INTERPOLATION TYPE:            DIIS
 INTERPOLATION STEPS:              2 (START)      1 (STEP)
 LEVEL SHIFTS:                  0.00 (CLOSED)  0.00 (OPEN) 



 Orbital guess generated from atomic densities. Full valence occupancy:   14

 Molecular orbital dump at record        2100.2

 ITERATION    DDIFF          GRAD             ENERGY        2-EL.EN.            DIPOLE MOMENTS         DIIS
    1      0.000D+00      0.000D+00      -115.01402366    164.395933   -0.48770   -0.90718   -0.00000    0
    2      0.000D+00      0.110D-01      -115.04243113    162.167400   -0.31210   -0.53854   -0.00000    1
    3      0.205D-01      0.531D-02      -115.04848266    163.197047   -0.39581   -0.61490   -0.00000    2
    4      0.640D-02      0.113D-02      -115.04894990    163.039783   -0.38612   -0.60356   -0.00000    3
    5      0.204D-02      0.204D-03      -115.04897137    163.046309   -0.38913   -0.59925   -0.00000    4
    6      0.436D-03      0.360D-04      -115.04897220    163.046467   -0.38950   -0.59904   -0.00000    5
    7      0.942D-04      0.755D-05      -115.04897223    163.045266   -0.38965   -0.59887   -0.00000    6
    8      0.155D-04      0.244D-05      -115.04897223    163.045659   -0.38970   -0.59884   -0.00000    7
    9      0.520D-05      0.506D-06      -115.04897223    163.045617   -0.38971   -0.59884   -0.00000    6
   10      0.146D-05      0.930D-07      -115.04897223    163.045616   -0.38971   -0.59884   -0.00000    6
   11      0.246D-06      0.348D-07      -115.04897223    163.045622   -0.38971   -0.59884   -0.00000    6
   12      0.632D-07      0.148D-07      -115.04897223    163.045620   -0.38971   -0.59884   -0.00000    7
   13      0.278D-07      0.322D-08      -115.04897223    163.045620   -0.38971   -0.59884   -0.00000    7
   14      0.805D-08      0.670D-09      -115.04897223    163.045620   -0.38971   -0.59884   -0.00000    7
   15      0.169D-08      0.158D-09      -115.04897223    163.045620   -0.38971   -0.59884   -0.00000    7
   16      0.352D-09      0.475D-10      -115.04897223    163.045620   -0.38971   -0.59884   -0.00000    7
   17      0.912D-10      0.172D-10      -115.04897223    163.045620   -0.38971   -0.59884   -0.00000    7
   18      0.441D-10      0.313D-11      -115.04897223    163.045620   -0.38971   -0.59884   -0.00000    7
   19      0.731D-11      0.710D-12      -115.04897223    163.045620   -0.38971   -0.59884   -0.00000    7
   20      0.180D-11      0.281D-12      -115.04897223    163.045620   -0.38971   -0.59884   -0.00000    0

 Final occupancy:   9

 !RHF STATE 1.1 Energy               -115.048972231589
 Nuclear energy                        40.30533665
 One-electron energy                 -236.87711903
 Two-electron energy                   81.52281015
 Virial quotient                       -1.00097979
 !RHF STATE 1.1 Dipole moment          -0.38971438    -0.59884195    -0.00000276
 Dipole moment /Debye                  -0.99049027    -1.52200471    -0.00000702

 Orbital energies:

         1.1          2.1          3.1          4.1          5.1          6.1          7.1          8.1          9.1         10.1
    -20.550447   -11.274578    -1.349465    -0.920639    -0.682579    -0.613852    -0.584424    -0.496854    -0.442911     0.184205

        11.1
      0.224053


 **********************************************************************************************************************************
 DATASETS  * FILE   NREC   LENGTH (MB)   RECORD NAMES
              1      19        8.03       500      610      700      900      950      970     1000      129      960     1100   
                                          VAR    BASINP    GEOM    SYMINP    ZMAT    AOBASIS   BASIS     P2S    ABASIS      S 
                                         1400     1410     1200     1210     1080     1600     1650     1300     1700   
                                           T        V       H0       H01     AOSYM     SMH    MOLCAS    ERIS     OPER   

              2       3        0.39       700     1000     2100   
                                         GEOM     BASIS     RHF  

 PROGRAMS   *        TOTAL       RHF       INT
 CPU TIMES  *         0.33      0.10      0.19
 REAL TIME  *         0.54 SEC
 DISK USED  *        23.34 MB      
 GA USED    *         0.00 MB       (max)       0.00 MB       (current)
 **********************************************************************************************************************************


1PROGRAM * CCSD (Closed-shell coupled cluster)     Authors: C. Hampel, H.-J. Werner, 1991, M. Deegan, P.J. Knowles, 1992


 Convergence thresholds:  THRVAR = 1.00D-08  THRDEN = 1.00D-12

 CCSD(T)     terms to be evaluated (factor= 1.000)


 Number of core orbitals:           2 (   2 )
 Number of closed-shell orbitals:   7 (   7 )
 Number of external orbitals:      39 (  39 )

 Molecular orbitals read from record     2100.2  Type=RHF/CANONICAL (state 1.1)

 Number of N-1 electron functions:               7
 Number of N-2 electron functions:              28
 Number of singly external CSFs:               273
 Number of doubly external CSFs:             37401
 Total number of CSFs:                       37675

 Length of J-op  integral file:               0.00 MB
 Length of K-op  integral file:               0.19 MB
 Length of 3-ext integral record:             0.00 MB

 Memory could be reduced to 0.96 Mwords without degradation in triples

 Integral transformation finished. Total CPU:   0.02 sec, npass=  1  Memory used:   0.66 MW

 Reference energy:                   -115.04897223

 MP2 singlet pair energy:              -0.21876744
 MP2 triplet pair energy:              -0.11989884
 MP2 correlation energy:               -0.33866628
 MP2 total energy:                   -115.38763851

 SCS-MP2 correlation energy:           -0.33712465   (PS=  1.200000  PT=  0.333333)
 SCS-MP2 total energy:               -115.38609688

 ITER.      SQ.NORM     CORR.ENERGY   TOTAL ENERGY   ENERGY CHANGE        DEN1      VAR(S)    VAR(P)  DIIS     TIME
   1      1.10745326    -0.36145158  -115.41042382    -0.02278531    -0.01408777  0.92D-03  0.17D-02  1  1     0.06
   2      1.11600214    -0.36340257  -115.41237480    -0.00195099    -0.00926632  0.20D-04  0.16D-03  2  2     0.10
   3      1.11789559    -0.36353048  -115.41250271    -0.00012791    -0.00121076  0.95D-05  0.86D-05  3  3     0.13
   4      1.11841422    -0.36352930  -115.41250153     0.00000118    -0.00025623  0.34D-06  0.68D-06  4  4     0.17
   5      1.11851312    -0.36352973  -115.41250196    -0.00000044    -0.00003624  0.10D-06  0.49D-07  5  5     0.21
   6      1.11853241    -0.36352836  -115.41250059     0.00000137    -0.00000440  0.16D-07  0.42D-08  6  6     0.25
   7      1.11853726    -0.36352794  -115.41250017     0.00000042    -0.00000036  0.21D-08  0.73D-09  6  1     0.29
   8      1.11853855    -0.36352804  -115.41250027    -0.00000010     0.00000076  0.26D-09  0.74D-10  6  3     0.33
   9      1.11853963    -0.36352792  -115.41250015     0.00000012    -0.00000039  0.13D-10  0.11D-10  6  2     0.36
  10      1.11853969    -0.36352792  -115.41250015     0.00000000     0.00000000  0.14D-11  0.12D-11  6  4     0.40
  11      1.11853964    -0.36352791  -115.41250015     0.00000000     0.00000003  0.34D-12  0.86D-13  6  5     0.44
  12      1.11853959    -0.36352792  -115.41250015    -0.00000000     0.00000003  0.33D-13  0.13D-13  6  6     0.48
  13      1.11853957    -0.36352792  -115.41250015    -0.00000000     0.00000001  0.39D-14  0.16D-14  6  3     0.52
  14      1.11853957    -0.36352792  -115.41250015    -0.00000000     0.00000000  0.29D-15  0.15D-15  6  1     0.56
  15      1.11853957    -0.36352792  -115.41250015     0.00000000    -0.00000000  0.36D-16  0.32D-16  6  2     0.60
  16      1.11853957    -0.36352792  -115.41250015     0.00000000    -0.00000000  0.32D-17  0.17D-17  6  5     0.63
  17      1.11853957    -0.36352792  -115.41250015    -0.00000000     0.00000000  0.13D-18  0.13D-18  6  4     0.67
  18      1.11853957    -0.36352792  -115.41250015     0.00000000    -0.00000000  0.27D-19  0.12D-19  6  3     0.71
  19      1.11853957    -0.36352792  -115.41250015     0.00000000    -0.00000000  0.26D-20  0.10D-20  6  6     0.75
  20      1.11853957    -0.36352792  -115.41250015     0.00000000    -0.00000000  0.42D-21  0.17D-21  6  1     0.79

 Norm of t1 vector:      0.04175413      S-energy:    -0.00000000      T1 diagnostic:  0.00789079
                                                                       D1 diagnostic:  0.01750568


 Total CPU time for triples:      0.20 sec


 RESULTS
 =======

  Reference energy                   -115.048972231589
  CCSD singlet pair energy             -0.254753677066
  CCSD triplet pair energy             -0.108774242554
  CCSD correlation energy              -0.363527919620

  Triples (T) contribution             -0.007750514022
  Total correlation energy             -0.371278433642

  CCSD total energy                  -115.412500151209
  CCSD[T] energy                     -115.420541311313
  CCSD-T energy                      -115.420100421018
 !CCSD(T) total energy               -115.420250665231

 Timing summary (sec):

 STEP                 CPU(USER)    SYS     CPU(TOT)    WALL
 Transformation          0.02      0.00      0.02      0.02
 CCSD iterations         0.77      0.05      0.82      0.85
 Triples                 0.20      0.01      0.21      0.21

 Program statistics:

 Available memory in ccsd:               999999704
 Min. memory needed in ccsd:                136801
 Max. memory used in ccsd:                  163198
 Max. memory used in cckext:                182024 (20 integral passes)



 **********************************************************************************************************************************
 DATASETS  * FILE   NREC   LENGTH (MB)   RECORD NAMES
              1      20       10.56       500      610      700      900      950      970     1000      129      960     1100   
                                          VAR    BASINP    GEOM    SYMINP    ZMAT    AOBASIS   BASIS     P2S    ABASIS      S 
                                         1400     1410     1200     1210     1080     1600     1650     1300     1700     1380   
                                           T        V       H0       H01     AOSYM     SMH    MOLCAS    ERIS     OPER     JKOP   

              2       3        0.39       700     1000     2100   
                                         GEOM     BASIS     RHF  

 PROGRAMS   *        TOTAL   CCSD(T)       RHF       INT
 CPU TIMES  *         1.33      1.00      0.10      0.19
 REAL TIME  *         1.64 SEC
 DISK USED  *        24.77 MB      
 GA USED    *         0.00 MB       (max)       0.00 MB       (current)
 **********************************************************************************************************************************

        CCSD(T)         RHF-SCF 
   -115.42025067   -115.04897223
 **********************************************************************************************************************************
 Variable memory released
