 Entering Gaussian System, Link 0=g03
 trademark of Gaussian, Inc.
 
 -----------------------------
 #p XXXX/GEN Freq
 -----------------------------

                          Input orientation:                          
 ---------------------------------------------------------------------
 Center     Atomic     Atomic              Coordinates (Angstroms)
 Number     Number      Type              X           Y           Z
 ---------------------------------------------------------------------
    1          1             0       -0.000000   -0.753371    0.525286
    2          8             0        0.000000    0.000000   -0.066196
    3          1             0       -0.000000    0.753371    0.525286
 ---------------------------------------------------------------------
                        Standard orientation:                         
 ---------------------------------------------------------------------
 Center     Atomic     Atomic              Coordinates (Angstroms)
 Number     Number      Type              X           Y           Z
 ---------------------------------------------------------------------
    1          1             0       -0.000000   -0.753371    0.525286
    2          8             0        0.000000    0.000000   -0.066196
    3          1             0       -0.000000    0.753371    0.525286
 ---------------------------------------------------------------------
                     1                      2                      3  
                     A1                     A1                     B2 
 Frequencies --  1655.3000              3925.4600              4045.9200
 Red. masses --     0.0000                 0.0000                 0.0000
 Frc consts  --     0.0000                 0.0000                 0.0000
 IR Inten    --    57.8267                 3.9147                25.2606
 Atom AN      X      Y      Z        X      Y      Z        X      Y      Z      
   1   1     0.00   0.42   0.54    -0.00   0.57  -0.39     0.00   0.54  -0.42    
   2   8    -0.00  -0.00  -0.27     0.00   0.00   0.20    -0.00  -0.27   0.00    
   3   1     0.00  -0.42   0.54    -0.00  -0.57  -0.39    -0.00   0.54   0.42    
