[Molden Format]
[ATOMS] AU
H        1    1       -1.4227529705        0.9933628291       -0.0000000000
O        2    8       -0.0001149554       -0.1250915252        0.0000000000
H        3    1        1.4245773967        0.9919304482       -0.0000000000
[Molden Format]
[GTO]
  1 0
s   4 1.00
   13.0100000000000       1.968500000000000E-002
   1.96200000000000       0.137977000000000     
  0.444600000000000       0.478148000000000     
  0.122000000000000       0.501240000000000     
s   4 1.00
   13.0100000000000       0.000000000000000E+000
   1.96200000000000       0.000000000000000E+000
  0.444600000000000       0.000000000000000E+000
  0.122000000000000        1.00000000000000     
p   1 1.00
  0.727000000000000        1.00000000000000     
 
  2 0
s   9 1.00
   11720.0000000000       7.100000000000000E-004
   1759.00000000000       5.470000000000000E-003
   400.800000000000       2.783700000000000E-002
   113.700000000000       0.104800000000000     
   37.0300000000000       0.283062000000000     
   13.2700000000000       0.448719000000000     
   5.02500000000000       0.270952000000000     
   1.01300000000000       1.545800000000000E-002
  0.302300000000000      -2.585000000000000E-003
s   9 1.00
   11720.0000000000      -1.600000000000000E-004
   1759.00000000000      -1.263000000000000E-003
   400.800000000000      -6.267000000000000E-003
   113.700000000000      -2.571600000000000E-002
   37.0300000000000      -7.092400000000000E-002
   13.2700000000000      -0.165411000000000     
   5.02500000000000      -0.116955000000000     
   1.01300000000000       0.557368000000000     
  0.302300000000000       0.572759000000000     
s   9 1.00
   11720.0000000000       0.000000000000000E+000
   1759.00000000000       0.000000000000000E+000
   400.800000000000       0.000000000000000E+000
   113.700000000000       0.000000000000000E+000
   37.0300000000000       0.000000000000000E+000
   13.2700000000000       0.000000000000000E+000
   5.02500000000000       0.000000000000000E+000
   1.01300000000000       0.000000000000000E+000
  0.302300000000000        1.00000000000000     
p   4 1.00
   17.7000000000000       4.301800000000000E-002
   3.85400000000000       0.228913000000000     
   1.04600000000000       0.508728000000000     
  0.275300000000000       0.460531000000000     
p   4 1.00
   17.7000000000000       0.000000000000000E+000
   3.85400000000000       0.000000000000000E+000
   1.04600000000000       0.000000000000000E+000
  0.275300000000000        1.00000000000000     
d   1 1.00
   1.18500000000000        1.00000000000000     
 
  3 0
s   4 1.00
   13.0100000000000       1.968500000000000E-002
   1.96200000000000       0.137977000000000     
  0.444600000000000       0.478148000000000     
  0.122000000000000       0.501240000000000     
s   4 1.00
   13.0100000000000       0.000000000000000E+000
   1.96200000000000       0.000000000000000E+000
  0.444600000000000       0.000000000000000E+000
  0.122000000000000        1.00000000000000     
p   1 1.00
  0.727000000000000        1.00000000000000     
 
[MO]
 Sym= A
 Ene=  -20.5509578570379     
 Spin= Alpha
 Occup= 1.0
  1        0.0004042112
  2       -0.0006224289
  3        0.0005678774
  4       -0.0004855803
  5        0.0000000000
  6       -1.0003983654
  7       -0.0022974332
  8        0.0013974439
  9       -0.0000003638
 10       -0.0025780467
 11        0.0000000000
 12        0.0000010105
 13        0.0016739369
 14        0.0000000000
 15       -0.0000625429
 16       -0.0000087898
 17        0.0000713326
 18        0.0000007272
 19        0.0000000000
 20        0.0000000000
 21        0.0004008600
 22       -0.0006206004
 23       -0.0005673493
 24       -0.0004839448
 25        0.0000000000
 Sym= A
 Ene=  -1.33702948256079     
 Spin= Alpha
 Occup= 1.0
  1        0.3299179371
  2       -0.1553333646
  3        0.0371025727
  4       -0.0208179825
  5        0.0000000000
  6       -0.0081214510
  7        0.8703950163
  8       -0.1230406647
  9       -0.0000334738
 10        0.1156618758
 11        0.0000000000
 12        0.0000248784
 13       -0.0665158249
 14        0.0000000000
 15        0.0010880025
 16        0.0007755769
 17       -0.0018635794
 18       -0.0000096913
 19        0.0000000000
 20        0.0000000000
 21        0.3295610302
 22       -0.1551518149
 23       -0.0371085227
 24       -0.0207499664
 25        0.0000000000
 Sym= A
 Ene= -0.697491298509992     
 Spin= Alpha
 Occup= 1.0
  1        0.5572973207
  2       -0.1888441193
  3        0.0229829003
  4       -0.0328274847
  5        0.0000000000
  6        0.0000002531
  7       -0.0002167344
  8       -0.0001808260
  9       -0.7144634548
 10        0.0007809560
 11        0.0000000000
 12        0.1056283223
 13       -0.0001254645
 14        0.0000000000
 15       -0.0000159822
 16        0.0000206121
 17       -0.0000046299
 18       -0.0269096438
 19        0.0000000000
 20        0.0000000000
 21       -0.5570014603
 22        0.1886477212
 23        0.0230162460
 24        0.0327984172
 25        0.0000000000
 Sym= A
 Ene= -0.568079751556457     
 Spin= Alpha
 Occup= 1.0
  1        0.3532742557
  2       -0.1367496289
  3        0.0319291091
  4        0.0072398514
  5        0.0000000000
  6        0.0022195521
  7       -0.2973843662
  8       -0.1815520918
  9        0.0007377759
 10        0.7932755825
 11        0.0000000000
 12       -0.0000090998
 13       -0.0020775683
 14        0.0000000000
 15       -0.0029016124
 16        0.0103684159
 17       -0.0074668035
 18        0.0000203535
 19        0.0000000000
 20        0.0000000000
 21        0.3536224583
 22       -0.1367601645
 23       -0.0319342732
 24        0.0072471747
 25        0.0000000000
 Sym= A
 Ene= -0.493390979290422     
 Spin= Alpha
 Occup= 1.0
  1        0.0000000000
  2        0.0000000000
  3        0.0000000000
  4        0.0000000000
  5        0.0311227880
  6        0.0000000000
  7        0.0000000000
  8        0.0000000000
  9        0.0000000000
 10        0.0000000000
 11        0.9198186015
 12        0.0000000000
 13        0.0000000000
 14        0.0719085597
 15        0.0000000000
 16        0.0000000000
 17        0.0000000000
 18        0.0000000000
 19        0.0000072783
 20        0.0182771183
 21        0.0000000000
 22        0.0000000000
 23        0.0000000000
 24        0.0000000000
 25        0.0311072160
 Sym= A
 Ene=  0.185311100797973     
 Spin= Alpha
 Occup= 0.0
  1        0.0989078757
  2        0.7783263931
  3        0.0173820883
  4       -0.0163900896
  5        0.0000000000
  6        0.0519648328
  7       -0.1419424057
  8       -0.9190157950
  9       -0.0004922226
 10       -0.2791120632
 11        0.0000000000
 12       -0.0003837464
 13       -0.2104365753
 14        0.0000000000
 15       -0.0027063316
 16       -0.0044834604
 17        0.0071897920
 18        0.0000013976
 19        0.0000000000
 20        0.0000000000
 21        0.0990875324
 22        0.7792614003
 23       -0.0174015316
 24       -0.0163508430
 25        0.0000000000
 Sym= A
 Ene=  0.256263638274243     
 Spin= Alpha
 Occup= 0.0
  1        0.0453733403
  2        1.4251533598
  3        0.0206983287
  4       -0.0171210620
  5        0.0000000000
  6        0.0000337654
  7       -0.0000580620
  8       -0.0007818168
  9        0.4133623606
 10       -0.0003267265
 11        0.0000000000
 12        0.4796818737
 13       -0.0003853045
 14        0.0000000000
 15        0.0000035776
 16       -0.0000132991
 17        0.0000097215
 18        0.0211615863
 19        0.0000000000
 20        0.0000000000
 21       -0.0454416770
 22       -1.4240365569
 23        0.0206629088
 24        0.0170553027
 25        0.0000000000
 Sym= A
 Ene=  0.786227026880051     
 Spin= Alpha
 Occup= 0.0
  1        1.6040490028
  2       -1.4926953281
  3       -0.0732087953
  4        0.1506976364
  5        0.0000000000
  6        0.0001990300
  7        0.0012827949
  8       -0.0017480929
  9        0.3871201459
 10        0.0009193162
 11        0.0000000000
 12        0.2824244004
 13       -0.0008456733
 14        0.0000000000
 15       -0.0001865895
 16        0.0000659579
 17        0.0001206315
 18       -0.1116328424
 19        0.0000000000
 20        0.0000000000
 21       -1.6106613068
 22        1.4990048085
 23       -0.0745595649
 24       -0.1508393509
 25        0.0000000000
 Sym= A
 Ene=  0.857353686547582     
 Spin= Alpha
 Occup= 0.0
  1        1.3356453248
  2       -1.2200515296
  3       -0.2972428861
  4        0.0645306041
  5        0.0000000000
  6       -0.0667257029
  7       -0.5079634873
  8        0.6230398110
  9        0.0004676292
 10       -0.4897996556
 11        0.0000000000
 12        0.0013145553
 13        0.2445235309
 14        0.0000000000
 15        0.0525539659
 16        0.0015582050
 17       -0.0541121709
 18       -0.0003755395
 19        0.0000000000
 20        0.0000000000
 21        1.3278979091
 22       -1.2134908795
 23        0.2968758169
 24        0.0633086508
 25        0.0000000000
 Sym= A
 Ene=   1.16418846788878     
 Spin= Alpha
 Occup= 0.0
  1        0.9449744982
  2       -0.3644492872
  3        0.0788434811
  4       -0.2526447034
  5        0.0000000000
  6       -0.0053955436
  7       -0.2385309160
  8       -0.6058593758
  9       -0.0000369715
 10        1.0925586117
 11        0.0000000000
 12        0.0006343558
 13       -1.7850635640
 14        0.0000000000
 15        0.0079605968
 16       -0.0075831350
 17       -0.0003774617
 18        0.0000423105
 19        0.0000000000
 20        0.0000000000
 21        0.9437034683
 22       -0.3653052322
 23       -0.0786521277
 24       -0.2524257757
 25        0.0000000000
 Sym= A
 Ene=   1.20017456355282     
 Spin= Alpha
 Occup= 0.0
  1        0.0000000000
  2        0.0000000000
  3        0.0000000000
  4        0.0000000000
  5        0.0086186792
  6        0.0000000000
  7        0.0000000000
  8        0.0000000000
  9        0.0000000000
 10        0.0000000000
 11       -1.4100793161
 12        0.0000000000
 13        0.0000000000
 14        1.6740217057
 15        0.0000000000
 16        0.0000000000
 17        0.0000000000
 18        0.0000000000
 19        0.0000250971
 20       -0.0034680474
 21        0.0000000000
 22        0.0000000000
 23        0.0000000000
 24        0.0000000000
 25        0.0091515762
 Sym= A
 Ene=   1.25415427727208     
 Spin= Alpha
 Occup= 0.0
  1        0.6384064398
  2        0.5073454295
  3        0.2985205623
  4       -0.1912626386
  5        0.0000000000
  6        0.0000143060
  7        0.0003342909
  8       -0.0002761206
  9       -1.0736971521
 10       -0.0003240001
 11        0.0000000000
 12        2.2548434945
 13        0.0000468933
 14        0.0000000000
 15       -0.0000009137
 16       -0.0000295017
 17        0.0000304154
 18        0.0449422647
 19        0.0000000000
 20        0.0000000000
 21       -0.6397352218
 22       -0.5064737523
 23        0.2988881072
 24        0.1911085628
 25        0.0000000000
 Sym= A
 Ene=   1.43744109976387     
 Spin= Alpha
 Occup= 0.0
  1        0.5875803366
  2       -0.4981207319
  3        0.3398091027
  4        0.5391925801
  5        0.0000000000
  6       -0.1937926568
  7       -1.0059555977
  8        1.0405941763
  9       -0.0000707597
 10        0.1887787832
 11        0.0000000000
 12       -0.0002619442
 13       -0.8388946655
 14        0.0000000000
 15       -0.0364356301
 16        0.0675553049
 17       -0.0311196747
 18        0.0001238093
 19        0.0000000000
 20        0.0000000000
 21        0.5871517514
 22       -0.4978695703
 23       -0.3391084962
 24        0.5396074272
 25        0.0000000000
 Sym= A
 Ene=   1.47871434340550     
 Spin= Alpha
 Occup= 0.0
  1        0.0000000000
  2        0.0000000000
  3        0.0000000000
  4        0.0000000000
  5        0.6860258553
  6        0.0000000000
  7        0.0000000000
  8        0.0000000000
  9        0.0000000000
 10        0.0000000000
 11       -0.0007092490
 12        0.0000000000
 13        0.0000000000
 14        0.0007719767
 15        0.0000000000
 16        0.0000000000
 17        0.0000000000
 18        0.0000000000
 19       -0.1316267969
 20        0.0000208101
 21        0.0000000000
 22        0.0000000000
 23        0.0000000000
 24        0.0000000000
 25       -0.6863736543
 Sym= A
 Ene=   1.67015778325402     
 Spin= Alpha
 Occup= 0.0
  1        0.0000000000
  2        0.0000000000
  3        0.0000000000
  4        0.0000000000
  5        0.7661105954
  6        0.0000000000
  7        0.0000000000
  8        0.0000000000
  9        0.0000000000
 10        0.0000000000
 11       -0.0278341177
 12        0.0000000000
 13        0.0000000000
 14       -0.6206980521
 15        0.0000000000
 16        0.0000000000
 17        0.0000000000
 18        0.0000000000
 19        0.0000947326
 20        0.1606832892
 21        0.0000000000
 22        0.0000000000
 23        0.0000000000
 24        0.0000000000
 25        0.7656914858
 Sym= A
 Ene=   1.86569996439783     
 Spin= Alpha
 Occup= 0.0
  1        1.4144576768
  2       -0.3201378232
  3        0.3675024073
  4        0.0104544791
  5        0.0000000000
  6        0.7263525342
  7        3.1409704524
  8       -4.8404602506
  9        0.0003186720
 10       -0.1620822578
 11        0.0000000000
 12       -0.0003154913
 13       -0.8941847819
 14        0.0000000000
 15        0.0219601896
 16        0.0649281851
 17       -0.0868883748
 18        0.0000774624
 19        0.0000000000
 20        0.0000000000
 21        1.4130533849
 22       -0.3199489693
 23       -0.3677194397
 24        0.0115419714
 25        0.0000000000
 Sym= A
 Ene=   1.93892592182431     
 Spin= Alpha
 Occup= 0.0
  1        0.6454384896
  2       -0.2341710268
  3       -0.4735511168
  4       -0.6955553401
  5        0.0000000000
  6       -0.0003161877
  7       -0.0014004224
  8        0.0017668029
  9        0.0012941311
 10        0.0002406548
 11        0.0000000000
 12        0.8857490317
 13       -0.0003422603
 14        0.0000000000
 15       -0.0000206806
 16       -0.0000156040
 17        0.0000362846
 18       -0.0298638325
 19        0.0000000000
 20        0.0000000000
 21       -0.6461592210
 22        0.2342978784
 23       -0.4723005399
 24        0.6960266864
 25        0.0000000000
 Sym= A
 Ene=   2.44943332140261     
 Spin= Alpha
 Occup= 0.0
  1        0.4859020462
  2        0.0849693768
  3        0.7188639902
  4       -0.5450347139
  5        0.0000000000
  6        0.0027779063
  7        0.0149408818
  8        0.0009840440
  9        1.2168360788
 10        0.0103145929
 11        0.0000000000
 12       -0.4183948896
 13       -0.0025820780
 14        0.0000000000
 15       -0.0011231045
 16       -0.0002643388
 17        0.0013874434
 18       -0.1374744041
 19        0.0000000000
 20        0.0000000000
 21       -0.5042065705
 22       -0.0796203784
 23        0.7365942050
 24        0.5564662785
 25        0.0000000000
 Sym= A
 Ene=   2.49047680930911     
 Spin= Alpha
 Occup= 0.0
  1        0.8162627830
  2       -0.2464859037
  3        0.7459372777
  4       -0.5514427045
  5        0.0000000000
  6       -0.2774746039
  7       -1.4296788391
  8        0.0278253331
  9        0.0137609244
 10       -0.9821480352
 11        0.0000000000
 12       -0.0049285125
 13        0.2749605731
 14        0.0000000000
 15        0.0940001019
 16        0.0295464692
 17       -0.1235465711
 18       -0.0017888031
 19        0.0000000000
 20        0.0000000000
 21        0.8038035124
 22       -0.2476975410
 23       -0.7295941652
 24       -0.5377666248
 25        0.0000000000
 Sym= A
 Ene=   3.28929010420689     
 Spin= Alpha
 Occup= 0.0
  1        0.0000000000
  2        0.0000000000
  3        0.0000000000
  4        0.0000000000
  5        0.3982624472
  6        0.0000000000
  7        0.0000000000
  8        0.0000000000
  9        0.0000000000
 10        0.0000000000
 11        0.0171177764
 12        0.0000000000
 13        0.0000000000
 14       -0.3205756941
 15        0.0000000000
 16        0.0000000000
 17        0.0000000000
 18        0.0000000000
 19       -0.0052026373
 20       -1.0436081309
 21        0.0000000000
 22        0.0000000000
 23        0.0000000000
 24        0.0000000000
 25        0.4012231580
 Sym= A
 Ene=   3.33536517599889     
 Spin= Alpha
 Occup= 0.0
  1        0.0000000000
  2        0.0000000000
  3        0.0000000000
  4        0.0000000000
  5        0.3721987379
  6        0.0000000000
  7        0.0000000000
  8        0.0000000000
  9        0.0000000000
 10        0.0000000000
 11       -0.0000461337
 12        0.0000000000
 13        0.0000000000
 14       -0.0014758449
 15        0.0000000000
 16        0.0000000000
 17        0.0000000000
 18        0.0000000000
 19        1.0652778821
 20       -0.0052570038
 21        0.0000000000
 22        0.0000000000
 23        0.0000000000
 24        0.0000000000
 25       -0.3684248794
 Sym= A
 Ene=   3.51308186191193     
 Spin= Alpha
 Occup= 0.0
  1        0.4859942075
  2       -0.2105139785
  3        0.3410694580
  4        0.3215659109
  5        0.0000000000
  6        0.0823735276
  7        0.3003243979
  8       -0.6890199780
  9       -0.0001019302
 10       -0.0150467135
 11        0.0000000000
 12       -0.0006175001
 13       -0.5149592200
 14        0.0000000000
 15        0.4156349976
 16       -0.6243969069
 17        0.2087619094
 18       -0.0014385196
 19        0.0000000000
 20        0.0000000000
 21        0.4863676246
 22       -0.2105743034
 23       -0.3405265598
 24        0.3214750641
 25        0.0000000000
 Sym= A
 Ene=   3.85922413440630     
 Spin= Alpha
 Occup= 0.0
  1        2.1168457599
  2       -0.8690136281
  3        0.6206221521
  4       -0.4896781322
  5        0.0000000000
  6        0.1465741685
  7        0.3609145732
  8       -2.4861822420
  9       -0.0003120563
 10       -0.5916717571
 11        0.0000000000
 12       -0.0011109152
 13       -0.6686598157
 14        0.0000000000
 15       -0.5265001444
 16       -0.0983108397
 17        0.6248109841
 18       -0.0004535527
 19        0.0000000000
 20        0.0000000000
 21        2.1176484739
 22       -0.8690416151
 23       -0.6221034885
 24       -0.4894316066
 25        0.0000000000
 Sym= A
 Ene=   4.15137266328099     
 Spin= Alpha
 Occup= 0.0
  1        1.8491540709
  2       -0.6379649034
  3        0.6036478177
  4       -0.5016740048
  5        0.0000000000
  6       -0.0001395053
  7       -0.0007489875
  8       -0.0023503257
  9        0.6811091072
 10       -0.0014403407
 11        0.0000000000
 12        0.8244984607
 13       -0.0012113768
 14        0.0000000000
 15        0.0004489866
 16       -0.0010115371
 17        0.0005625505
 18        1.3272236050
 19        0.0000000000
 20        0.0000000000
 21       -1.8429922065
 22        0.6352462741
 23        0.6028755788
 24        0.4999191384
 25        0.0000000000
 [FREQ]
        0.0000488636
        0.0000362982
        0.0000096348
        0.0000000000
        0.0000000000
        0.0000350363
     1655.3009494181
     3925.4565443886
     4045.9235767558
 [FR-COORD]
H           -0.0000000000       -1.4236653483        0.9926470220
O            0.0000000000        0.0000000000       -0.1250915735
H           -0.0000000000        1.4236653483        0.9926470220
 [FR-NORM-COORD]
  vibration                      1
        0.0000000000        0.1511634579        0.4504453080
        0.0000000000       -0.1934067951        0.7811141318
        0.3169444429        0.1511634579       -0.0583008347
  vibration                      2
       -0.0000000000        0.0171038105        0.1405799720
        0.0000000000       -0.1755112963        0.2497067514
       -0.9414153663        0.0171038105       -0.0152191335
  vibration                      3
        0.0000000000        0.2328423960        0.0428419489
        0.0000000000        0.9212531157        0.1625908438
       -0.1143946167        0.2328423960        0.0387838958
  vibration                      4
        0.9981097053       -0.0000000000        0.0000000000
        0.0614574331       -0.0000000000       -0.0000000000
       -0.0000000000       -0.0000000000        0.0000000000
  vibration                      5
        0.0614574331        0.0000000000        0.0000000000
       -0.9981097053        0.0000000000        0.0000000000
       -0.0000000000        0.0000000000        0.0000000000
  vibration                      6
       -0.0000000000        0.3683536932        0.3931630059
        0.0000000000       -0.1037240716       -0.4349213670
       -0.0140427837        0.3683536932       -0.6115075518
  vibration                      7
       -0.0000000000        0.4166051534        0.5384297898
        0.0000000000       -0.0000000000       -0.2703091107
       -0.0000000000       -0.4166051534        0.5384297898
  vibration                      8
        0.0000000000        0.5713494081       -0.3926014834
       -0.0000000000       -0.0000000000        0.1970986001
        0.0000000000       -0.5713494081       -0.3926014834
  vibration                      9
        0.0000000000        0.5356837163       -0.4205724087
        0.0000000000       -0.2689304933       -0.0000000000
       -0.0000000000        0.5356837163        0.4205724087
