
 Primary working directories    : /tmp/333988.10.gen4.q
 Secondary working directories  : /tmp/333988.10.gen4.q
 Wavefunction directory         : /home/vulcan/mel64643/wfu/
 Main file repository           : /tmp/333988.10.gen4.q/

 ARCHNAME  : Linux/x86_64
 FC        : /opt/intel/compilers_and_libraries_2016.1.150/linux/bin/intel64/ifort
 FCVERSION : 16.0.1
 BLASLIB   : -mkl
 id        : ccgc

 Nodes     nprocs
 n046         3
 Number of processes for MPI-2 version of Molpro:   nprocs(total)=    4   nprocs(compute)=    3   nprocs(helper)=    1
 ga_uses_ma=false, calling ma_init with nominal heap.
 GA-space will be limited to   8.0 MW (determined by -G option)

 Using customized tuning parameters: mindgm=10; mindgv=16; mindgc=4; mindgr=1; noblas=0; mincuda=1000; minvec=7
 default implementation of scratch files=sf  

 ***,Optimization of min3
 memory,1000,m
 gthresh,energy=1.0d-10,orbital=1.0d-10,oneint=1.0d-16,twoint=1.0d-16,optgrad=1.0d-6,compress=1.0d-13
 geomtyp=xyz
 
  bohr
  geometry = {
  12
  arbitrary comment
  C         -3.0967066908          1.5958805085          0.0192842754
  C         -0.8684372273         -0.0742753177         -0.6559690797
  C         -1.1082565115         -2.7849775400          0.2460017554
  O          1.3053841860          1.1023495669          0.5898140612
  O          3.4432858332          0.1200533620         -0.2516183065
  H         -4.8071067050          0.8712042767         -0.8757009825
  H         -2.7836669318          3.5287842531         -0.6229408924
  H         -3.3859926520          1.6140849542          2.0621072572
  H         -0.4646016353         -0.0078319898         -2.6772834933
  H         -2.6813285046         -3.7101659377         -0.7163838382
  H         -1.4572117057         -2.8329380996          2.2796608977
  H          0.6231786650         -3.8208008822         -0.1650748753
 }
 
 basis=cc-pvtz
 {rhf;maxit,200}
 {uccsd(t);maxit,200}

 Variables initialized (661), CPU time= 0.00 sec
 Commands  initialized (458), CPU time= 0.00 sec, 486 directives.
 Default parameters read. Elapsed time= 0.05 sec

 Checking input...
 Passed
1


                                         ***  PROGRAM SYSTEM MOLPRO  ***
                         Copyright, University College Cardiff Consultants Limited, 2008

                                    Version 2010.1 linked May 16 2016 07:17:05


 **********************************************************************************************************************************
 LABEL *   Optimization of min3                                                          
 Linux-4.4.3/n046(x86_64) 64 bit mpp version                                             DATE: 15-Jul-20          TIME: 04:45:08  
 **********************************************************************************************************************************

 SHA1:             9e8077add272b0f3cad6f7df79ec5211205f459d
 **********************************************************************************************************************************

 THRESHOLDS:

 ZERO    =  1.00D-12  ONEINT  =  1.00D-16  TWOINT  =  1.00D-16  PREFAC  =  1.00D-14  LOCALI  =  1.00D-09  EORDER  =  1.00D-04
 ENERGY  =  1.00D-10  ETEST   =  0.00D+00  EDENS   =  0.00D+00  THRDEDEF=  1.00D-06  GRADIENT=  1.00D-02  STEP    =  1.00D-03
 ORBITAL =  1.00D-10  CIVEC   =  1.00D-05  COEFF   =  1.00D-04  PRINTCI =  5.00D-02  PUNCHCI =  9.90D+01  OPTGRAD =  1.00D-06
 OPTENERG=  1.00D-06  OPTSTEP =  3.00D-04  THRGRAD =  1.00D-10  COMPRESS=  1.00D-13  VARMIN  =  1.00D-07  VARMAX  =  1.00D-03
 THRDOUB =  0.00D+00  THRDIV  =  1.00D-05  THRRED  =  1.00D-07  THRPSP  =  1.00D+00  THRDC   =  1.00D-10  THRCS   =  1.00D-10
 THRNRM  =  1.00D-08  THREQ   =  0.00D+00  THRDE   =  1.00D+00  THRREF  =  1.00D-05  SPARFAC =  1.00D+00  THRDLP  =  1.00D-07
 THRDIA  =  1.00D-10  THRDLS  =  1.00D-07  THRGPS  =  0.00D+00  THRKEX  =  0.00D+00  THRDIS  =  2.00D-01  THRVAR  =  1.00D-10
 THRLOC  =  1.00D-06  THRGAP  =  1.00D-06  THRLOCT = -1.00D+00  THRGAPT = -1.00D+00  THRORB  =  1.00D-06  THRMLTP =  0.00D+00
 THRCPQCI=  1.00D-10  KEXTA   =  0.00D+00  THRCOARS=  0.00D+00  SYMTOL  =  1.00D-06  GRADTOL =  1.00D-06  THROVL  =  1.00D-08
 THRORTH =  1.00D-08  GRID    =  1.00D-06  GRIDMAX =  1.00D-03  DTMAX   =  0.00D+00

 SETTING GEOMTYP        =    XYZ
 ZUNIT=BOHR
 

 Variable memory set to 1000000000 words,  buffer space   230000 words

 SETTING BASIS          =    CC-PVTZ


 Recomputing integrals since basis changed


 Using spherical harmonics

 Library entry C      S cc-pVTZ              selected for orbital group  1
 Library entry C      P cc-pVTZ              selected for orbital group  1
 Library entry C      D cc-pVTZ              selected for orbital group  1
 Library entry C      F cc-pVTZ              selected for orbital group  1
 Library entry O      S cc-pVTZ              selected for orbital group  2
 Library entry O      P cc-pVTZ              selected for orbital group  2
 Library entry O      D cc-pVTZ              selected for orbital group  2
 Library entry O      F cc-pVTZ              selected for orbital group  2
 Library entry H      S cc-pVTZ              selected for orbital group  3
 Library entry H      P cc-pVTZ              selected for orbital group  3
 Library entry H      D cc-pVTZ              selected for orbital group  3

1PROGRAM * SEWARD (Integral evaluation for generally contracted gaussian basis sets)     Author: Roland Lindh, 1990

 Geometry written to block  1 of record 700


 Point group  C1  



 ATOMIC COORDINATES

 NR  ATOM    CHARGE       X              Y              Z

   1  C       6.00   -3.096706691    1.595880509    0.019284275
   2  C       6.00   -0.868437227   -0.074275318   -0.655969080
   3  C       6.00   -1.108256512   -2.784977540    0.246001755
   4  O       8.00    1.305384186    1.102349567    0.589814061
   5  O       8.00    3.443285833    0.120053362   -0.251618306
   6  H       1.00   -4.807106705    0.871204277   -0.875700982
   7  H       1.00   -2.783666932    3.528784253   -0.622940892
   8  H       1.00   -3.385992652    1.614084954    2.062107257
   9  H       1.00   -0.464601635   -0.007831990   -2.677283493
  10  H       1.00   -2.681328505   -3.710165938   -0.716383838
  11  H       1.00   -1.457211706   -2.832938100    2.279660898
  12  H       1.00    0.623178665   -3.820800882   -0.165074875

 Bond lengths in Bohr (Angstrom)

 1-2  2.865409636  1-6  2.061946280  1-7  2.060719278  1-8  2.063284640  2-3  2.866874817
     ( 1.516309474)     ( 1.091134978)     ( 1.090485676)     ( 1.091843207)     ( 1.517084814)

  2- 4  2.768017574   2- 9  2.062331171   3-10  2.063180820   3-11  2.063937850   3-12  2.059073035
       ( 1.464771814)       ( 1.091338653)       ( 1.091788268)       ( 1.092188871)       ( 1.089614522)

 4-5  2.498707209
     ( 1.322258907)

 Bond angles

  1-2-3  114.32570189   1-2-4  104.88537822   1-2-9  111.37471440   2-1-6  109.75049190

  2- 1- 7  110.80219525   2- 1- 8  110.33406972   2- 3-10  109.93930573   2- 3-11  110.25001839

  2- 3-12  110.02910212   2- 4- 5  110.68745572   3- 2- 4  109.02732703   3- 2- 9  110.80592757

  4-2-9  105.88078817   6-1-7  108.68656648   6-1-8  108.45397711   7-1-8  108.75868621

 10- 3-11  108.68013038  10- 3-12  108.80946320  11- 3-12  109.09848985

 NUCLEAR CHARGE:                   41
 NUMBER OF PRIMITIVE AOS:         354
 NUMBER OF SYMMETRY AOS:          322
 NUMBER OF CONTRACTIONS:          248   ( 248A   )
 NUMBER OF CORE ORBITALS:           5   (   5A   )
 NUMBER OF VALENCE ORBITALS:       27   (  27A   )


 NUCLEAR REPULSION ENERGY  186.68564780


 Eigenvalues of metric

         1 0.808E-03 0.957E-03 0.110E-02 0.124E-02 0.136E-02 0.151E-02 0.160E-02 0.164E-02


 Contracted 2-electron integrals neglected if value below      1.0D-16
 AO integral compression algorithm  1   Integral accuracy      1.0D-16

     3372.220 MB (compressed) written to integral file ( 82.1%)

     Node minimum: 1014.497 MB, node maximum: 1183.056 MB


 NUMBER OF SORTED TWO-ELECTRON INTEGRALS:  158903334.     BUFFER LENGTH:  32768
 NUMBER OF SEGMENTS:  10  SEGMENT LENGTH:   15997437      RECORD LENGTH: 524288

 Memory used in sort:      16.55 MW

 SORT1 READ   513527647. AND WROTE   152651721. INTEGRALS IN    442 RECORDS. CPU TIME:    19.93 SEC, REAL TIME:    20.89 SEC
 SORT2 READ   459432266. AND WROTE   476679126. INTEGRALS IN  11610 RECORDS. CPU TIME:     2.49 SEC, REAL TIME:    13.42 SEC

 Node minimum:   158882750.  Node maximum:   158903334. integrals

 OPERATOR DM      FOR CENTER  0  COORDINATES:    0.000000    0.000000    0.000000


 **********************************************************************************************************************************
 DATASETS  * FILE   NREC   LENGTH (MB)   RECORD NAMES
              1      18        5.04       500      610      700      900      950      970     1000      129      960     1100   
                                          VAR    BASINP    GEOM    SYMINP    ZMAT    AOBASIS   BASIS     P2S    ABASIS      S 
                                         1400     1410     1200     1210     1080     1600     1650     1700   
                                           T        V       H0       H01     AOSYM     SMH    MOLCAS    OPER   

 PROGRAMS   *        TOTAL       INT
 CPU TIMES  *        29.69     29.65
 REAL TIME  *        42.52 SEC
 DISK USED  *         8.92 GB      
 GA USED    *         0.01 MB       (max)       0.00 MB       (current)
 **********************************************************************************************************************************

1PROGRAM * RHF-SCF (OPEN SHELL)       Authors: W. Meyer, H.-J. Werner


 NUMBER OF ELECTRONS:      21+   20-    SPACE SYMMETRY=1    SPIN SYMMETRY: Doublet 
 CONVERGENCE THRESHOLDS:    1.00E-10 (Density)    1.00E-11 (Energy)
 MAX. NUMBER OF ITERATIONS:      200
 INTERPOLATION TYPE:            DIIS
 INTERPOLATION STEPS:              2 (START)      1 (STEP)
 LEVEL SHIFTS:                 -0.30 (CLOSED)  0.00 (OPEN) 



 Orbital guess generated from atomic densities. Full valence occupancy:   32

 Molecular orbital dump at record        2100.2

 ITERATION    DDIFF          GRAD             ENERGY        2-EL.EN.            DIPOLE MOMENTS         DIIS
    1      0.000D+00      0.000D+00      -267.26115529    559.916308   -1.76914   -0.06758   -0.09747    0
    2      0.000D+00      0.326D-02      -267.33467686    562.769713   -1.01169   -0.42934   -0.35942    1
    3      0.471D-02      0.229D-02      -267.36117383    561.720431   -1.18560   -0.24176   -0.21695    2
    4      0.211D-02      0.546D-03      -267.36940441    561.907061   -0.97478   -0.31476   -0.29790    3
    5      0.926D-03      0.484D-03      -267.37362268    561.949599   -0.91950   -0.31702   -0.30208    4
    6      0.583D-03      0.271D-03      -267.37554547    561.916626   -0.87825   -0.31047   -0.30000    5
    7      0.485D-03      0.133D-03      -267.37588221    561.902570   -0.88807   -0.29897   -0.29192    6
    8      0.258D-03      0.355D-04      -267.37590396    561.899773   -0.88773   -0.29568   -0.29041    7
    9      0.843D-04      0.188D-04      -267.37591471    561.900011   -0.89023   -0.29622   -0.29047    8
   10      0.445D-04      0.818D-05      -267.37591652    561.899920   -0.89138   -0.29559   -0.29018    9
   11      0.198D-04      0.319D-05      -267.37591676    561.899862   -0.89201   -0.29543   -0.29002    9
   12      0.781D-05      0.147D-05      -267.37591682    561.900087   -0.89215   -0.29552   -0.29006    9
   13      0.367D-05      0.525D-06      -267.37591683    561.900141   -0.89216   -0.29558   -0.29009    9
   14      0.148D-05      0.297D-06      -267.37591683    561.900140   -0.89215   -0.29560   -0.29009    9
   15      0.816D-06      0.146D-06      -267.37591683    561.900146   -0.89214   -0.29561   -0.29009    9
   16      0.415D-06      0.735D-07      -267.37591683    561.900150   -0.89214   -0.29561   -0.29010    9
   17      0.178D-06      0.349D-07      -267.37591683    561.900145   -0.89214   -0.29561   -0.29010    9
   18      0.123D-06      0.216D-07      -267.37591683    561.900143   -0.89214   -0.29561   -0.29009    9
   19      0.750D-07      0.135D-07      -267.37591683    561.900145   -0.89214   -0.29561   -0.29010    9
   20      0.730D-07      0.107D-07      -267.37591683    561.900144   -0.89214   -0.29561   -0.29009    9
   21      0.781D-07      0.879D-08      -267.37591683    561.900144   -0.89214   -0.29561   -0.29009    9
   22      0.105D-06      0.684D-08      -267.37591683    561.900146   -0.89213   -0.29561   -0.29009    9
   23      0.124D-06      0.394D-08      -267.37591683    561.900146   -0.89213   -0.29561   -0.29009    9
   24      0.800D-07      0.228D-08      -267.37591683    561.900146   -0.89213   -0.29561   -0.29009    9
   25      0.334D-07      0.974D-09      -267.37591683    561.900146   -0.89213   -0.29561   -0.29009    9
   26      0.135D-07      0.416D-09      -267.37591683    561.900147   -0.89213   -0.29561   -0.29009    9
   27      0.124D-08      0.199D-09      -267.37591683    561.900147   -0.89213   -0.29561   -0.29009    9
   28      0.645D-09      0.953D-10      -267.37591683    561.900147   -0.89213   -0.29561   -0.29009    9
   29      0.525D-09      0.514D-10      -267.37591683    561.900147   -0.89213   -0.29561   -0.29009    9
   30      0.205D-09      0.256D-10      -267.37591683    561.900147   -0.89213   -0.29561   -0.29009    9
   31      0.756D-10      0.221D-10      -267.37591683    561.900147   -0.89213   -0.29561   -0.29009    0

 Final alpha occupancy:  21
 Final beta  occupancy:  20

 !RHF STATE 1.1 Energy               -267.375916832446
 Nuclear energy                       186.68564780
 One-electron energy                 -735.01163792
 Two-electron energy                  280.95007329
 Virial quotient                       -1.00115979
 !RHF STATE 1.1 Dipole moment          -0.89213486    -0.29560671    -0.29009432
 Dipole moment /Debye                  -2.26743213    -0.75130809    -0.73729791

 Orbital energies:

         1.1          2.1          3.1          4.1          5.1          6.1          7.1          8.1          9.1         10.1
    -20.648541   -20.640293   -11.297425   -11.229052   -11.225462    -1.523879    -1.171002    -1.033904    -0.953314    -0.819310

        11.1         12.1         13.1         14.1         15.1         16.1         17.1         18.1         19.1         20.1
     -0.695368    -0.668067    -0.652578    -0.595102    -0.562639    -0.557769    -0.544542    -0.501459    -0.489575    -0.465125

        21.1         22.1         23.1
     -0.562672     0.137671     0.174860


 **********************************************************************************************************************************
 DATASETS  * FILE   NREC   LENGTH (MB)   RECORD NAMES
              1      18        5.04       500      610      700      900      950      970     1000      129      960     1100   
                                          VAR    BASINP    GEOM    SYMINP    ZMAT    AOBASIS   BASIS     P2S    ABASIS      S 
                                         1400     1410     1200     1210     1080     1600     1650     1700   
                                           T        V       H0       H01     AOSYM     SMH    MOLCAS    OPER   

              2       3        2.21       700     1000     2100   
                                         GEOM     BASIS     RHF  

 PROGRAMS   *        TOTAL       RHF       INT
 CPU TIMES  *        99.42     69.73     29.65
 REAL TIME  *       116.92 SEC
 DISK USED  *         8.96 GB      
 SF USED    *         0.25 MB      
 GA USED    *         0.01 MB       (max)       0.00 MB       (current)
 **********************************************************************************************************************************


1PROGRAM * CCSD (Unrestricted open-shell coupled cluster)     Authors: C. Hampel, H.-J. Werner, 1991, M. Deegan, P.J. Knowles, 1992


 Convergence thresholds:  THRVAR = 1.00D-08  THRDEN = 1.00D-10

 CCSD(T)     terms to be evaluated (factor= 1.000)


 Number of core orbitals:           5 (   5 )
 Number of closed-shell orbitals:  15 (  15 )
 Number of active  orbitals:        1 (   1 )
 Number of external orbitals:     227 ( 227 )

 Memory could be reduced to 332.02 Mwords without degradation in triples

 Number of N-1 electron functions:              31
 Number of N-2 electron functions:             465
 Number of singly external CSFs:              7068
 Number of doubly external CSFs:          18353430
 Total number of CSFs:                    18360498

 Molecular orbitals read from record     2100.2  Type=RHF/CANONICAL (state 1.1)

 Integral transformation finished. Total CPU:  40.84 sec, npass=  1  Memory used: 145.25 MW

 Starting RMP2 calculation

 ITER.      SQ.NORM     CORR.ENERGY   TOTAL ENERGY   ENERGY CHANGE        DEN1      VAR(S)    VAR(P)  DIIS     TIME
   1      1.26534789    -0.96761751  -268.34353435    -0.96761751    -0.00323623  0.26D-04  0.11D-02  1  1    46.75
   2      1.26813264    -0.97110693  -268.34702377    -0.00348942    -0.00000667  0.10D-05  0.23D-05  2  2    50.85
   3      1.26821262    -0.97115986  -268.34707669    -0.00005293    -0.00000008  0.54D-07  0.11D-07  3  3    55.03
   4      1.26821433    -0.97115967  -268.34707650     0.00000019    -0.00000000  0.16D-08  0.12D-09  4  4    59.49
   5      1.26821459    -0.97115976  -268.34707659    -0.00000009    -0.00000000  0.19D-10  0.46D-11  5  5    63.64
   6      1.26821464    -0.97115979  -268.34707662    -0.00000003    -0.00000000  0.50D-13  0.56D-13  6  6    67.79
   7      1.26821464    -0.97115979  -268.34707662     0.00000000    -0.00000000  0.15D-14  0.86D-15  6  1    71.98
   8      1.26821464    -0.97115979  -268.34707662     0.00000000    -0.00000000  0.16D-16  0.80D-17  6  2    76.01
   9      1.26821464    -0.97115979  -268.34707662    -0.00000000    -0.00000000  0.31D-18  0.10D-18  6  3    80.19

 Norm of t1 vector:      0.04590672      S-energy:    -0.00446925      T1 diagnostic:  0.00074439
 Norm of t2 vector:      0.51585581      P-energy:    -0.96669054
                                         Alpha-Beta:  -0.73707983
                                         Alpha-Alpha: -0.11899197
                                         Beta-Beta:   -0.11061874

 Spin contamination <S**2-Sz**2-Sz>     0.00145507
  Reference energy                   -267.375916832444
  RHF-RMP2 correlation energy          -0.971159790003
 !RHF-RMP2 energy                    -268.347076622447

 Starting UCCSD calculation

 ITER.      SQ.NORM     CORR.ENERGY   TOTAL ENERGY   ENERGY CHANGE        DEN1      VAR(S)    VAR(P)  DIIS     TIME
   1      1.27981690    -0.97926921  -268.35518604    -0.97926921    -0.02933088  0.65D-02  0.54D-02  1  1   174.14
   2      1.30621982    -1.00589338  -268.38181021    -0.02662417    -0.00363409  0.62D-03  0.97D-03  2  2   267.57
   3      1.32286694    -1.01271720  -268.38863403    -0.00682382    -0.00091156  0.75D-03  0.76D-04  3  3   362.45
   4      1.33410400    -1.01537609  -268.39129292    -0.00265889    -0.00038483  0.31D-03  0.33D-04  4  4   476.48
   5      1.34916740    -1.01737206  -268.39328889    -0.00199597    -0.00011776  0.10D-03  0.90D-05  5  5   606.11
   6      1.36068484    -1.01839390  -268.39431073    -0.00102183    -0.00001808  0.92D-05  0.32D-05  6  6   734.75
   7      1.36436600    -1.01863390  -268.39455073    -0.00024000    -0.00000315  0.16D-05  0.61D-06  6  1   865.17
   8      1.36496874    -1.01867593  -268.39459276    -0.00004203    -0.00000067  0.27D-06  0.15D-06  6  2   995.69
   9      1.36528849    -1.01869432  -268.39461115    -0.00001839    -0.00000015  0.66D-07  0.32D-07  6  4  1124.71
  10      1.36527503    -1.01869304  -268.39460988     0.00000127    -0.00000002  0.11D-07  0.43D-08  6  3  1243.37
  11      1.36533769    -1.01869816  -268.39461499    -0.00000511    -0.00000001  0.27D-08  0.95D-09  6  5  1365.43
  12      1.36533019    -1.01869567  -268.39461250     0.00000249    -0.00000000  0.13D-08  0.22D-09  6  6  1482.66
  13      1.36532576    -1.01869450  -268.39461133     0.00000117    -0.00000000  0.84D-09  0.64D-10  6  1  1597.92
  14      1.36531256    -1.01869295  -268.39460979     0.00000155    -0.00000000  0.59D-09  0.29D-10  6  2  1703.41
  15      1.36530590    -1.01869216  -268.39460899     0.00000080    -0.00000000  0.48D-09  0.23D-10  6  3  1808.51
  16      1.36530254    -1.01869199  -268.39460882     0.00000017    -0.00000000  0.33D-09  0.19D-10  6  4  1918.56
  17      1.36530245    -1.01869205  -268.39460888    -0.00000006    -0.00000000  0.15D-09  0.19D-10  6  5  2028.83
  18      1.36530623    -1.01869229  -268.39460913    -0.00000025    -0.00000000  0.29D-10  0.64D-11  6  6  2134.92
  19      1.36530966    -1.01869264  -268.39460947    -0.00000034    -0.00000000  0.25D-11  0.18D-11  6  2  2227.45
  20      1.36530908    -1.01869250  -268.39460933     0.00000014    -0.00000000  0.60D-12  0.17D-12  6  1  2320.62
  21      1.36530935    -1.01869254  -268.39460938    -0.00000004    -0.00000000  0.21D-12  0.60D-13  6  4  2413.86
  22      1.36530930    -1.01869254  -268.39460937     0.00000001    -0.00000000  0.60D-13  0.14D-13  6  3  2507.36
  23      1.36530932    -1.01869254  -268.39460938    -0.00000001    -0.00000000  0.17D-13  0.57D-14  6  6  2600.86
  24      1.36530932    -1.01869254  -268.39460937     0.00000000    -0.00000000  0.41D-14  0.98D-15  6  5  2694.18
  25      1.36530933    -1.01869254  -268.39460937     0.00000000    -0.00000000  0.91D-15  0.28D-15  6  1  2787.55
  26      1.36530934    -1.01869254  -268.39460937    -0.00000000    -0.00000000  0.15D-15  0.54D-16  6  2  2881.24
  27      1.36530935    -1.01869254  -268.39460937    -0.00000000    -0.00000000  0.44D-16  0.16D-16  6  3  2974.39
  28      1.36530935    -1.01869254  -268.39460938    -0.00000000    -0.00000000  0.14D-16  0.61D-17  6  4  3068.13
  29      1.36530935    -1.01869254  -268.39460938    -0.00000000    -0.00000000  0.31D-17  0.64D-18  6  6  3161.63
  30      1.36530935    -1.01869254  -268.39460938     0.00000000    -0.00000000  0.91D-18  0.27D-18  6  2  3254.80

 Norm of t1 vector:      0.23114405      S-energy:    -0.00501590      T1 diagnostic:  0.02848214
                                                                       D1 diagnostic:  0.14594867
 Norm of t2 vector:      0.55846376      P-energy:    -1.01367664
                                         Alpha-Beta:  -0.80136365
                                         Alpha-Alpha: -0.10868662
                                         Beta-Beta:   -0.10362638

 Singles amplitudes (print threshold =  0.500E-01):

         I         SYM. A    A   T(IA) [Beta-Beta]

         8         1         1     -0.09621335
         9         1         1      0.09865013
        11         1         1     -0.05297444
        12         1         1     -0.07606137
        14         1         1     -0.11067545

 Spin contamination <S**2-Sz**2-Sz>     0.00176210

 Memory could be reduced to 360.52 Mwords without degradation in triples
 

 RESULTS
 =======

  Reference energy                   -267.375916832444
  UCCSD singles energy                 -0.005015897789
  UCCSD pair energy                    -1.013676644903
  UCCSD correlation energy             -1.018692542692
  Triples (T) contribution             -0.040831922060
  Total correlation energy             -1.059524464752
 
  RHF-UCCSD energy                   -268.394609375135
  RHF-UCCSD[T] energy                -268.438760199143
  RHF-UCCSD-T energy                 -268.434944245899
 !RHF-UCCSD(T) energy                -268.435441297195

 Program statistics:

 Available memory in ccsd:               999997692
 Min. memory needed in ccsd:              51505734
 Max. memory used in ccsd:                74803578
 Max. memory used in cckext:              59475747 (30 integral passes)
 Max. memory used in cckint:             145249478 ( 1 integral passes)



 **********************************************************************************************************************************
 DATASETS  * FILE   NREC   LENGTH (MB)   RECORD NAMES
              1      18        5.04       500      610      700      900      950      970     1000      129      960     1100   
                                          VAR    BASINP    GEOM    SYMINP    ZMAT    AOBASIS   BASIS     P2S    ABASIS      S 
                                         1400     1410     1200     1210     1080     1600     1650     1700   
                                           T        V       H0       H01     AOSYM     SMH    MOLCAS    OPER   

              2       3        2.21       700     1000     2100   
                                         GEOM     BASIS     RHF  

 PROGRAMS   *        TOTAL  UCCSD(T)       RHF       INT
 CPU TIMES  *      5333.22   5233.80     69.73     29.65
 REAL TIME  *      5461.36 SEC
 DISK USED  *        15.94 GB      
 SF USED    *         6.57 GB      
 GA USED    *         0.01 MB       (max)       0.00 MB       (current)
 **********************************************************************************************************************************

        UCCSD(T)        RHF-SCF 
   -268.43544130   -267.37591683
 **********************************************************************************************************************************
 Variable memory released
