
 Primary working directories    : /tmp/795519.93.gen6.q
 Secondary working directories  : /tmp/795519.93.gen6.q
 Wavefunction directory         : /home/vulcan/mel64643/wfu/
 Main file repository           : /tmp/795519.93.gen6.q/

 ARCHNAME  : Linux/x86_64
 FC        : /opt/intel/compilers_and_libraries_2016.1.150/linux/bin/intel64/ifort
 FCVERSION : 16.0.1
 BLASLIB   : -mkl
 id        : ccgc

 Nodes     nprocs
 n079         1
 ga_uses_ma=false, calling ma_init with nominal heap.
 GA-space will be limited to   8.0 MW (determined by -G option)

 Using customized tuning parameters: mindgm=10; mindgv=16; mindgc=4; mindgr=1; noblas=0; mincuda=1000; minvec=7
 default implementation of scratch files=df  

 ***,Optimization of min3
 memory,1000,m
 gthresh,energy=1.0d-12,orbital=1.0d-10,oneint=1.0d-16,twoint=1.0d-16,optgrad=1.0d-6,compress=1.0d-13
 geomtyp=xyz
 
  bohr
  geometry = {
  6
  arbitrary comment
  C   -1.3748936709   -0.0268574755    0.0000002250
  O    1.3067119398    0.1157192149    0.0000004012
  H   -2.0796698376    1.9159748758   -0.0000801243
  H   -2.1080810906   -0.9805232332    1.6782104407
  H   -2.1080741441   -0.9806541600   -1.6781380616
  H    1.9402826434   -1.5737913421   -0.0000012909
 }
 
 basis=cc-pvdz
 {rhf;maxit,200}
 {ccsd(t);maxit,200}

 Variables initialized (661), CPU time= 0.00 sec
 Commands  initialized (458), CPU time= 0.01 sec, 486 directives.
 Default parameters read. Elapsed time= 0.05 sec

 Checking input...
 Passed
1


                                         ***  PROGRAM SYSTEM MOLPRO  ***
                         Copyright, University College Cardiff Consultants Limited, 2008

                                    Version 2010.1 linked May 16 2016 07:17:05


 **********************************************************************************************************************************
 LABEL *   Optimization of min3                                                          
 Linux-4.4.3/n079(x86_64) 64 bit mpp version                                             DATE: 24-Oct-22          TIME: 15:42:50  
 **********************************************************************************************************************************

 SHA1:             9e8077add272b0f3cad6f7df79ec5211205f459d
 **********************************************************************************************************************************

 THRESHOLDS:

 ZERO    =  1.00D-12  ONEINT  =  1.00D-16  TWOINT  =  1.00D-16  PREFAC  =  1.00D-14  LOCALI  =  1.00D-09  EORDER  =  1.00D-04
 ENERGY  =  1.00D-12  ETEST   =  0.00D+00  EDENS   =  0.00D+00  THRDEDEF=  1.00D-06  GRADIENT=  1.00D-02  STEP    =  1.00D-03
 ORBITAL =  1.00D-10  CIVEC   =  1.00D-05  COEFF   =  1.00D-04  PRINTCI =  5.00D-02  PUNCHCI =  9.90D+01  OPTGRAD =  1.00D-06
 OPTENERG=  1.00D-06  OPTSTEP =  3.00D-04  THRGRAD =  1.00D-10  COMPRESS=  1.00D-13  VARMIN  =  1.00D-07  VARMAX  =  1.00D-03
 THRDOUB =  0.00D+00  THRDIV  =  1.00D-05  THRRED  =  1.00D-07  THRPSP  =  1.00D+00  THRDC   =  1.00D-10  THRCS   =  1.00D-10
 THRNRM  =  1.00D-08  THREQ   =  0.00D+00  THRDE   =  1.00D+00  THRREF  =  1.00D-05  SPARFAC =  1.00D+00  THRDLP  =  1.00D-07
 THRDIA  =  1.00D-10  THRDLS  =  1.00D-07  THRGPS  =  0.00D+00  THRKEX  =  0.00D+00  THRDIS  =  2.00D-01  THRVAR  =  1.00D-10
 THRLOC  =  1.00D-06  THRGAP  =  1.00D-06  THRLOCT = -1.00D+00  THRGAPT = -1.00D+00  THRORB  =  1.00D-06  THRMLTP =  0.00D+00
 THRCPQCI=  1.00D-10  KEXTA   =  0.00D+00  THRCOARS=  0.00D+00  SYMTOL  =  1.00D-06  GRADTOL =  1.00D-06  THROVL  =  1.00D-08
 THRORTH =  1.00D-08  GRID    =  1.00D-06  GRIDMAX =  1.00D-03  DTMAX   =  0.00D+00

 SETTING GEOMTYP        =    XYZ
 ZUNIT=BOHR
 

 Variable memory set to 1000000000 words,  buffer space   230000 words

 SETTING BASIS          =    CC-PVDZ


 Recomputing integrals since basis changed


 Using spherical harmonics

 Library entry C      S cc-pVDZ              selected for orbital group  1
 Library entry C      P cc-pVDZ              selected for orbital group  1
 Library entry C      D cc-pVDZ              selected for orbital group  1
 Library entry O      S cc-pVDZ              selected for orbital group  2
 Library entry O      P cc-pVDZ              selected for orbital group  2
 Library entry O      D cc-pVDZ              selected for orbital group  2
 Library entry H      S cc-pVDZ              selected for orbital group  3
 Library entry H      P cc-pVDZ              selected for orbital group  3

1PROGRAM * SEWARD (Integral evaluation for generally contracted gaussian basis sets)     Author: Roland Lindh, 1990

 Geometry written to block  1 of record 700


 Point group  C1  



 ATOMIC COORDINATES

 NR  ATOM    CHARGE       X              Y              Z

   1  C       6.00   -1.374893671   -0.026857475    0.000000225
   2  O       8.00    1.306711940    0.115719215    0.000000401
   3  H       1.00   -2.079669838    1.915974876   -0.000080124
   4  H       1.00   -2.108081091   -0.980523233    1.678210441
   5  H       1.00   -2.108074144   -0.980654160   -1.678138062
   6  H       1.00    1.940282643   -1.573791342   -0.000001291

 Bond lengths in Bohr (Angstrom)

 1-2  2.685393223  1-3  2.066714058  1-4  2.064807908  1-5  2.064807456  2-6  1.804399556
     ( 1.421048891)     ( 1.093657977)     ( 1.092649286)     ( 1.092649047)     ( 0.954847121)

 Bond angles

  1-2-6  107.51271194   2-1-3  106.89513831   2-1-4  112.27848181   2-1-5  112.27849399

  3-1-4  108.24758885   3-1-5  108.24744574   4-1-5  108.73115362

 NUCLEAR CHARGE:                   18
 NUMBER OF PRIMITIVE AOS:          82
 NUMBER OF SYMMETRY AOS:           80
 NUMBER OF CONTRACTIONS:           48   (  48A   )
 NUMBER OF CORE ORBITALS:           2   (   2A   )
 NUMBER OF VALENCE ORBITALS:       12   (  12A   )


 NUCLEAR REPULSION ENERGY   40.32518216


 Eigenvalues of metric

         1 0.966E-02 0.176E-01 0.369E-01 0.372E-01 0.381E-01 0.472E-01 0.477E-01 0.519E-01


 Contracted 2-electron integrals neglected if value below      1.0D-16
 AO integral compression algorithm  1   Integral accuracy      1.0D-16

     6.554 MB (compressed) written to integral file ( 94.6%)

     Node minimum: 6.554 MB, node maximum: 6.554 MB


 NUMBER OF SORTED TWO-ELECTRON INTEGRALS:     692076.     BUFFER LENGTH:  32768
 NUMBER OF SEGMENTS:   1  SEGMENT LENGTH:     692076      RECORD LENGTH: 524288

 Memory used in sort:       1.25 MW

 SORT1 READ      832256. AND WROTE      682148. INTEGRALS IN      2 RECORDS. CPU TIME:     0.00 SEC, REAL TIME:     0.01 SEC
 SORT2 READ      682148. AND WROTE      692076. INTEGRALS IN     25 RECORDS. CPU TIME:     0.02 SEC, REAL TIME:     0.02 SEC

 FILE SIZES:   FILE 1:     8.0 MBYTE,  FILE 4:     8.4 MBYTE,   TOTAL:     16.4 MBYTE

 OPERATOR DM      FOR CENTER  0  COORDINATES:    0.000000    0.000000    0.000000


 **********************************************************************************************************************************
 DATASETS  * FILE   NREC   LENGTH (MB)   RECORD NAMES
              1      19        8.03       500      610      700      900      950      970     1000      129      960     1100   
                                          VAR    BASINP    GEOM    SYMINP    ZMAT    AOBASIS   BASIS     P2S    ABASIS      S 
                                         1400     1410     1200     1210     1080     1600     1650     1300     1700   
                                           T        V       H0       H01     AOSYM     SMH    MOLCAS    ERIS     OPER   

 PROGRAMS   *        TOTAL       INT
 CPU TIMES  *         0.18      0.14
 REAL TIME  *         0.38 SEC
 DISK USED  *        23.60 MB      
 GA USED    *         0.00 MB       (max)       0.00 MB       (current)
 **********************************************************************************************************************************

1PROGRAM * RHF-SCF (CLOSED SHELL)       Authors: W. Meyer, H.-J. Werner


 NUMBER OF ELECTRONS:       9+    9-    SPACE SYMMETRY=1    SPIN SYMMETRY: Singlet 
 CONVERGENCE THRESHOLDS:    1.00E-10 (Density)    1.00E-13 (Energy)
 MAX. NUMBER OF ITERATIONS:      200
 INTERPOLATION TYPE:            DIIS
 INTERPOLATION STEPS:              2 (START)      1 (STEP)
 LEVEL SHIFTS:                  0.00 (CLOSED)  0.00 (OPEN) 



 Orbital guess generated from atomic densities. Full valence occupancy:   14

 Molecular orbital dump at record        2100.2

 ITERATION    DDIFF          GRAD             ENERGY        2-EL.EN.            DIPOLE MOMENTS         DIIS
    1      0.000D+00      0.000D+00      -115.01442846    164.409149   -0.49859   -0.89335   -0.00000    0
    2      0.000D+00      0.110D-01      -115.04272333    162.200893   -0.31810   -0.53521   -0.00000    1
    3      0.205D-01      0.529D-02      -115.04872649    163.220058   -0.40155   -0.60994   -0.00000    2
    4      0.638D-02      0.112D-02      -115.04918655    163.065028   -0.39110   -0.59957   -0.00000    3
    5      0.204D-02      0.200D-03      -115.04920711    163.071331   -0.39377   -0.59550   -0.00000    4
    6      0.430D-03      0.349D-04      -115.04920788    163.071458   -0.39403   -0.59535   -0.00000    5
    7      0.919D-04      0.720D-05      -115.04920790    163.070287   -0.39415   -0.59519   -0.00000    6
    8      0.147D-04      0.232D-05      -115.04920791    163.070659   -0.39418   -0.59517   -0.00000    7
    9      0.492D-05      0.479D-06      -115.04920791    163.070618   -0.39419   -0.59517   -0.00000    6
   10      0.137D-05      0.831D-07      -115.04920791    163.070617   -0.39419   -0.59517   -0.00000    6
   11      0.226D-06      0.312D-07      -115.04920791    163.070622   -0.39419   -0.59517   -0.00000    6
   12      0.563D-07      0.126D-07      -115.04920791    163.070620   -0.39419   -0.59517   -0.00000    7
   13      0.232D-07      0.285D-08      -115.04920791    163.070621   -0.39419   -0.59517   -0.00000    7
   14      0.704D-08      0.624D-09      -115.04920791    163.070621   -0.39419   -0.59517   -0.00000    7
   15      0.160D-08      0.142D-09      -115.04920791    163.070621   -0.39419   -0.59517   -0.00000    7
   16      0.314D-09      0.420D-10      -115.04920791    163.070621   -0.39419   -0.59517   -0.00000    7
   17      0.814D-10      0.138D-10      -115.04920791    163.070621   -0.39419   -0.59517   -0.00000    0

 Final occupancy:   9

 !RHF STATE 1.1 Energy               -115.049207907900
 Nuclear energy                        40.32518216
 One-electron energy                 -236.90970040
 Two-electron energy                   81.53531033
 Virial quotient                       -1.00086309
 !RHF STATE 1.1 Dipole moment          -0.39419336    -0.59517066    -0.00000284
 Dipole moment /Debye                  -1.00187396    -1.51267384    -0.00000723

 Orbital energies:

         1.1          2.1          3.1          4.1          5.1          6.1          7.1          8.1          9.1         10.1
    -20.549437   -11.274836    -1.350774    -0.921657    -0.683806    -0.614157    -0.584425    -0.497044    -0.443404     0.184881

        11.1
      0.224729


 **********************************************************************************************************************************
 DATASETS  * FILE   NREC   LENGTH (MB)   RECORD NAMES
              1      19        8.03       500      610      700      900      950      970     1000      129      960     1100   
                                          VAR    BASINP    GEOM    SYMINP    ZMAT    AOBASIS   BASIS     P2S    ABASIS      S 
                                         1400     1410     1200     1210     1080     1600     1650     1300     1700   
                                           T        V       H0       H01     AOSYM     SMH    MOLCAS    ERIS     OPER   

              2       3        0.39       700     1000     2100   
                                         GEOM     BASIS     RHF  

 PROGRAMS   *        TOTAL       RHF       INT
 CPU TIMES  *         0.25      0.07      0.14
 REAL TIME  *         0.48 SEC
 DISK USED  *        23.60 MB      
 GA USED    *         0.00 MB       (max)       0.00 MB       (current)
 **********************************************************************************************************************************


1PROGRAM * CCSD (Closed-shell coupled cluster)     Authors: C. Hampel, H.-J. Werner, 1991, M. Deegan, P.J. Knowles, 1992


 Convergence thresholds:  THRVAR = 1.00D-08  THRDEN = 1.00D-12

 CCSD(T)     terms to be evaluated (factor= 1.000)


 Number of core orbitals:           2 (   2 )
 Number of closed-shell orbitals:   7 (   7 )
 Number of external orbitals:      39 (  39 )

 Molecular orbitals read from record     2100.2  Type=RHF/CANONICAL (state 1.1)

 Number of N-1 electron functions:               7
 Number of N-2 electron functions:              28
 Number of singly external CSFs:               273
 Number of doubly external CSFs:             37401
 Total number of CSFs:                       37675

 Length of J-op  integral file:               0.00 MB
 Length of K-op  integral file:               0.19 MB
 Length of 3-ext integral record:             0.00 MB

 Memory could be reduced to 0.96 Mwords without degradation in triples

 Integral transformation finished. Total CPU:   0.01 sec, npass=  1  Memory used:   0.66 MW

 Reference energy:                   -115.04920791

 MP2 singlet pair energy:              -0.21852043
 MP2 triplet pair energy:              -0.11977295
 MP2 correlation energy:               -0.33829338
 MP2 total energy:                   -115.38750129

 SCS-MP2 correlation energy:           -0.33674990   (PS=  1.200000  PT=  0.333333)
 SCS-MP2 total energy:               -115.38595781

 ITER.      SQ.NORM     CORR.ENERGY   TOTAL ENERGY   ENERGY CHANGE        DEN1      VAR(S)    VAR(P)  DIIS     TIME
   1      1.10721156    -0.36111178  -115.41031969    -0.02281840    -0.01415627  0.91D-03  0.17D-02  1  1     0.04
   2      1.11571650    -0.36305209  -115.41226000    -0.00194031    -0.00923494  0.20D-04  0.16D-03  2  2     0.08
   3      1.11758697    -0.36317902  -115.41238693    -0.00012693    -0.00119799  0.94D-05  0.85D-05  3  3     0.11
   4      1.11809881    -0.36317759  -115.41238550     0.00000143    -0.00025358  0.33D-06  0.67D-06  4  4     0.14
   5      1.11819613    -0.36317799  -115.41238590    -0.00000040    -0.00003583  0.97D-07  0.49D-07  5  5     0.17
   6      1.11821491    -0.36317665  -115.41238456     0.00000134    -0.00000432  0.15D-07  0.40D-08  6  6     0.21
   7      1.11821957    -0.36317623  -115.41238414     0.00000042    -0.00000035  0.20D-08  0.70D-09  6  1     0.24
   8      1.11822081    -0.36317633  -115.41238424    -0.00000010     0.00000074  0.25D-09  0.70D-10  6  3     0.27
   9      1.11822185    -0.36317621  -115.41238412     0.00000012    -0.00000038  0.12D-10  0.10D-10  6  2     0.30
  10      1.11822178    -0.36317621  -115.41238412    -0.00000000     0.00000007  0.11D-11  0.86D-12  6  5     0.34
  11      1.11822181    -0.36317621  -115.41238412     0.00000000    -0.00000000  0.18D-12  0.49D-13  6  4     0.37
  12      1.11822180    -0.36317621  -115.41238412    -0.00000000     0.00000001  0.18D-13  0.97D-14  6  1     0.40
  13      1.11822180    -0.36317621  -115.41238412    -0.00000000    -0.00000000  0.23D-14  0.91D-15  6  6     0.43
  14      1.11822180    -0.36317621  -115.41238412     0.00000000    -0.00000000  0.22D-15  0.12D-15  6  3     0.47
  15      1.11822180    -0.36317621  -115.41238412    -0.00000000    -0.00000000  0.24D-16  0.16D-16  6  2     0.50
  16      1.11822180    -0.36317621  -115.41238412    -0.00000000    -0.00000000  0.54D-17  0.16D-17  6  5     0.53
  17      1.11822180    -0.36317621  -115.41238412    -0.00000000    -0.00000000  0.52D-18  0.24D-18  6  4     0.57
  18      1.11822180    -0.36317621  -115.41238412     0.00000000    -0.00000000  0.80D-19  0.41D-19  6  1     0.60
  19      1.11822180    -0.36317621  -115.41238412    -0.00000000    -0.00000000  0.89D-20  0.41D-20  6  6     0.63
  20      1.11822180    -0.36317621  -115.41238412     0.00000000     0.00000000  0.12D-20  0.53D-21  6  3     0.66

 Norm of t1 vector:      0.04153427      S-energy:    -0.00000000      T1 diagnostic:  0.00784924
                                                                       D1 diagnostic:  0.01749679


 Total CPU time for triples:      0.17 sec


 RESULTS
 =======

  Reference energy                   -115.049207907900
  CCSD singlet pair energy             -0.254445984195
  CCSD triplet pair energy             -0.108730229790
  CCSD correlation energy              -0.363176213985

  Triples (T) contribution             -0.007723020894
  Total correlation energy             -0.370899234879

  CCSD total energy                  -115.412384121886
  CCSD[T] energy                     -115.420396137881
  CCSD-T energy                      -115.419957617086
 !CCSD(T) total energy               -115.420107142779

 Timing summary (sec):

 STEP                 CPU(USER)    SYS     CPU(TOT)    WALL
 Transformation          0.02      0.01      0.03      0.02
 CCSD iterations         0.64      0.03      0.67      0.71
 Triples                 0.17      0.00      0.17      0.17

 Program statistics:

 Available memory in ccsd:               999999704
 Min. memory needed in ccsd:                136801
 Max. memory used in ccsd:                  163198
 Max. memory used in cckext:                182024 (20 integral passes)



 **********************************************************************************************************************************
 DATASETS  * FILE   NREC   LENGTH (MB)   RECORD NAMES
              1      20       10.57       500      610      700      900      950      970     1000      129      960     1100   
                                          VAR    BASINP    GEOM    SYMINP    ZMAT    AOBASIS   BASIS     P2S    ABASIS      S 
                                         1400     1410     1200     1210     1080     1600     1650     1300     1700     1380   
                                           T        V       H0       H01     AOSYM     SMH    MOLCAS    ERIS     OPER     JKOP   

              2       3        0.39       700     1000     2100   
                                         GEOM     BASIS     RHF  

 PROGRAMS   *        TOTAL   CCSD(T)       RHF       INT
 CPU TIMES  *         1.09      0.84      0.07      0.14
 REAL TIME  *         1.40 SEC
 DISK USED  *        25.03 MB      
 GA USED    *         0.00 MB       (max)       0.00 MB       (current)
 **********************************************************************************************************************************

        CCSD(T)         RHF-SCF 
   -115.42010714   -115.04920791
 **********************************************************************************************************************************
 Variable memory released
