
    -----------------------------------------------------------------------
          Psi4: An Open-Source Ab Initio Electronic Structure Package
                               Psi4 1.4a2.dev629 

                         Git: Rev {master} 2938fc2 dirty


    D. G. A. Smith, L. A. Burns, A. C. Simmonett, R. M. Parrish,
    M. C. Schieber, R. Galvelis, P. Kraus, H. Kruse, R. Di Remigio,
    A. Alenaizan, A. M. James, S. Lehtola, J. P. Misiewicz, M. Scheurer,
    R. A. Shaw, J. B. Schriber, Y. Xie, Z. L. Glick, D. A. Sirianni,
    J. S. O'Brien, J. M. Waldrop, A. Kumar, E. G. Hohenstein,
    B. P. Pritchard, B. R. Brooks, H. F. Schaefer III, A. Yu. Sokolov,
    K. Patkowski, A. E. DePrince III, U. Bozkaya, R. A. King,
    F. A. Evangelista, J. M. Turney, T. D. Crawford, C. D. Sherrill,
    J. Chem. Phys. 152(18) 184108 (2020). https://doi.org/10.1063/5.0006002

                            Additional Code Authors
    E. T. Seidl, C. L. Janssen, E. F. Valeev, M. L. Leininger,
    J. F. Gonthier, R. M. Richard, H. R. McAlexander, M. Saitow, X. Wang,
    P. Verma, and M. H. Lechner

             Previous Authors, Complete List of Code Contributors,
                       and Citations for Specific Modules
    https://github.com/psi4/psi4/blob/master/codemeta.json
    https://github.com/psi4/psi4/graphs/contributors
    http://psicode.org/psi4manual/master/introduction.html#citing-psifour

    -----------------------------------------------------------------------


    Psi4 started on: Saturday, 19 September 2020 05:49PM

    Process ID: 18849
    Host:       n004
    PSIDATADIR: /opt/psi/4/master/share/psi4
    Memory:     500.0 MiB
    Threads:    1
    
  ==> Input File <==

--------------------------------------------------------------------------
# o-Benzyne preliminary computations

memory 14 gb

molecule {
  0 1
  C   -1.3702187096   -0.0225158171    0.0000039317
  O    1.3034429371    0.1210247813    0.0000030369
  H   -2.0756025187    1.9033374493   -0.0009194323
  H   -2.1003942729   -0.9753464498    1.6764828090
  H   -2.1003101483   -0.9768575601   -1.6756518775
  H    1.9362184724   -1.5747808636   -0.0000114578
  units bohr
}

set {
  basis=cc-pVTZ
  reference rhf
  e_convergence 10 
  d_convergence 10
  r_convergence 8
  maxiter 300
}

energy('ccsd(t)')
--------------------------------------------------------------------------

  Memory set to  13.039 GiB by Python driver.

Scratch directory: /tmp/

*** tstart() called on n004
*** at Sat Sep 19 17:50:00 2020

   => Loading Basis Set <=

    Name: CC-PVTZ
    Role: ORBITAL
    Keyword: BASIS
    atoms 1   entry C          line   186 file /opt/psi/4/master/share/psi4/basis/cc-pvtz.gbs 
    atoms 2   entry O          line   262 file /opt/psi/4/master/share/psi4/basis/cc-pvtz.gbs 
    atoms 3-6 entry H          line    23 file /opt/psi/4/master/share/psi4/basis/cc-pvtz.gbs 


         ---------------------------------------------------------
                                   SCF
               by Justin Turney, Rob Parrish, Andy Simmonett
                          and Daniel G. A. Smith
                              RHF Reference
                        1 Threads,  13351 MiB Core
         ---------------------------------------------------------

  ==> Geometry <==

    Molecular point group: c1
    Full point group: C1

    Geometry (in Bohr), charge = 0, multiplicity = 1:

       Center              X                  Y                   Z               Mass       
    ------------   -----------------  -----------------  -----------------  -----------------
         C           -1.371211152066    -0.023428779220     0.000004087367    12.000000000000
         O            1.302450494634     0.120111819180     0.000003192567    15.994914619570
         H           -2.076594961166     1.902424487180    -0.000919276633     1.007825032230
         H           -2.101386715366    -0.976259411920     1.676482964667     1.007825032230
         H           -2.101302590766    -0.977770522220    -1.675651721833     1.007825032230
         H            1.935226029934    -1.575693825720    -0.000011302133     1.007825032230

  Running in c1 symmetry.

  Rotational constants: A =      4.30812  B =      0.83173  C =      0.80236 [cm^-1]
  Rotational constants: A = 129154.25242  B =  24934.51701  C =  24054.22691 [MHz]
  Nuclear repulsion =   40.420252686363924

  Charge       = 0
  Multiplicity = 1
  Electrons    = 18
  Nalpha       = 9
  Nbeta        = 9

  ==> Algorithm <==

  SCF Algorithm Type is PK.
  DIIS enabled.
  MOM disabled.
  Fractional occupation disabled.
  Guess Type is SAD.
  Energy threshold   = 1.00e-10
  Density threshold  = 1.00e-10
  Integral threshold = 0.00e+00

  ==> Primary Basis <==

  Basis Set: CC-PVTZ
    Blend: CC-PVTZ
    Number of shells: 44
    Number of basis function: 116
    Number of Cartesian functions: 130
    Spherical Harmonics?: true
    Max angular momentum: 3

  ==> Integral Setup <==

  Using in-core PK algorithm.
   Calculation information:
      Number of atoms:                   6
      Number of AO shells:              44
      Number of primitives:             84
      Number of atomic orbitals:       130
      Number of basis functions:       116

      Integral cutoff                 1.00e-12
      Number of threads:                 1

  Performing in-core PK
  Using 46056582 doubles for integral storage.
  We computed 490499 shell quartets total.
  Whereas there are 490545 unique shell quartets.

  ==> DiskJK: Disk-Based J/K Matrices <==

    J tasked:                  Yes
    K tasked:                  Yes
    wK tasked:                  No
    Memory [MiB]:            10013
    Schwarz Cutoff:          1E-12

    OpenMP threads:              1

  Minimum eigenvalue in the overlap matrix is 1.8297998580E-03.
  Reciprocal condition number of the overlap matrix is 2.7581037636E-04.
    Using symmetric orthogonalization.

  ==> Pre-Iterations <==

  SCF Guess: Superposition of Atomic Densities via on-the-fly atomic UHF (no occupation information).

   -------------------------
    Irrep   Nso     Nmo    
   -------------------------
     A        116     116 
   -------------------------
    Total     116     116
   -------------------------

  ==> Iterations <==

                        Total Energy        Delta E     RMS |[F,P]|

   @RHF iter SAD:  -114.42781360090154   -1.14428e+02   0.00000e+00 
   @RHF iter   1:  -115.01459998883782   -5.86786e-01   3.41825e-03 DIIS
   @RHF iter   2:  -115.07167957269503   -5.70796e-02   1.94989e-03 DIIS
   @RHF iter   3:  -115.08843235640263   -1.67528e-02   3.01186e-04 DIIS
   @RHF iter   4:  -115.08931479699591   -8.82441e-04   8.77789e-05 DIIS
   @RHF iter   5:  -115.08938805591947   -7.32589e-05   2.13494e-05 DIIS
   @RHF iter   6:  -115.08939287504876   -4.81913e-06   4.71525e-06 DIIS
   @RHF iter   7:  -115.08939323894850   -3.63900e-07   1.09218e-06 DIIS
   @RHF iter   8:  -115.08939326022167   -2.12732e-08   2.25757e-07 DIIS
   @RHF iter   9:  -115.08939326111987   -8.98197e-10   4.19042e-08 DIIS
   @RHF iter  10:  -115.08939326114935   -2.94875e-11   1.07379e-08 DIIS
   @RHF iter  11:  -115.08939326115161   -2.25953e-12   2.19106e-09 DIIS
   @RHF iter  12:  -115.08939326115133    2.84217e-13   3.91787e-10 DIIS
   @RHF iter  13:  -115.08939326115176   -4.26326e-13   7.19935e-11 DIIS
  Energy and wave function converged.


  ==> Post-Iterations <==

    Orbital Energies [Eh]
    ---------------------

    Doubly Occupied:                                                      

       1A    -20.552224     2A    -11.268003     3A     -1.355769  
       4A     -0.924201     5A     -0.689225     6A     -0.618973  
       7A     -0.591477     8A     -0.502232     9A     -0.448993  

    Virtual:                                                              

      10A      0.138521    11A      0.178938    12A      0.220496  
      13A      0.224202    14A      0.290955    15A      0.386865  
      16A      0.404096    17A      0.546083    18A      0.584660  
      19A      0.624345    20A      0.625518    21A      0.639681  
      22A      0.690557    23A      0.705225    24A      0.721946  
      25A      0.833251    26A      0.864831    27A      0.872745  
      28A      0.927314    29A      1.069876    30A      1.101886  
      31A      1.178030    32A      1.190141    33A      1.262977  
      34A      1.272696    35A      1.284131    36A      1.366410  
      37A      1.448160    38A      1.492871    39A      1.523945  
      40A      1.546423    41A      1.582662    42A      1.622157  
      43A      1.778162    44A      2.093277    45A      2.181027  
      46A      2.199044    47A      2.301612    48A      2.323986  
      49A      2.489366    50A      2.509589    51A      2.576453  
      52A      2.805390    53A      2.951980    54A      3.056976  
      55A      3.110813    56A      3.118441    57A      3.144325  
      58A      3.223127    59A      3.244677    60A      3.314752  
      61A      3.316034    62A      3.344654    63A      3.384890  
      64A      3.503032    65A      3.615347    66A      3.634913  
      67A      3.702776    68A      3.710375    69A      3.745982  
      70A      3.763464    71A      3.818105    72A      3.844455  
      73A      3.905978    74A      4.012506    75A      4.029678  
      76A      4.119648    77A      4.162895    78A      4.172826  
      79A      4.249827    80A      4.258369    81A      4.290066  
      82A      4.403937    83A      4.440398    84A      4.469980  
      85A      4.562932    86A      4.584885    87A      4.716085  
      88A      4.790097    89A      4.999971    90A      5.038438  
      91A      5.058892    92A      5.206547    93A      5.275675  
      94A      5.318075    95A      5.374489    96A      5.443209  
      97A      5.550832    98A      5.553271    99A      5.569879  
     100A      5.792363   101A      5.947577   102A      6.194310  
     103A      6.215327   104A      6.251829   105A      6.433148  
     106A      6.642528   107A      6.999788   108A      7.127817  
     109A      7.183623   110A      7.237742   111A      7.356174  
     112A      7.438105   113A      7.594669   114A      7.914252  
     115A     12.154516   116A     13.764819  

    Final Occupation by Irrep:
              A 
    DOCC [     9 ]

  @RHF Final Energy:  -115.08939326115176

   => Energetics <=

    Nuclear Repulsion Energy =             40.4202526863639235
    One-Electron Energy =                -237.1170977860492712
    Two-Electron Energy =                  81.6074518385335779
    Total Energy =                       -115.0893932611517556

Computation Completed


Properties will be evaluated at   0.000000,   0.000000,   0.000000 [a0]

Properties computed using the SCF density matrix

  Nuclear Dipole Moment: [e a0]
     X:    -2.1517      Y:    -0.8070      Z:    -0.0000

  Electronic Dipole Moment: [e a0]
     X:     1.7670      Y:     0.2192      Z:     0.0000

  Dipole Moment: [e a0]
     X:    -0.3847      Y:    -0.5877      Z:    -0.0000     Total:     0.7025

  Dipole Moment: [D]
     X:    -0.9779      Y:    -1.4939      Z:    -0.0001     Total:     1.7855


*** tstop() called on n004 at Sat Sep 19 17:50:07 2020
Module time:
	user time   =       6.71 seconds =       0.11 minutes
	system time =       0.17 seconds =       0.00 minutes
	total time  =          7 seconds =       0.12 minutes
Total time:
	user time   =       6.71 seconds =       0.11 minutes
	system time =       0.17 seconds =       0.00 minutes
	total time  =          7 seconds =       0.12 minutes
 MINTS: Wrapper to libmints.
   by Justin Turney

   Calculation information:
      Number of threads:                 1
      Number of atoms:                   6
      Number of AO shells:              44
      Number of SO shells:              44
      Number of primitives:             84
      Number of atomic orbitals:       130
      Number of basis functions:       116

      Number of irreps:                  1
      Integral cutoff                 0.00e+00
      Number of functions per irrep: [ 116 ]

 OEINTS: Overlap, kinetic, potential, dipole, and quadrupole integrals
         stored in file 35.

      Computing two-electron integrals...done
      Computed 22872068 non-zero two-electron integrals.
        Stored in file 33.


*** tstart() called on n004
*** at Sat Sep 19 17:50:11 2020


	Wfn Parameters:
	--------------------
	Wavefunction         = CCSD_T
	Number of irreps     = 1
	Number of MOs        = 116
	Number of active MOs = 116
	AO-Basis             = NONE
	Semicanonical        = false
	Reference            = RHF
	Print Level          = 1

	IRREP	# MOs	# FZDC	# DOCC	# SOCC	# VIRT	# FZVR
	-----	-----	------	------	------	------	------
	 A	   116	    0	    9	    0	    107	    0
	Transforming integrals...
	IWL integrals will be deleted.
	(OO|OO)...
	Presorting SO-basis two-electron integrals.
	Sorting File: SO Ints (nn|nn) nbuckets = 1
	Transforming the one-electron integrals and constructing Fock matrices
	Starting first half-transformation.
	Sorting half-transformed integrals.
	First half integral transformation complete.
	Starting second half-transformation.
	Two-electron integral transformation complete.
	(OO|OV)...
	Starting second half-transformation.
	Two-electron integral transformation complete.
	(OO|VV)...
	Starting second half-transformation.
	Two-electron integral transformation complete.
	(OV|OO)...
	Starting first half-transformation.
	Sorting half-transformed integrals.
	First half integral transformation complete.
	Starting second half-transformation.
	Two-electron integral transformation complete.
	(OV|OV)...
	Starting second half-transformation.
	Two-electron integral transformation complete.
	(OV|VV)...
	Starting second half-transformation.
	Two-electron integral transformation complete.
	(VV|OO)...
	Starting first half-transformation.
	Sorting half-transformed integrals.
	First half integral transformation complete.
	Starting second half-transformation.
	Two-electron integral transformation complete.
	(VV|OV)...
	Starting second half-transformation.
	Two-electron integral transformation complete.
	(VV|VV)...
	Starting second half-transformation.
	Two-electron integral transformation complete.
	Frozen core energy     =      0.00000000000000

	Size of irrep 0 of <ab|cd> integrals:    131.080 (MW) /   1048.637 (MB)
	Total:                                   131.080 (MW) /   1048.637 (MB)

	Size of irrep 0 of <ia|bc> integrals:     11.025 (MW) /     88.203 (MB)
	Total:                                    11.025 (MW) /     88.203 (MB)

	Size of irrep 0 of tijab amplitudes:       0.927 (MW) /      7.419 (MB)
	Total:                                     0.927 (MW) /      7.419 (MB)

	Nuclear Rep. energy          =     40.42025268636392
	SCF energy                   =   -115.08939326115176
	One-electron energy          =   -237.11709781786135
	Two-electron energy          =     81.60745187034611
	Reference energy             =   -115.08939326115133

*** tstop() called on n004 at Sat Sep 19 17:50:41 2020
Module time:
	user time   =      23.77 seconds =       0.40 minutes
	system time =       5.69 seconds =       0.09 minutes
	total time  =         30 seconds =       0.50 minutes
Total time:
	user time   =      33.74 seconds =       0.56 minutes
	system time =       6.23 seconds =       0.10 minutes
	total time  =         41 seconds =       0.68 minutes
            **************************
            *                        *
            *        CCENERGY        *
            *                        *
            **************************

    Nuclear Rep. energy (wfn)     =   40.420252686363924
    SCF energy          (wfn)     = -115.089393261151756
    Reference energy    (file100) = -115.089393261151329

    Input parameters:
    -----------------
    Wave function   =     CCSD_T
    Reference wfn   =     RHF
    Brueckner       =     No
    Memory (Mbytes) =     14000.0
    Maxiter         =    300
    R_Convergence   =     1.0e-08
    E_Convergence   =     1.0e-10
    Restart         =     Yes
    DIIS            =     Yes
    AO Basis        =     NONE
    ABCD            =     NEW
    Cache Level     =     2
    Cache Type      =     LOW
    Print Level     =     1
    Num. of threads =     1
    # Amps to Print =     10
    Print MP2 Amps? =     No
    Analyze T2 Amps =     No
    Print Pair Ener =     No
    Local CC        =     No
    SCS-MP2         =     False
    SCSN-MP2        =     False
    SCS-CCSD        =     False

MP2 correlation energy -0.4574435397017563
                Solving CC Amplitude Equations
                ------------------------------
  Iter             Energy              RMS        T1Diag      D1Diag    New D1Diag    D2Diag
  ----     ---------------------    ---------   ----------  ----------  ----------   --------
     0        -0.457443539701756    0.000e+00    0.000000    0.000000    0.000000    0.128111
     1        -0.464967089338680    4.763e-02    0.006484    0.014798    0.014798    0.129219
     2        -0.474921785563144    1.562e-02    0.006593    0.014755    0.014755    0.134934
     3        -0.476393719037445    5.473e-03    0.007387    0.016824    0.016824    0.136355
     4        -0.476290636662176    1.202e-03    0.007440    0.016965    0.016965    0.136582
     5        -0.476330488548590    4.339e-04    0.007472    0.017097    0.017097    0.136679
     6        -0.476339051618736    1.223e-04    0.007481    0.017148    0.017148    0.136686
     7        -0.476336882025393    4.529e-05    0.007483    0.017162    0.017162    0.136684
     8        -0.476336748547822    1.682e-05    0.007484    0.017171    0.017171    0.136683
     9        -0.476336854010407    4.877e-06    0.007484    0.017173    0.017173    0.136683
    10        -0.476336609403850    1.556e-06    0.007484    0.017173    0.017173    0.136683
    11        -0.476336676457730    4.775e-07    0.007484    0.017173    0.017173    0.136683
    12        -0.476336662150334    1.167e-07    0.007484    0.017173    0.017173    0.136683
    13        -0.476336665203691    4.161e-08    0.007484    0.017173    0.017173    0.136683
    14        -0.476336666350200    1.184e-08    0.007484    0.017173    0.017173    0.136683
    15        -0.476336666394029    4.894e-09    0.007484    0.017173    0.017173    0.136683
    16        -0.476336666423174    1.529e-09    0.007484    0.017173    0.017173    0.136683

    Iterations converged.


    Largest TIA Amplitudes:
              5   6        -0.0079815321
              5  14         0.0076518428
              5   9         0.0070430253
              8  14        -0.0063888240
              6   7         0.0059725576
              6   3        -0.0059069101
              7   8         0.0058416011
              5   2         0.0056909879
              8   6         0.0052931638
              6   5        -0.0050956201

    Largest TIjAb Amplitudes:
      5   5   9   9        -0.0230238605
      8   8  14  14        -0.0212391536
      6   6   7   7        -0.0210425342
      7   7  12  12        -0.0205110434
      4   4   7   7        -0.0191233042
      6   6   8   8        -0.0162173169
      5   5  14  14        -0.0151711382
      7   7   7   7        -0.0150864007
      5   5   2   9        -0.0149680161
      5   5   9   2        -0.0149680161

    SCF energy       (wfn)                    = -115.089393261151756
    Reference energy (file100)                = -115.089393261151329

    Opposite-spin MP2 correlation energy      =   -0.353863308944309
    Same-spin MP2 correlation energy          =   -0.103580230757447
    Singles MP2 correlation energy            =   -0.000000000000000
    MP2 correlation energy                    =   -0.457443539701756
      * MP2 total energy                      = -115.546836800853086

    Opposite-spin CCSD correlation energy     =   -0.381822842305280
    Same-spin CCSD correlation energy         =   -0.094513824117894
    Singles CCSD correlation energy           =    0.000000000000000
    CCSD correlation energy                   =   -0.476336666423174
      * CCSD total energy                     = -115.565729927574509

            **************************
            *                        *
            *        CCTRIPLES       *
            *                        *
            **************************


    Wave function   =    CCSD_T
    Reference wfn   =      RHF

    Nuclear Rep. energy (wfn)                =   40.420252686363924
    SCF energy          (wfn)                = -115.089393261151756
    Reference energy    (file100)            = -115.089393261151329
    CCSD energy         (file100)            =   -0.476336666423174
    Total CCSD energy   (file100)            = -115.565729927574509

    Number of ijk index combinations:              165
    Memory available in words        :      1750000000
    ~Words needed per explicit thread:         4900172
    Number of threads for explicit ijk threading:    1

    MKL num_threads set to 1 for explicit threading.

    (T) energy                                =   -0.015049751314621
      * CCSD(T) total energy                  = -115.580779678889130


    Psi4 stopped on: Saturday, 19 September 2020 05:53PM
    Psi4 wall time for execution: 0:03:00.39

*** Psi4 exiting successfully. Buy a developer a beer!
