
    -----------------------------------------------------------------------
          Psi4: An Open-Source Ab Initio Electronic Structure Package
                               Psi4 1.4a2.dev629 

                         Git: Rev {master} 2938fc2 dirty


    D. G. A. Smith, L. A. Burns, A. C. Simmonett, R. M. Parrish,
    M. C. Schieber, R. Galvelis, P. Kraus, H. Kruse, R. Di Remigio,
    A. Alenaizan, A. M. James, S. Lehtola, J. P. Misiewicz, M. Scheurer,
    R. A. Shaw, J. B. Schriber, Y. Xie, Z. L. Glick, D. A. Sirianni,
    J. S. O'Brien, J. M. Waldrop, A. Kumar, E. G. Hohenstein,
    B. P. Pritchard, B. R. Brooks, H. F. Schaefer III, A. Yu. Sokolov,
    K. Patkowski, A. E. DePrince III, U. Bozkaya, R. A. King,
    F. A. Evangelista, J. M. Turney, T. D. Crawford, C. D. Sherrill,
    J. Chem. Phys. 152(18) 184108 (2020). https://doi.org/10.1063/5.0006002

                            Additional Code Authors
    E. T. Seidl, C. L. Janssen, E. F. Valeev, M. L. Leininger,
    J. F. Gonthier, R. M. Richard, H. R. McAlexander, M. Saitow, X. Wang,
    P. Verma, and M. H. Lechner

             Previous Authors, Complete List of Code Contributors,
                       and Citations for Specific Modules
    https://github.com/psi4/psi4/blob/master/codemeta.json
    https://github.com/psi4/psi4/graphs/contributors
    http://psicode.org/psi4manual/master/introduction.html#citing-psifour

    -----------------------------------------------------------------------


    Psi4 started on: Wednesday, 21 September 2022 04:26PM

    Process ID: 12073
    Host:       n054
    PSIDATADIR: /opt/psi/4/master/share/psi4
    Memory:     500.0 MiB
    Threads:    1
    
  ==> Input File <==

--------------------------------------------------------------------------
# o-Benzyne preliminary computations

memory 14 gb

molecule {
  0 1
  units bohr
 C   -1.3782010842   -0.0279928754    0.0000010056
 O    1.3065782601    0.1203105525    0.0000012015
 H   -2.0719103785    1.9091541271   -0.0000811984
 H   -2.1157689412   -0.9785772746    1.6827135554
 H   -2.1157627355   -0.9787075459   -1.6826408967
 H    1.9513407194   -1.5743191037   -0.0000020775
}

set {
  basis cc-pvtz
  reference rhf
  e_convergence 10 
  d_convergence 10
  r_convergence 8
  maxiter 300
  freeze_core True
}

e, wfn = energy('ccsd(t)', return_wfn = True)
psi4.print_out('Giraffe The Energy is %.12f \n'%(e))
--------------------------------------------------------------------------

  Memory set to  13.039 GiB by Python driver.

Scratch directory: /tmp/

*** tstart() called on n054
*** at Wed Sep 21 16:26:24 2022

   => Loading Basis Set <=

    Name: CC-PVTZ
    Role: ORBITAL
    Keyword: BASIS
    atoms 1   entry C          line   186 file /opt/psi/4/master/share/psi4/basis/cc-pvtz.gbs 
    atoms 2   entry O          line   262 file /opt/psi/4/master/share/psi4/basis/cc-pvtz.gbs 
    atoms 3-6 entry H          line    23 file /opt/psi/4/master/share/psi4/basis/cc-pvtz.gbs 


         ---------------------------------------------------------
                                   SCF
               by Justin Turney, Rob Parrish, Andy Simmonett
                          and Daniel G. A. Smith
                              RHF Reference
                        1 Threads,  13351 MiB Core
         ---------------------------------------------------------

  ==> Geometry <==

    Molecular point group: c1
    Full point group: C1

    Geometry (in Bohr), charge = 0, multiplicity = 1:

       Center              X                  Y                   Z               Mass       
    ------------   -----------------  -----------------  -----------------  -----------------
         C           -1.377390436874    -0.026534601010     0.000000362851    12.000000000000
         O            1.307388907426     0.121768826890     0.000000558751    15.994914619570
         H           -2.071099731174     1.910612401490    -0.000081841149     1.007825032230
         H           -2.114958293874    -0.977119000210     1.682712912651     1.007825032230
         H           -2.114952088174    -0.977249271510    -1.682641539449     1.007825032230
         H            1.952151366726    -1.572860829310    -0.000002720249     1.007825032230

  Running in c1 symmetry.

  Rotational constants: A =      4.28479  B =      0.82473  C =      0.79599 [cm^-1]
  Rotational constants: A = 128454.71575  B =  24724.84724  C =  23863.26944 [MHz]
  Nuclear repulsion =   40.272761976625688

  Charge       = 0
  Multiplicity = 1
  Electrons    = 18
  Nalpha       = 9
  Nbeta        = 9

  ==> Algorithm <==

  SCF Algorithm Type is PK.
  DIIS enabled.
  MOM disabled.
  Fractional occupation disabled.
  Guess Type is SAD.
  Energy threshold   = 1.00e-10
  Density threshold  = 1.00e-10
  Integral threshold = 0.00e+00

  ==> Primary Basis <==

  Basis Set: CC-PVTZ
    Blend: CC-PVTZ
    Number of shells: 44
    Number of basis function: 116
    Number of Cartesian functions: 130
    Spherical Harmonics?: true
    Max angular momentum: 3

  ==> Integral Setup <==

  Using in-core PK algorithm.
   Calculation information:
      Number of atoms:                   6
      Number of AO shells:              44
      Number of primitives:             84
      Number of atomic orbitals:       130
      Number of basis functions:       116

      Integral cutoff                 1.00e-12
      Number of threads:                 1

  Performing in-core PK
  Using 46056582 doubles for integral storage.
  We computed 490463 shell quartets total.
  Whereas there are 490545 unique shell quartets.

  ==> DiskJK: Disk-Based J/K Matrices <==

    J tasked:                  Yes
    K tasked:                  Yes
    wK tasked:                  No
    Memory [MiB]:            10013
    Schwarz Cutoff:          1E-12

    OpenMP threads:              1

  Minimum eigenvalue in the overlap matrix is 1.8521046469E-03.
  Reciprocal condition number of the overlap matrix is 2.8031880548E-04.
    Using symmetric orthogonalization.

  ==> Pre-Iterations <==

  SCF Guess: Superposition of Atomic Densities via on-the-fly atomic UHF (no occupation information).

   -------------------------
    Irrep   Nso     Nmo    
   -------------------------
     A        116     116 
   -------------------------
    Total     116     116
   -------------------------

  ==> Iterations <==

                        Total Energy        Delta E     RMS |[F,P]|

   @RHF iter SAD:  -114.40992601287556   -1.14410e+02   0.00000e+00 
   @RHF iter   1:  -115.01451549395374   -6.04589e-01   3.41080e-03 DIIS
   @RHF iter   2:  -115.07125093790941   -5.67354e-02   1.95508e-03 DIIS
   @RHF iter   3:  -115.08808864437104   -1.68377e-02   3.01017e-04 DIIS
   @RHF iter   4:  -115.08897268571396   -8.84041e-04   8.78524e-05 DIIS
   @RHF iter   5:  -115.08904634664508   -7.36609e-05   2.14356e-05 DIIS
   @RHF iter   6:  -115.08905121364678   -4.86700e-06   4.73748e-06 DIIS
   @RHF iter   7:  -115.08905158170475   -3.68058e-07   1.09942e-06 DIIS
   @RHF iter   8:  -115.08905160333650   -2.16317e-08   2.26985e-07 DIIS
   @RHF iter   9:  -115.08905160425124   -9.14739e-10   4.22102e-08 DIIS
   @RHF iter  10:  -115.08905160428128   -3.00417e-11   1.09019e-08 DIIS
   @RHF iter  11:  -115.08905160428317   -1.89004e-12   2.23485e-09 DIIS
   @RHF iter  12:  -115.08905160428353   -3.55271e-13   3.99920e-10 DIIS
   @RHF iter  13:  -115.08905160428341    1.13687e-13   7.39048e-11 DIIS
  Energy and wave function converged.


  ==> Post-Iterations <==

    Orbital Energies [Eh]
    ---------------------

    Doubly Occupied:                                                      

       1A    -20.552558     2A    -11.269919     3A     -1.353187  
       4A     -0.923281     5A     -0.687504     6A     -0.617320  
       7A     -0.589270     8A     -0.502013     9A     -0.449446  

    Virtual:                                                              

      10A      0.138529    11A      0.178523    12A      0.220156  
      13A      0.223605    14A      0.290416    15A      0.386042  
      16A      0.405033    17A      0.544234    18A      0.582597  
      19A      0.623127    20A      0.625144    21A      0.637972  
      22A      0.690241    23A      0.702467    24A      0.720881  
      25A      0.833521    26A      0.865444    27A      0.871519  
      28A      0.928905    29A      1.067660    30A      1.099797  
      31A      1.177494    32A      1.189259    33A      1.261480  
      34A      1.271033    35A      1.281163    36A      1.363464  
      37A      1.445711    38A      1.491016    39A      1.521739  
      40A      1.544386    41A      1.584243    42A      1.618767  
      43A      1.773214    44A      2.092145    45A      2.178943  
      46A      2.197509    47A      2.298403    48A      2.321995  
      49A      2.488397    50A      2.511896    51A      2.577497  
      52A      2.806143    53A      2.949081    54A      3.054259  
      55A      3.108844    56A      3.114413    57A      3.144811  
      58A      3.224507    59A      3.241554    60A      3.312731  
      61A      3.313705    62A      3.340292    63A      3.384529  
      64A      3.497050    65A      3.612531    66A      3.634214  
      67A      3.698073    68A      3.705098    69A      3.745377  
      70A      3.757444    71A      3.811152    72A      3.833877  
      73A      3.905519    74A      4.009441    75A      4.027063  
      76A      4.116578    77A      4.158298    78A      4.169250  
      79A      4.245993    80A      4.253469    81A      4.286151  
      82A      4.396257    83A      4.435814    84A      4.463198  
      85A      4.554823    86A      4.577779    87A      4.707345  
      88A      4.777784    89A      4.990592    90A      5.029836  
      91A      5.051075    92A      5.194446    93A      5.264022  
      94A      5.309384    95A      5.367519    96A      5.435607  
      97A      5.538396    98A      5.541299    99A      5.556905  
     100A      5.783024   101A      5.940177   102A      6.185306  
     103A      6.200819   104A      6.240695   105A      6.424116  
     106A      6.635643   107A      6.994839   108A      7.124792  
     109A      7.177860   110A      7.233459   111A      7.351294  
     112A      7.422384   113A      7.594803   114A      7.908178  
     115A     12.125903   116A     13.676935  

    Final Occupation by Irrep:
              A 
    DOCC [     9 ]

  @RHF Final Energy:  -115.08905160428341

   => Energetics <=

    Nuclear Repulsion Energy =             40.2727619766256879
    One-Electron Energy =                -236.8346311517396430
    Two-Electron Energy =                  81.4728175708305287
    Total Energy =                       -115.0890516042834122

Computation Completed


Properties will be evaluated at   0.000000,   0.000000,   0.000000 [a0]

Properties computed using the SCF density matrix

  Nuclear Dipole Moment: [e a0]
     X:    -2.1541      Y:    -0.8017      Z:    -0.0000

  Electronic Dipole Moment: [e a0]
     X:     1.7672      Y:     0.2134      Z:     0.0000

  Dipole Moment: [e a0]
     X:    -0.3869      Y:    -0.5883      Z:    -0.0000     Total:     0.7041

  Dipole Moment: [D]
     X:    -0.9835      Y:    -1.4953      Z:    -0.0000     Total:     1.7898


*** tstop() called on n054 at Wed Sep 21 16:26:28 2022
Module time:
	user time   =       3.30 seconds =       0.06 minutes
	system time =       0.02 seconds =       0.00 minutes
	total time  =          4 seconds =       0.07 minutes
Total time:
	user time   =       3.30 seconds =       0.06 minutes
	system time =       0.02 seconds =       0.00 minutes
	total time  =          4 seconds =       0.07 minutes
 MINTS: Wrapper to libmints.
   by Justin Turney

   Calculation information:
      Number of threads:                 1
      Number of atoms:                   6
      Number of AO shells:              44
      Number of SO shells:              44
      Number of primitives:             84
      Number of atomic orbitals:       130
      Number of basis functions:       116

      Number of irreps:                  1
      Integral cutoff                 0.00e+00
      Number of functions per irrep: [ 116 ]

 OEINTS: Overlap, kinetic, potential, dipole, and quadrupole integrals
         stored in file 35.

      Computing two-electron integrals...done
      Computed 22876902 non-zero two-electron integrals.
        Stored in file 33.


*** tstart() called on n054
*** at Wed Sep 21 16:26:30 2022


	Wfn Parameters:
	--------------------
	Wavefunction         = CCSD_T
	Number of irreps     = 1
	Number of MOs        = 116
	Number of active MOs = 114
	AO-Basis             = NONE
	Semicanonical        = false
	Reference            = RHF
	Print Level          = 1

	IRREP	# MOs	# FZDC	# DOCC	# SOCC	# VIRT	# FZVR
	-----	-----	------	------	------	------	------
	 A	   116	    2	    7	    0	    107	    0
	Transforming integrals...
	IWL integrals will be deleted.
	(OO|OO)...
	Presorting SO-basis two-electron integrals.
	Sorting File: SO Ints (nn|nn) nbuckets = 1
	Transforming the one-electron integrals and constructing Fock matrices
	Starting first half-transformation.
	Sorting half-transformed integrals.
	First half integral transformation complete.
	Starting second half-transformation.
	Two-electron integral transformation complete.
	(OO|OV)...
	Starting second half-transformation.
	Two-electron integral transformation complete.
	(OO|VV)...
	Starting second half-transformation.
	Two-electron integral transformation complete.
	(OV|OO)...
	Starting first half-transformation.
	Sorting half-transformed integrals.
	First half integral transformation complete.
	Starting second half-transformation.
	Two-electron integral transformation complete.
	(OV|OV)...
	Starting second half-transformation.
	Two-electron integral transformation complete.
	(OV|VV)...
	Starting second half-transformation.
	Two-electron integral transformation complete.
	(VV|OO)...
	Starting first half-transformation.
	Sorting half-transformed integrals.
	First half integral transformation complete.
	Starting second half-transformation.
	Two-electron integral transformation complete.
	(VV|OV)...
	Starting second half-transformation.
	Two-electron integral transformation complete.
	(VV|VV)...
	Starting second half-transformation.
	Two-electron integral transformation complete.
	Frozen core energy     =   -106.47477260862946

	Size of irrep 0 of <ab|cd> integrals:    131.080 (MW) /   1048.637 (MB)
	Total:                                   131.080 (MW) /   1048.637 (MB)

	Size of irrep 0 of <ia|bc> integrals:      8.575 (MW) /     68.602 (MB)
	Total:                                     8.575 (MW) /     68.602 (MB)

	Size of irrep 0 of tijab amplitudes:       0.561 (MW) /      4.488 (MB)
	Total:                                     0.561 (MW) /      4.488 (MB)

	Nuclear Rep. energy          =     40.27276197662569
	SCF energy                   =   -115.08905160428341
	One-electron energy          =    -87.53003964997508
	Two-electron energy          =     38.64299867769540
	Reference energy             =   -115.08905160428347

*** tstop() called on n054 at Wed Sep 21 16:26:40 2022
Module time:
	user time   =       7.64 seconds =       0.13 minutes
	system time =       2.57 seconds =       0.04 minutes
	total time  =         10 seconds =       0.17 minutes
Total time:
	user time   =      12.48 seconds =       0.21 minutes
	system time =       2.77 seconds =       0.05 minutes
	total time  =         16 seconds =       0.27 minutes
            **************************
            *                        *
            *        CCENERGY        *
            *                        *
            **************************

    Nuclear Rep. energy (wfn)     =   40.272761976625688
    SCF energy          (wfn)     = -115.089051604283412
    Reference energy    (file100) = -115.089051604283469

    Input parameters:
    -----------------
    Wave function   =     CCSD_T
    Reference wfn   =     RHF
    Brueckner       =     No
    Memory (Mbytes) =     14000.0
    Maxiter         =    300
    R_Convergence   =     1.0e-08
    E_Convergence   =     1.0e-10
    Restart         =     Yes
    DIIS            =     Yes
    AO Basis        =     NONE
    ABCD            =     NEW
    Cache Level     =     2
    Cache Type      =     LOW
    Print Level     =     1
    Num. of threads =     1
    # Amps to Print =     10
    Print MP2 Amps? =     No
    Analyze T2 Amps =     No
    Print Pair Ener =     No
    Local CC        =     No
    SCS-MP2         =     False
    SCSN-MP2        =     False
    SCS-CCSD        =     False

MP2 correlation energy -0.4283838855748426
                Solving CC Amplitude Equations
                ------------------------------
  Iter             Energy              RMS        T1Diag      D1Diag    New D1Diag    D2Diag
  ----     ---------------------    ---------   ----------  ----------  ----------   --------
     0        -0.428383885574843    0.000e+00    0.000000    0.000000    0.000000    0.128543
     1        -0.435647448533797    4.789e-02    0.007318    0.014845    0.014845    0.129874
     2        -0.445490318951322    1.578e-02    0.007432    0.014784    0.014784    0.135689
     3        -0.446967854977308    5.548e-03    0.008341    0.016910    0.016910    0.137147
     4        -0.446875590845922    1.225e-03    0.008402    0.017069    0.017069    0.137386
     5        -0.446918728220946    4.487e-04    0.008441    0.017218    0.017218    0.137490
     6        -0.446926282099550    1.293e-04    0.008453    0.017276    0.017276    0.137498
     7        -0.446923758771025    4.802e-05    0.008456    0.017294    0.017294    0.137496
     8        -0.446923784580369    1.768e-05    0.008457    0.017304    0.017304    0.137495
     9        -0.446923868486197    5.005e-06    0.008458    0.017306    0.017306    0.137495
    10        -0.446923615337810    1.587e-06    0.008458    0.017306    0.017306    0.137495
    11        -0.446923681435452    4.948e-07    0.008458    0.017306    0.017306    0.137495
    12        -0.446923666419528    1.218e-07    0.008458    0.017306    0.017306    0.137495
    13        -0.446923669945929    4.428e-08    0.008458    0.017306    0.017306    0.137495
    14        -0.446923671178920    1.255e-08    0.008458    0.017306    0.017306    0.137495
    15        -0.446923671218611    5.226e-09    0.008458    0.017306    0.017306    0.137495
    16        -0.446923671241889    1.602e-09    0.008458    0.017306    0.017306    0.137495

    Iterations converged.


    Largest TIA Amplitudes:
              3   6        -0.0081680093
              3  14         0.0075305170
              3   9         0.0067266585
              6  14        -0.0067163396
              4   7         0.0059803921
              5   8         0.0057976839
              4   3        -0.0057973057
              6   6         0.0055620921
              3   2         0.0054752730
              4   5        -0.0051367985

    Largest TIjAb Amplitudes:
      3   3   9   9        -0.0232090103
      4   4   7   7        -0.0220666965
      6   6  14  14        -0.0209615656
      5   5  12  12        -0.0203565398
      2   2   7   7        -0.0188467962
      4   4   8   8        -0.0158864491
      3   3  14  14        -0.0151965566
      3   3   2   9        -0.0151522417
      3   3   9   2        -0.0151522417
      3   6   9   9        -0.0149960186

    SCF energy       (wfn)                    = -115.089051604283412
    Reference energy (file100)                = -115.089051604283469

    Opposite-spin MP2 correlation energy      =   -0.330177078460468
    Same-spin MP2 correlation energy          =   -0.098206807114375
    Singles MP2 correlation energy            =   -0.000000000000000
    MP2 correlation energy                    =   -0.428383885574843
      * MP2 total energy                      = -115.517435489858315

    Opposite-spin CCSD correlation energy     =   -0.357770056594733
    Same-spin CCSD correlation energy         =   -0.089153614647156
    Singles CCSD correlation energy           =    0.000000000000000
    CCSD correlation energy                   =   -0.446923671241889
      * CCSD total energy                     = -115.535975275525360

            **************************
            *                        *
            *        CCTRIPLES       *
            *                        *
            **************************


    Wave function   =    CCSD_T
    Reference wfn   =      RHF

    Nuclear Rep. energy (wfn)                =   40.272761976625688
    SCF energy          (wfn)                = -115.089051604283412
    Reference energy    (file100)            = -115.089051604283469
    CCSD energy         (file100)            =   -0.446923671241889
    Total CCSD energy   (file100)            = -115.535975275525360

    Number of ijk index combinations:               84
    Memory available in words        :      1750000000
    ~Words needed per explicit thread:         4900172
    Number of threads for explicit ijk threading:    1

    MKL num_threads set to 1 for explicit threading.

    (T) energy                                =   -0.014801858182299
      * CCSD(T) total energy                  = -115.550777133707655

Giraffe The Energy is -115.550777133708 

    Psi4 stopped on: Wednesday, 21 September 2022 04:27PM
    Psi4 wall time for execution: 0:00:44.05

*** Psi4 exiting successfully. Buy a developer a beer!
