
 Primary working directories    : /tmp/795519.124.gen6.q
 Secondary working directories  : /tmp/795519.124.gen6.q
 Wavefunction directory         : /home/vulcan/mel64643/wfu/
 Main file repository           : /tmp/795519.124.gen6.q/

 ARCHNAME  : Linux/x86_64
 FC        : /opt/intel/compilers_and_libraries_2016.1.150/linux/bin/intel64/ifort
 FCVERSION : 16.0.1
 BLASLIB   : -mkl
 id        : ccgc

 Nodes     nprocs
 n091         1
 ga_uses_ma=false, calling ma_init with nominal heap.
 GA-space will be limited to   8.0 MW (determined by -G option)

 Using customized tuning parameters: mindgm=10; mindgv=16; mindgc=4; mindgr=1; noblas=0; mincuda=1000; minvec=7
 default implementation of scratch files=df  

 ***,Optimization of min3
 memory,1000,m
 gthresh,energy=1.0d-12,orbital=1.0d-10,oneint=1.0d-16,twoint=1.0d-16,optgrad=1.0d-6,compress=1.0d-13
 geomtyp=xyz
 
  bohr
  geometry = {
  6
  arbitrary comment
  C   -1.3756269575   -0.0234151594   -0.0015529807
  O    1.3080865950    0.1201543333   -0.0002064590
  H   -2.0861105746    1.9113748548   -0.0045204654
  H   -2.1067341398   -0.9819809694    1.6859364598
  H   -2.1060343727   -0.9733957923   -1.6798661023
  H    1.9426952897   -1.5828693870    0.0002011376
 }
 
 basis=cc-pvdz
 {rhf;maxit,200}
 {ccsd(t);maxit,200}

 Variables initialized (661), CPU time= 0.01 sec
 Commands  initialized (458), CPU time= 0.00 sec, 486 directives.
 Default parameters read. Elapsed time= 0.05 sec

 Checking input...
 Passed
1


                                         ***  PROGRAM SYSTEM MOLPRO  ***
                         Copyright, University College Cardiff Consultants Limited, 2008

                                    Version 2010.1 linked May 16 2016 07:17:05


 **********************************************************************************************************************************
 LABEL *   Optimization of min3                                                          
 Linux-4.4.3/n091(x86_64) 64 bit mpp version                                             DATE: 24-Oct-22          TIME: 15:43:35  
 **********************************************************************************************************************************

 SHA1:             9e8077add272b0f3cad6f7df79ec5211205f459d
 **********************************************************************************************************************************

 THRESHOLDS:

 ZERO    =  1.00D-12  ONEINT  =  1.00D-16  TWOINT  =  1.00D-16  PREFAC  =  1.00D-14  LOCALI  =  1.00D-09  EORDER  =  1.00D-04
 ENERGY  =  1.00D-12  ETEST   =  0.00D+00  EDENS   =  0.00D+00  THRDEDEF=  1.00D-06  GRADIENT=  1.00D-02  STEP    =  1.00D-03
 ORBITAL =  1.00D-10  CIVEC   =  1.00D-05  COEFF   =  1.00D-04  PRINTCI =  5.00D-02  PUNCHCI =  9.90D+01  OPTGRAD =  1.00D-06
 OPTENERG=  1.00D-06  OPTSTEP =  3.00D-04  THRGRAD =  1.00D-10  COMPRESS=  1.00D-13  VARMIN  =  1.00D-07  VARMAX  =  1.00D-03
 THRDOUB =  0.00D+00  THRDIV  =  1.00D-05  THRRED  =  1.00D-07  THRPSP  =  1.00D+00  THRDC   =  1.00D-10  THRCS   =  1.00D-10
 THRNRM  =  1.00D-08  THREQ   =  0.00D+00  THRDE   =  1.00D+00  THRREF  =  1.00D-05  SPARFAC =  1.00D+00  THRDLP  =  1.00D-07
 THRDIA  =  1.00D-10  THRDLS  =  1.00D-07  THRGPS  =  0.00D+00  THRKEX  =  0.00D+00  THRDIS  =  2.00D-01  THRVAR  =  1.00D-10
 THRLOC  =  1.00D-06  THRGAP  =  1.00D-06  THRLOCT = -1.00D+00  THRGAPT = -1.00D+00  THRORB  =  1.00D-06  THRMLTP =  0.00D+00
 THRCPQCI=  1.00D-10  KEXTA   =  0.00D+00  THRCOARS=  0.00D+00  SYMTOL  =  1.00D-06  GRADTOL =  1.00D-06  THROVL  =  1.00D-08
 THRORTH =  1.00D-08  GRID    =  1.00D-06  GRIDMAX =  1.00D-03  DTMAX   =  0.00D+00

 SETTING GEOMTYP        =    XYZ
 ZUNIT=BOHR
 

 Variable memory set to 1000000000 words,  buffer space   230000 words

 SETTING BASIS          =    CC-PVDZ


 Recomputing integrals since basis changed


 Using spherical harmonics

 Library entry C      S cc-pVDZ              selected for orbital group  1
 Library entry C      P cc-pVDZ              selected for orbital group  1
 Library entry C      D cc-pVDZ              selected for orbital group  1
 Library entry O      S cc-pVDZ              selected for orbital group  2
 Library entry O      P cc-pVDZ              selected for orbital group  2
 Library entry O      D cc-pVDZ              selected for orbital group  2
 Library entry H      S cc-pVDZ              selected for orbital group  3
 Library entry H      P cc-pVDZ              selected for orbital group  3

1PROGRAM * SEWARD (Integral evaluation for generally contracted gaussian basis sets)     Author: Roland Lindh, 1990

 Geometry written to block  1 of record 700


 Point group  C1  



 ATOMIC COORDINATES

 NR  ATOM    CHARGE       X              Y              Z

   1  C       6.00   -1.375626957   -0.023415159   -0.001552981
   2  O       8.00    1.308086595    0.120154333   -0.000206459
   3  H       1.00   -2.086110575    1.911374855   -0.004520465
   4  H       1.00   -2.106734140   -0.981980969    1.685936460
   5  H       1.00   -2.106034373   -0.973395792   -1.679866102
   6  H       1.00    1.942695290   -1.582869387    0.000201138

 Bond lengths in Bohr (Angstrom)

 1-2  2.687551384  1-3  2.061118186  1-4  2.073882045  1-5  2.062205889  2-6  1.817420742
     ( 1.422190941)     ( 1.090696769)     ( 1.097451112)     ( 1.091272357)     ( 0.961737636)

 Bond angles

  1-2-6  107.37502175   2-1-3  107.10179823   2-1-4  112.10535868   2-1-5  112.25306182

  3-1-4  108.27212904   3-1-5  108.00891359   4-1-5  108.93101052

 NUCLEAR CHARGE:                   18
 NUMBER OF PRIMITIVE AOS:          82
 NUMBER OF SYMMETRY AOS:           80
 NUMBER OF CONTRACTIONS:           48   (  48A   )
 NUMBER OF CORE ORBITALS:           2   (   2A   )
 NUMBER OF VALENCE ORBITALS:       12   (  12A   )


 NUCLEAR REPULSION ENERGY   40.26974505


 Eigenvalues of metric

         1 0.968E-02 0.177E-01 0.368E-01 0.375E-01 0.384E-01 0.472E-01 0.480E-01 0.519E-01


 Contracted 2-electron integrals neglected if value below      1.0D-16
 AO integral compression algorithm  1   Integral accuracy      1.0D-16

     6.816 MB (compressed) written to integral file (100.0%)

     Node minimum: 6.816 MB, node maximum: 6.816 MB


 NUMBER OF SORTED TWO-ELECTRON INTEGRALS:     692076.     BUFFER LENGTH:  32768
 NUMBER OF SEGMENTS:   1  SEGMENT LENGTH:     692076      RECORD LENGTH: 524288

 Memory used in sort:       1.25 MW

 SORT1 READ      832256. AND WROTE      682150. INTEGRALS IN      2 RECORDS. CPU TIME:     0.01 SEC, REAL TIME:     0.02 SEC
 SORT2 READ      682150. AND WROTE      692076. INTEGRALS IN     26 RECORDS. CPU TIME:     0.01 SEC, REAL TIME:     0.02 SEC

 FILE SIZES:   FILE 1:     8.4 MBYTE,  FILE 4:     8.4 MBYTE,   TOTAL:     16.8 MBYTE

 OPERATOR DM      FOR CENTER  0  COORDINATES:    0.000000    0.000000    0.000000


 **********************************************************************************************************************************
 DATASETS  * FILE   NREC   LENGTH (MB)   RECORD NAMES
              1      19        8.40       500      610      700      900      950      970     1000      129      960     1100   
                                          VAR    BASINP    GEOM    SYMINP    ZMAT    AOBASIS   BASIS     P2S    ABASIS      S 
                                         1400     1410     1200     1210     1080     1600     1650     1300     1700   
                                           T        V       H0       H01     AOSYM     SMH    MOLCAS    ERIS     OPER   

 PROGRAMS   *        TOTAL       INT
 CPU TIMES  *         0.18      0.14
 REAL TIME  *         0.38 SEC
 DISK USED  *        24.24 MB      
 GA USED    *         0.00 MB       (max)       0.00 MB       (current)
 **********************************************************************************************************************************

1PROGRAM * RHF-SCF (CLOSED SHELL)       Authors: W. Meyer, H.-J. Werner


 NUMBER OF ELECTRONS:       9+    9-    SPACE SYMMETRY=1    SPIN SYMMETRY: Singlet 
 CONVERGENCE THRESHOLDS:    1.00E-10 (Density)    1.00E-13 (Energy)
 MAX. NUMBER OF ITERATIONS:      200
 INTERPOLATION TYPE:            DIIS
 INTERPOLATION STEPS:              2 (START)      1 (STEP)
 LEVEL SHIFTS:                  0.00 (CLOSED)  0.00 (OPEN) 



 Orbital guess generated from atomic densities. Full valence occupancy:   14

 Molecular orbital dump at record        2100.2

 ITERATION    DDIFF          GRAD             ENERGY        2-EL.EN.            DIPOLE MOMENTS         DIIS
    1      0.000D+00      0.000D+00      -115.01406326    164.322272   -0.49725   -0.90205    0.00003    0
    2      0.000D+00      0.110D-01      -115.04243958    162.101673   -0.31839   -0.53653   -0.00189    1
    3      0.205D-01      0.531D-02      -115.04849875    163.127924   -0.40242   -0.61192   -0.00222    2
    4      0.640D-02      0.112D-02      -115.04896406    162.971637   -0.39236   -0.60077   -0.00252    3
    5      0.204D-02      0.203D-03      -115.04898527    162.978067   -0.39524   -0.59647   -0.00264    4
    6      0.435D-03      0.357D-04      -115.04898608    162.978209   -0.39556   -0.59626   -0.00266    5
    7      0.934D-04      0.742D-05      -115.04898611    162.977019   -0.39570   -0.59609   -0.00267    6
    8      0.152D-04      0.239D-05      -115.04898611    162.977406   -0.39574   -0.59607   -0.00267    7
    9      0.509D-05      0.496D-06      -115.04898611    162.977364   -0.39575   -0.59607   -0.00267    6
   10      0.143D-05      0.892D-07      -115.04898611    162.977363   -0.39575   -0.59607   -0.00267    6
   11      0.238D-06      0.333D-07      -115.04898611    162.977369   -0.39575   -0.59607   -0.00267    6
   12      0.603D-07      0.140D-07      -115.04898611    162.977367   -0.39575   -0.59607   -0.00267    7
   13      0.262D-07      0.311D-08      -115.04898611    162.977367   -0.39575   -0.59607   -0.00267    7
   14      0.776D-08      0.663D-09      -115.04898611    162.977367   -0.39575   -0.59607   -0.00267    7
   15      0.169D-08      0.156D-09      -115.04898611    162.977367   -0.39575   -0.59607   -0.00267    7
   16      0.347D-09      0.473D-10      -115.04898611    162.977367   -0.39575   -0.59607   -0.00267    7
   17      0.915D-10      0.173D-10      -115.04898611    162.977367   -0.39575   -0.59607   -0.00267    7
   18      0.443D-10      0.339D-11      -115.04898611    162.977367   -0.39575   -0.59607   -0.00267    7
   19      0.785D-11      0.829D-12      -115.04898611    162.977367   -0.39575   -0.59607   -0.00267    0

 Final occupancy:   9

 !RHF STATE 1.1 Energy               -115.048986111956
 Nuclear energy                        40.26974505
 One-electron energy                 -236.80741465
 Two-electron energy                   81.48868349
 Virial quotient                       -1.00100158
 !RHF STATE 1.1 Dipole moment          -0.39575344    -0.59606758    -0.00266805
 Dipole moment /Debye                  -1.00583904    -1.51495343    -0.00678107

 Orbital energies:

         1.1          2.1          3.1          4.1          5.1          6.1          7.1          8.1          9.1         10.1
    -20.550125   -11.274950    -1.348881    -0.921001    -0.681823    -0.613790    -0.584528    -0.496685    -0.443240     0.184401

        11.1
      0.224020


 **********************************************************************************************************************************
 DATASETS  * FILE   NREC   LENGTH (MB)   RECORD NAMES
              1      19        8.40       500      610      700      900      950      970     1000      129      960     1100   
                                          VAR    BASINP    GEOM    SYMINP    ZMAT    AOBASIS   BASIS     P2S    ABASIS      S 
                                         1400     1410     1200     1210     1080     1600     1650     1300     1700   
                                           T        V       H0       H01     AOSYM     SMH    MOLCAS    ERIS     OPER   

              2       3        0.39       700     1000     2100   
                                         GEOM     BASIS     RHF  

 PROGRAMS   *        TOTAL       RHF       INT
 CPU TIMES  *         0.26      0.08      0.14
 REAL TIME  *         0.49 SEC
 DISK USED  *        24.24 MB      
 GA USED    *         0.00 MB       (max)       0.00 MB       (current)
 **********************************************************************************************************************************


1PROGRAM * CCSD (Closed-shell coupled cluster)     Authors: C. Hampel, H.-J. Werner, 1991, M. Deegan, P.J. Knowles, 1992


 Convergence thresholds:  THRVAR = 1.00D-08  THRDEN = 1.00D-12

 CCSD(T)     terms to be evaluated (factor= 1.000)


 Number of core orbitals:           2 (   2 )
 Number of closed-shell orbitals:   7 (   7 )
 Number of external orbitals:      39 (  39 )

 Molecular orbitals read from record     2100.2  Type=RHF/CANONICAL (state 1.1)

 Number of N-1 electron functions:               7
 Number of N-2 electron functions:              28
 Number of singly external CSFs:               273
 Number of doubly external CSFs:             37401
 Total number of CSFs:                       37675

 Length of J-op  integral file:               0.00 MB
 Length of K-op  integral file:               0.19 MB
 Length of 3-ext integral record:             0.00 MB

 Memory could be reduced to 0.96 Mwords without degradation in triples

 Integral transformation finished. Total CPU:   0.01 sec, npass=  1  Memory used:   0.66 MW

 Reference energy:                   -115.04898611

 MP2 singlet pair energy:              -0.21875382
 MP2 triplet pair energy:              -0.11986282
 MP2 correlation energy:               -0.33861665
 MP2 total energy:                   -115.38760276

 SCS-MP2 correlation energy:           -0.33708590   (PS=  1.200000  PT=  0.333333)
 SCS-MP2 total energy:               -115.38607201

 ITER.      SQ.NORM     CORR.ENERGY   TOTAL ENERGY   ENERGY CHANGE        DEN1      VAR(S)    VAR(P)  DIIS     TIME
   1      1.10745937    -0.36141422  -115.41040033    -0.02279757    -0.01409937  0.92D-03  0.17D-02  1  1     0.04
   2      1.11601049    -0.36336522  -115.41235133    -0.00195100    -0.00926693  0.20D-04  0.16D-03  2  2     0.07
   3      1.11790428    -0.36349339  -115.41247950    -0.00012817    -0.00121087  0.95D-05  0.87D-05  3  3     0.11
   4      1.11842313    -0.36349217  -115.41247828     0.00000122    -0.00025632  0.34D-06  0.68D-06  4  4     0.14
   5      1.11852218    -0.36349260  -115.41247871    -0.00000043    -0.00003634  0.10D-06  0.50D-07  5  5     0.17
   6      1.11854149    -0.36349123  -115.41247734     0.00000137    -0.00000440  0.16D-07  0.42D-08  6  6     0.20
   7      1.11854632    -0.36349081  -115.41247692     0.00000042    -0.00000036  0.21D-08  0.74D-09  6  1     0.23
   8      1.11854761    -0.36349091  -115.41247703    -0.00000010     0.00000076  0.26D-09  0.74D-10  6  3     0.27
   9      1.11854869    -0.36349079  -115.41247690     0.00000013    -0.00000039  0.13D-10  0.11D-10  6  2     0.30
  10      1.11854861    -0.36349079  -115.41247690    -0.00000000     0.00000007  0.11D-11  0.90D-12  6  5     0.33
  11      1.11854864    -0.36349079  -115.41247690     0.00000000    -0.00000000  0.20D-12  0.52D-13  6  4     0.37
  12      1.11854863    -0.36349079  -115.41247690    -0.00000000     0.00000001  0.20D-13  0.11D-13  6  1     0.40
  13      1.11854863    -0.36349079  -115.41247690    -0.00000000    -0.00000000  0.25D-14  0.98D-15  6  6     0.43
  14      1.11854863    -0.36349079  -115.41247690     0.00000000    -0.00000000  0.25D-15  0.13D-15  6  3     0.46
  15      1.11854863    -0.36349079  -115.41247690    -0.00000000    -0.00000000  0.33D-16  0.18D-16  6  2     0.50
  16      1.11854863    -0.36349079  -115.41247690    -0.00000000    -0.00000000  0.76D-17  0.19D-17  6  5     0.53
  17      1.11854863    -0.36349079  -115.41247690    -0.00000000    -0.00000000  0.10D-17  0.32D-18  6  4     0.56
  18      1.11854863    -0.36349079  -115.41247690     0.00000000    -0.00000000  0.18D-18  0.64D-19  6  1     0.59
  19      1.11854863    -0.36349079  -115.41247690    -0.00000000    -0.00000000  0.31D-19  0.73D-20  6  6     0.62
  20      1.11854863    -0.36349079  -115.41247690     0.00000000     0.00000000  0.56D-20  0.14D-20  6  3     0.66

 Norm of t1 vector:      0.04174585      S-energy:    -0.00000000      T1 diagnostic:  0.00788922
                                                                       D1 diagnostic:  0.01759803


 Total CPU time for triples:      0.16 sec


 RESULTS
 =======

  Reference energy                   -115.048986111956
  CCSD singlet pair energy             -0.254747789633
  CCSD triplet pair energy             -0.108743001030
  CCSD correlation energy              -0.363490790664

  Triples (T) contribution             -0.007751653419
  Total correlation energy             -0.371242444083

  CCSD total energy                  -115.412476902620
  CCSD[T] energy                     -115.420519462248
  CCSD-T energy                      -115.420078044219
 !CCSD(T) total energy               -115.420228556039

 Timing summary (sec):

 STEP                 CPU(USER)    SYS     CPU(TOT)    WALL
 Transformation          0.01      0.01      0.02      0.02
 CCSD iterations         0.65      0.03      0.68      0.71
 Triples                 0.16      0.00      0.16      0.17

 Program statistics:

 Available memory in ccsd:               999999704
 Min. memory needed in ccsd:                136801
 Max. memory used in ccsd:                  163198
 Max. memory used in cckext:                182024 (20 integral passes)



 **********************************************************************************************************************************
 DATASETS  * FILE   NREC   LENGTH (MB)   RECORD NAMES
              1      20       10.94       500      610      700      900      950      970     1000      129      960     1100   
                                          VAR    BASINP    GEOM    SYMINP    ZMAT    AOBASIS   BASIS     P2S    ABASIS      S 
                                         1400     1410     1200     1210     1080     1600     1650     1300     1700     1380   
                                           T        V       H0       H01     AOSYM     SMH    MOLCAS    ERIS     OPER     JKOP   

              2       3        0.39       700     1000     2100   
                                         GEOM     BASIS     RHF  

 PROGRAMS   *        TOTAL   CCSD(T)       RHF       INT
 CPU TIMES  *         1.10      0.84      0.08      0.14
 REAL TIME  *         1.40 SEC
 DISK USED  *        25.67 MB      
 GA USED    *         0.00 MB       (max)       0.00 MB       (current)
 **********************************************************************************************************************************

        CCSD(T)         RHF-SCF 
   -115.42022856   -115.04898611
 **********************************************************************************************************************************
 Variable memory released
