
Host: n070

Timers On : Wed Sep 21 16:13:39 2022
Timers Off: Wed Sep 21 16:14:01 2022

Wall Time:       22.27 seconds

                                                       Time (seconds)
Module                                       User      System        Wall        Calls
V: Grid                             :      2.100u      0.050s      1.299w      1 calls
DFH: sparsity prep                  :      0.033u      0.000s      0.024w      1 calls
DFH: initialize()                   :      0.150u      0.000s      0.093w      1 calls
DFH: AO Construction                :      0.033u      0.000s      0.023w      1 calls
DFH: AO-Met. Contraction            :      0.000u      0.000s      0.004w      1 calls
HF: Form core H                     :      0.000u      0.000s      0.006w      1 calls
HF: Form S/X                        :      0.000u      0.000s      0.000w      1 calls
HF: Guess                           :      0.483u      0.000s      0.292w      1 calls
SAD Guess                           :      0.467u      0.000s      0.281w      1 calls
HF: Form G                          :     24.067u      0.150s     14.526w     13 calls
RV: Form V                          :     24.067u      0.150s     14.514w     13 calls
Properties                          :      5.417u      0.050s      3.432w  65828 calls
Functional                          :     17.383u      0.033s     10.514w  65828 calls
V_xc                                :      4.067u      0.067s      2.311w  61126 calls
JK: D                               :      0.000u      0.000s      0.000w     13 calls
JK: USO2AO                          :      0.000u      0.000s      0.000w     13 calls
JK: JK                              :      0.000u      0.000s      0.011w     13 calls
DFH: compute_JK()                   :      0.000u      0.000s      0.011w     13 calls
DFH: Grabbing AOs                   :      0.000u      0.000s      0.000w     13 calls
DFH: compute_J                      :      0.000u      0.000s      0.003w     13 calls
DFH: compute_K                      :      0.000u      0.000s      0.007w     13 calls
JK: AO2USO                          :      0.000u      0.000s      0.000w     13 calls
HF: Form F                          :      0.000u      0.000s      0.000w     13 calls
HF: Form D                          :      0.000u      0.000s      0.000w     13 calls
HF: DIIS                            :      0.017u      0.000s      0.008w     12 calls
DIISManager::add_entry              :      0.000u      0.000s      0.002w     12 calls
DIISManager::extrapolate            :      0.000u      0.000s      0.001w     12 calls
bMatrix setup                       :      0.000u      0.000s      0.000w     12 calls
bMatrix pseudoinverse               :      0.000u      0.000s      0.001w     12 calls
New vector                          :      0.000u      0.000s      0.000w     12 calls
HF: Form C                          :      0.000u      0.000s      0.002w     12 calls
Grad: V T Perturb                   :      0.017u      0.000s      0.013w      1 calls
Grad: S                             :      0.000u      0.000s      0.002w      1 calls
Grad: JK                            :      0.367u      0.000s      0.226w      1 calls
JKGrad: Amn                         :      0.083u      0.000s      0.044w      1 calls
JKGrad: Awmn                        :      0.000u      0.000s      0.000w      1 calls
JKGrad: AB                          :      0.067u      0.000s      0.040w      1 calls
JKGrad: UV                          :      0.000u      0.000s      0.001w      1 calls
JKGrad: ABx                         :      0.033u      0.000s      0.025w      1 calls
JKGrad: Amnx                        :      0.150u      0.000s      0.084w      1 calls
Grad: XC                            :      4.167u      0.000s      2.503w      1 calls
V_xc gradient                       :      0.983u      0.000s      0.615w   4702 calls

--------------------------------------------------------------------------------------
V: Grid                             :      2.100u      0.050s      1.299w      1 calls
DFH: sparsity prep                  :      0.033u      0.000s      0.024w      1 calls
DFH: initialize()                   :      0.150u      0.000s      0.093w      1 calls
| DFH: AO Construction              :      0.033u      0.000s      0.023w      1 calls
| DFH: AO-Met. Contraction          :      0.000u      0.000s      0.004w      1 calls
HF: Form core H                     :      0.000u      0.000s      0.006w      1 calls
HF: Form S/X                        :      0.000u      0.000s      0.000w      1 calls
HF: Guess                           :      0.483u      0.000s      0.292w      1 calls
| SAD Guess                         :      0.467u      0.000s      0.281w      1 calls
HF: Form G                          :     24.067u      0.150s     14.526w     13 calls
| RV: Form V                        :     24.067u      0.150s     14.514w     13 calls
| | Properties                      :      3.517u      0.050s      2.307w  61126 calls
| | Functional                      :     16.100u      0.033s      9.762w  61126 calls
| | V_xc                            :      4.067u      0.067s      2.311w  61126 calls
| JK: D                             :      0.000u      0.000s      0.000w     13 calls
| JK: USO2AO                        :      0.000u      0.000s      0.000w     13 calls
| JK: JK                            :      0.000u      0.000s      0.011w     13 calls
| | DFH: compute_JK()               :      0.000u      0.000s      0.011w     13 calls
| | | DFH: Grabbing AOs             :      0.000u      0.000s      0.000w     13 calls
| | | DFH: compute_J                :      0.000u      0.000s      0.003w     13 calls
| | | DFH: compute_K                :      0.000u      0.000s      0.007w     13 calls
| JK: AO2USO                        :      0.000u      0.000s      0.000w     13 calls
HF: Form F                          :      0.000u      0.000s      0.000w     13 calls
HF: Form D                          :      0.000u      0.000s      0.000w     13 calls
HF: DIIS                            :      0.017u      0.000s      0.008w     12 calls
| DIISManager::add_entry            :      0.000u      0.000s      0.002w     12 calls
| DIISManager::extrapolate          :      0.000u      0.000s      0.001w     12 calls
| | bMatrix setup                   :      0.000u      0.000s      0.000w     12 calls
| | bMatrix pseudoinverse           :      0.000u      0.000s      0.001w     12 calls
| | New vector                      :      0.000u      0.000s      0.000w     12 calls
HF: Form C                          :      0.000u      0.000s      0.002w     12 calls
Grad: V T Perturb                   :      0.017u      0.000s      0.013w      1 calls
Grad: S                             :      0.000u      0.000s      0.002w      1 calls
Grad: JK                            :      0.367u      0.000s      0.226w      1 calls
| JKGrad: Amn                       :      0.083u      0.000s      0.044w      1 calls
| JKGrad: Awmn                      :      0.000u      0.000s      0.000w      1 calls
| JKGrad: AB                        :      0.067u      0.000s      0.040w      1 calls
| JKGrad: UV                        :      0.000u      0.000s      0.001w      1 calls
| JKGrad: ABx                       :      0.033u      0.000s      0.025w      1 calls
| JKGrad: Amnx                      :      0.150u      0.000s      0.084w      1 calls
Grad: XC                            :      4.167u      0.000s      2.503w      1 calls
| Properties                        :      1.900u      0.000s      1.125w   4702 calls
| Functional                        :      1.283u      0.000s      0.751w   4702 calls
| V_xc gradient                     :      0.983u      0.000s      0.615w   4702 calls

**************************************************************************************
