
 Primary working directories    : /tmp/601555.113.gen4.q
 Secondary working directories  : /tmp/601555.113.gen4.q
 Wavefunction directory         : /home/vulcan/mel64643/wfu/
 Main file repository           : /tmp/601555.113.gen4.q/

 ARCHNAME  : Linux/x86_64
 FC        : /opt/intel/compilers_and_libraries_2016.1.150/linux/bin/intel64/ifort
 FCVERSION : 16.0.1
 BLASLIB   : -mkl
 id        : ccgc

 Nodes     nprocs
 n051         1
 ga_uses_ma=false, calling ma_init with nominal heap.
 GA-space will be limited to   8.0 MW (determined by -G option)

 Using customized tuning parameters: mindgm=10; mindgv=16; mindgc=4; mindgr=1; noblas=0; mincuda=1000; minvec=7
 default implementation of scratch files=df  

 ***,Optimization of min3
 memory,1000,m
 gthresh,energy=1.0d-12,orbital=1.0d-10,oneint=1.0d-16,twoint=1.0d-16,optgrad=1.0d-6,compress=1.0d-13
 geomtyp=xyz
 
  bohr
  geometry = {
  6
  arbitrary comment
  C   -1.3750347467   -0.0235105085    0.0000003539
  O    1.3015297475    0.1179535123    0.0000003108
  H   -2.0856088195    1.9121012903   -0.0000798852
  H   -2.1046580193   -0.9769819064    1.6844306501
  H   -2.1046504934   -0.9771134004   -1.6843585463
  H    1.9446981714   -1.5825811074   -0.0000012934
 }
 
 basis=cc-pvdz
 {rhf;maxit,200}
 {ccsd(t);maxit,200}

 Variables initialized (661), CPU time= 0.00 sec
 Commands  initialized (458), CPU time= 0.01 sec, 486 directives.
 Default parameters read. Elapsed time= 0.04 sec

 Checking input...
 Passed
1


                                         ***  PROGRAM SYSTEM MOLPRO  ***
                         Copyright, University College Cardiff Consultants Limited, 2008

                                    Version 2010.1 linked May 16 2016 07:17:05


 **********************************************************************************************************************************
 LABEL *   Optimization of min3                                                          
 Linux-4.4.3/n051(x86_64) 64 bit mpp version                                             DATE: 06-Nov-21          TIME: 15:40:01  
 **********************************************************************************************************************************

 SHA1:             9e8077add272b0f3cad6f7df79ec5211205f459d
 **********************************************************************************************************************************

 THRESHOLDS:

 ZERO    =  1.00D-12  ONEINT  =  1.00D-16  TWOINT  =  1.00D-16  PREFAC  =  1.00D-14  LOCALI  =  1.00D-09  EORDER  =  1.00D-04
 ENERGY  =  1.00D-12  ETEST   =  0.00D+00  EDENS   =  0.00D+00  THRDEDEF=  1.00D-06  GRADIENT=  1.00D-02  STEP    =  1.00D-03
 ORBITAL =  1.00D-10  CIVEC   =  1.00D-05  COEFF   =  1.00D-04  PRINTCI =  5.00D-02  PUNCHCI =  9.90D+01  OPTGRAD =  1.00D-06
 OPTENERG=  1.00D-06  OPTSTEP =  3.00D-04  THRGRAD =  1.00D-10  COMPRESS=  1.00D-13  VARMIN  =  1.00D-07  VARMAX  =  1.00D-03
 THRDOUB =  0.00D+00  THRDIV  =  1.00D-05  THRRED  =  1.00D-07  THRPSP  =  1.00D+00  THRDC   =  1.00D-10  THRCS   =  1.00D-10
 THRNRM  =  1.00D-08  THREQ   =  0.00D+00  THRDE   =  1.00D+00  THRREF  =  1.00D-05  SPARFAC =  1.00D+00  THRDLP  =  1.00D-07
 THRDIA  =  1.00D-10  THRDLS  =  1.00D-07  THRGPS  =  0.00D+00  THRKEX  =  0.00D+00  THRDIS  =  2.00D-01  THRVAR  =  1.00D-10
 THRLOC  =  1.00D-06  THRGAP  =  1.00D-06  THRLOCT = -1.00D+00  THRGAPT = -1.00D+00  THRORB  =  1.00D-06  THRMLTP =  0.00D+00
 THRCPQCI=  1.00D-10  KEXTA   =  0.00D+00  THRCOARS=  0.00D+00  SYMTOL  =  1.00D-06  GRADTOL =  1.00D-06  THROVL  =  1.00D-08
 THRORTH =  1.00D-08  GRID    =  1.00D-06  GRIDMAX =  1.00D-03  DTMAX   =  0.00D+00

 SETTING GEOMTYP        =    XYZ
 ZUNIT=BOHR
 

 Variable memory set to 1000000000 words,  buffer space   230000 words

 SETTING BASIS          =    CC-PVDZ


 Recomputing integrals since basis changed


 Using spherical harmonics

 Library entry C      S cc-pVDZ              selected for orbital group  1
 Library entry C      P cc-pVDZ              selected for orbital group  1
 Library entry C      D cc-pVDZ              selected for orbital group  1
 Library entry O      S cc-pVDZ              selected for orbital group  2
 Library entry O      P cc-pVDZ              selected for orbital group  2
 Library entry O      D cc-pVDZ              selected for orbital group  2
 Library entry H      S cc-pVDZ              selected for orbital group  3
 Library entry H      P cc-pVDZ              selected for orbital group  3

1PROGRAM * SEWARD (Integral evaluation for generally contracted gaussian basis sets)     Author: Roland Lindh, 1990

 Geometry written to block  1 of record 700


 Point group  C1  



 ATOMIC COORDINATES

 NR  ATOM    CHARGE       X              Y              Z

   1  C       6.00   -1.375034747   -0.023510508    0.000000354
   2  O       8.00    1.301529748    0.117953512    0.000000311
   3  H       1.00   -2.085608819    1.912101290   -0.000079885
   4  H       1.00   -2.104658019   -0.976981906    1.684430650
   5  H       1.00   -2.104650493   -0.977113400   -1.684358546
   6  H       1.00    1.944698171   -1.582581107   -0.000001293

 Bond lengths in Bohr (Angstrom)

 1-2  2.680300274  1-3  2.061918659  1-4  2.068517162  1-5  2.068516985  2-6  1.818098901
     ( 1.418353818)     ( 1.091120361)     ( 1.094612139)     ( 1.094612045)     ( 0.962096502)

 Bond angles

  1-2-6  107.69196183   2-1-3  107.13304320   2-1-4  112.12103119   2-1-5  112.12101436

  3-1-4  108.13058401   3-1-5  108.13043805   4-1-5  109.03652175

 NUCLEAR CHARGE:                   18
 NUMBER OF PRIMITIVE AOS:          82
 NUMBER OF SYMMETRY AOS:           80
 NUMBER OF CONTRACTIONS:           48   (  48A   )
 NUMBER OF CORE ORBITALS:           2   (   2A   )
 NUMBER OF VALENCE ORBITALS:       12   (  12A   )


 NUCLEAR REPULSION ENERGY   40.32296930


 Eigenvalues of metric

         1 0.966E-02 0.177E-01 0.369E-01 0.374E-01 0.384E-01 0.473E-01 0.479E-01 0.520E-01


 Contracted 2-electron integrals neglected if value below      1.0D-16
 AO integral compression algorithm  1   Integral accuracy      1.0D-16

     6.291 MB (compressed) written to integral file ( 98.2%)

     Node minimum: 6.291 MB, node maximum: 6.291 MB


 NUMBER OF SORTED TWO-ELECTRON INTEGRALS:     692076.     BUFFER LENGTH:  32768
 NUMBER OF SEGMENTS:   1  SEGMENT LENGTH:     692076      RECORD LENGTH: 524288

 Memory used in sort:       1.25 MW

 SORT1 READ      832256. AND WROTE      682147. INTEGRALS IN      2 RECORDS. CPU TIME:     0.01 SEC, REAL TIME:     0.01 SEC
 SORT2 READ      682147. AND WROTE      692076. INTEGRALS IN     24 RECORDS. CPU TIME:     0.02 SEC, REAL TIME:     0.02 SEC

 FILE SIZES:   FILE 1:     8.0 MBYTE,  FILE 4:     8.4 MBYTE,   TOTAL:     16.4 MBYTE

 OPERATOR DM      FOR CENTER  0  COORDINATES:    0.000000    0.000000    0.000000


 **********************************************************************************************************************************
 DATASETS  * FILE   NREC   LENGTH (MB)   RECORD NAMES
              1      19        8.03       500      610      700      900      950      970     1000      129      960     1100   
                                          VAR    BASINP    GEOM    SYMINP    ZMAT    AOBASIS   BASIS     P2S    ABASIS      S 
                                         1400     1410     1200     1210     1080     1600     1650     1300     1700   
                                           T        V       H0       H01     AOSYM     SMH    MOLCAS    ERIS     OPER   

 PROGRAMS   *        TOTAL       INT
 CPU TIMES  *         0.23      0.19
 REAL TIME  *         0.42 SEC
 DISK USED  *        23.34 MB      
 GA USED    *         0.00 MB       (max)       0.00 MB       (current)
 **********************************************************************************************************************************

1PROGRAM * RHF-SCF (CLOSED SHELL)       Authors: W. Meyer, H.-J. Werner


 NUMBER OF ELECTRONS:       9+    9-    SPACE SYMMETRY=1    SPIN SYMMETRY: Singlet 
 CONVERGENCE THRESHOLDS:    1.00E-10 (Density)    1.00E-13 (Energy)
 MAX. NUMBER OF ITERATIONS:      200
 INTERPOLATION TYPE:            DIIS
 INTERPOLATION STEPS:              2 (START)      1 (STEP)
 LEVEL SHIFTS:                  0.00 (CLOSED)  0.00 (OPEN) 



 Orbital guess generated from atomic densities. Full valence occupancy:   14

 Molecular orbital dump at record        2100.2

 ITERATION    DDIFF          GRAD             ENERGY        2-EL.EN.            DIPOLE MOMENTS         DIIS
    1      0.000D+00      0.000D+00      -115.01422676    164.431313   -0.48623   -0.90031   -0.00000    0
    2      0.000D+00      0.110D-01      -115.04260277    162.201992   -0.31102   -0.53597   -0.00000    1
    3      0.205D-01      0.530D-02      -115.04862882    163.230837   -0.39424   -0.61095   -0.00000    2
    4      0.639D-02      0.112D-02      -115.04909337    163.073943   -0.38452   -0.59979   -0.00000    3
    5      0.204D-02      0.202D-03      -115.04911445    163.080430   -0.38744   -0.59549   -0.00000    4
    6      0.433D-03      0.356D-04      -115.04911526    163.080590   -0.38778   -0.59528   -0.00000    5
    7      0.933D-04      0.742D-05      -115.04911529    163.079402   -0.38793   -0.59511   -0.00000    6
    8      0.152D-04      0.240D-05      -115.04911529    163.079789   -0.38796   -0.59508   -0.00000    7
    9      0.512D-05      0.499D-06      -115.04911529    163.079747   -0.38798   -0.59508   -0.00000    6
   10      0.144D-05      0.911D-07      -115.04911529    163.079746   -0.38798   -0.59508   -0.00000    6
   11      0.243D-06      0.340D-07      -115.04911529    163.079752   -0.38798   -0.59508   -0.00000    6
   12      0.621D-07      0.144D-07      -115.04911529    163.079750   -0.38798   -0.59508   -0.00000    7
   13      0.268D-07      0.317D-08      -115.04911529    163.079750   -0.38798   -0.59508   -0.00000    7
   14      0.787D-08      0.656D-09      -115.04911529    163.079750   -0.38798   -0.59508   -0.00000    7
   15      0.166D-08      0.154D-09      -115.04911529    163.079750   -0.38798   -0.59508   -0.00000    7
   16      0.343D-09      0.462D-10      -115.04911529    163.079750   -0.38798   -0.59508   -0.00000    7
   17      0.882D-10      0.167D-10      -115.04911529    163.079750   -0.38798   -0.59508   -0.00000    7
   18      0.428D-10      0.304D-11      -115.04911529    163.079750   -0.38798   -0.59508   -0.00000    7
   19      0.710D-11      0.684D-12      -115.04911529    163.079750   -0.38798   -0.59508   -0.00000    7
   20      0.173D-11      0.298D-12      -115.04911529    163.079750   -0.38798   -0.59508   -0.00000    7
   21      0.541D-12      0.795D-13      -115.04911529    163.079750   -0.38798   -0.59508   -0.00000    7
   22      0.180D-12      0.201D-13      -115.04911529    163.079750   -0.38798   -0.59508   -0.00000    0

 Final occupancy:   9

 !RHF STATE 1.1 Energy               -115.049115292353
 Nuclear energy                        40.32296930
 One-electron energy                 -236.91195972
 Two-electron energy                   81.53987513
 Virial quotient                       -1.00095458
 !RHF STATE 1.1 Dipole moment          -0.38798092    -0.59507823    -0.00000281
 Dipole moment /Debye                  -0.98608456    -1.51243893    -0.00000713

 Orbital energies:

         1.1          2.1          3.1          4.1          5.1          6.1          7.1          8.1          9.1         10.1
    -20.549898   -11.274697    -1.349915    -0.920748    -0.682395    -0.614386    -0.585495    -0.495791    -0.442780     0.184434

        11.1
      0.223998


 **********************************************************************************************************************************
 DATASETS  * FILE   NREC   LENGTH (MB)   RECORD NAMES
              1      19        8.03       500      610      700      900      950      970     1000      129      960     1100   
                                          VAR    BASINP    GEOM    SYMINP    ZMAT    AOBASIS   BASIS     P2S    ABASIS      S 
                                         1400     1410     1200     1210     1080     1600     1650     1300     1700   
                                           T        V       H0       H01     AOSYM     SMH    MOLCAS    ERIS     OPER   

              2       3        0.39       700     1000     2100   
                                         GEOM     BASIS     RHF  

 PROGRAMS   *        TOTAL       RHF       INT
 CPU TIMES  *         0.33      0.10      0.19
 REAL TIME  *         0.57 SEC
 DISK USED  *        23.34 MB      
 GA USED    *         0.00 MB       (max)       0.00 MB       (current)
 **********************************************************************************************************************************


1PROGRAM * CCSD (Closed-shell coupled cluster)     Authors: C. Hampel, H.-J. Werner, 1991, M. Deegan, P.J. Knowles, 1992


 Convergence thresholds:  THRVAR = 1.00D-08  THRDEN = 1.00D-12

 CCSD(T)     terms to be evaluated (factor= 1.000)


 Number of core orbitals:           2 (   2 )
 Number of closed-shell orbitals:   7 (   7 )
 Number of external orbitals:      39 (  39 )

 Molecular orbitals read from record     2100.2  Type=RHF/CANONICAL (state 1.1)

 Number of N-1 electron functions:               7
 Number of N-2 electron functions:              28
 Number of singly external CSFs:               273
 Number of doubly external CSFs:             37401
 Total number of CSFs:                       37675

 Length of J-op  integral file:               0.00 MB
 Length of K-op  integral file:               0.19 MB
 Length of 3-ext integral record:             0.00 MB

 Memory could be reduced to 0.96 Mwords without degradation in triples

 Integral transformation finished. Total CPU:   0.02 sec, npass=  1  Memory used:   0.66 MW

 Reference energy:                   -115.04911529

 MP2 singlet pair energy:              -0.21866025
 MP2 triplet pair energy:              -0.11983246
 MP2 correlation energy:               -0.33849271
 MP2 total energy:                   -115.38760800

 SCS-MP2 correlation energy:           -0.33695472   (PS=  1.200000  PT=  0.333333)
 SCS-MP2 total energy:               -115.38607001

 ITER.      SQ.NORM     CORR.ENERGY   TOTAL ENERGY   ENERGY CHANGE        DEN1      VAR(S)    VAR(P)  DIIS     TIME
   1      1.10735266    -0.36130060  -115.41041589    -0.02280789    -0.01412749  0.91D-03  0.17D-02  1  1     0.06
   2      1.11588593    -0.36324979  -115.41236508    -0.00194919    -0.00925469  0.20D-04  0.16D-03  2  2     0.09
   3      1.11776823    -0.36337718  -115.41249247    -0.00012739    -0.00120474  0.94D-05  0.86D-05  3  3     0.13
   4      1.11828332    -0.36337606  -115.41249136     0.00000111    -0.00025480  0.34D-06  0.67D-06  4  4     0.17
   5      1.11838141    -0.36337650  -115.41249179    -0.00000044    -0.00003601  0.10D-06  0.49D-07  5  5     0.21
   6      1.11840053    -0.36337515  -115.41249045     0.00000135    -0.00000437  0.16D-07  0.41D-08  6  6     0.25
   7      1.11840532    -0.36337474  -115.41249003     0.00000042    -0.00000036  0.20D-08  0.73D-09  6  1     0.29
   8      1.11840660    -0.36337484  -115.41249013    -0.00000010     0.00000076  0.26D-09  0.74D-10  6  3     0.33
   9      1.11840767    -0.36337472  -115.41249001     0.00000012    -0.00000038  0.13D-10  0.11D-10  6  2     0.37
  10      1.11840773    -0.36337471  -115.41249001     0.00000000     0.00000000  0.14D-11  0.12D-11  6  4     0.41
  11      1.11840768    -0.36337471  -115.41249001     0.00000000     0.00000003  0.34D-12  0.86D-13  6  5     0.45
  12      1.11840763    -0.36337472  -115.41249001    -0.00000000     0.00000003  0.33D-13  0.13D-13  6  6     0.49
  13      1.11840761    -0.36337472  -115.41249001    -0.00000000     0.00000001  0.39D-14  0.16D-14  6  3     0.53
  14      1.11840761    -0.36337472  -115.41249001    -0.00000000     0.00000000  0.29D-15  0.15D-15  6  1     0.57
  15      1.11840761    -0.36337472  -115.41249001     0.00000000    -0.00000000  0.36D-16  0.32D-16  6  2     0.61
  16      1.11840761    -0.36337472  -115.41249001     0.00000000    -0.00000000  0.32D-17  0.16D-17  6  5     0.65
  17      1.11840761    -0.36337472  -115.41249001    -0.00000000     0.00000000  0.13D-18  0.13D-18  6  4     0.68
  18      1.11840761    -0.36337472  -115.41249001     0.00000000    -0.00000000  0.27D-19  0.12D-19  6  3     0.73
  19      1.11840761    -0.36337472  -115.41249001     0.00000000    -0.00000000  0.26D-20  0.10D-20  6  6     0.76
  20      1.11840761    -0.36337472  -115.41249001     0.00000000    -0.00000000  0.42D-21  0.17D-21  6  1     0.80

 Norm of t1 vector:      0.04159503      S-energy:    -0.00000000      T1 diagnostic:  0.00786072
                                                                       D1 diagnostic:  0.01743687


 Total CPU time for triples:      0.21 sec


 RESULTS
 =======

  Reference energy                   -115.049115292353
  CCSD singlet pair energy             -0.254629819525
  CCSD triplet pair energy             -0.108744898912
  CCSD correlation energy              -0.363374718437

  Triples (T) contribution             -0.007733472004
  Total correlation energy             -0.371108190441

  CCSD total energy                  -115.412490010790
  CCSD[T] energy                     -115.420512495847
  CCSD-T energy                      -115.420073913606
 !CCSD(T) total energy               -115.420223482794

 Timing summary (sec):

 STEP                 CPU(USER)    SYS     CPU(TOT)    WALL
 Transformation          0.02      0.00      0.02      0.02
 CCSD iterations         0.78      0.04      0.82      0.87
 Triples                 0.21      0.01      0.22      0.21

 Program statistics:

 Available memory in ccsd:               999999704
 Min. memory needed in ccsd:                136801
 Max. memory used in ccsd:                  163198
 Max. memory used in cckext:                182024 (20 integral passes)



 **********************************************************************************************************************************
 DATASETS  * FILE   NREC   LENGTH (MB)   RECORD NAMES
              1      20       10.56       500      610      700      900      950      970     1000      129      960     1100   
                                          VAR    BASINP    GEOM    SYMINP    ZMAT    AOBASIS   BASIS     P2S    ABASIS      S 
                                         1400     1410     1200     1210     1080     1600     1650     1300     1700     1380   
                                           T        V       H0       H01     AOSYM     SMH    MOLCAS    ERIS     OPER     JKOP   

              2       3        0.39       700     1000     2100   
                                         GEOM     BASIS     RHF  

 PROGRAMS   *        TOTAL   CCSD(T)       RHF       INT
 CPU TIMES  *         1.35      1.02      0.10      0.19
 REAL TIME  *         1.70 SEC
 DISK USED  *        24.76 MB      
 GA USED    *         0.00 MB       (max)       0.00 MB       (current)
 **********************************************************************************************************************************

        CCSD(T)         RHF-SCF 
   -115.42022348   -115.04911529
 **********************************************************************************************************************************
 Variable memory released
