
 Primary working directories    : /tmp/601556.5.gen4.q
 Secondary working directories  : /tmp/601556.5.gen4.q
 Wavefunction directory         : /home/vulcan/mel64643/wfu/
 Main file repository           : /tmp/601556.5.gen4.q/

 ARCHNAME  : Linux/x86_64
 FC        : /opt/intel/compilers_and_libraries_2016.1.150/linux/bin/intel64/ifort
 FCVERSION : 16.0.1
 BLASLIB   : -mkl
 id        : ccgc

 Nodes     nprocs
 n065         1
 ga_uses_ma=false, calling ma_init with nominal heap.
 GA-space will be limited to   8.0 MW (determined by -G option)

 Using customized tuning parameters: mindgm=10; mindgv=16; mindgc=4; mindgr=1; noblas=0; mincuda=1000; minvec=7
 default implementation of scratch files=df  

 ***,Optimization of min3
 memory,1000,m
 gthresh,energy=1.0d-12,orbital=1.0d-10,oneint=1.0d-16,twoint=1.0d-16,optgrad=1.0d-6,compress=1.0d-13
 geomtyp=xyz
 
  bohr
  geometry = {
  6
  arbitrary comment
  C   -1.3749121173   -0.0274229629   -0.0000009122
  O    1.3010072180    0.1198935115   -0.0000007427
  H   -2.0713649921    1.9088244394   -0.0000755586
  H   -2.1129397239   -0.9787263522    1.6823956438
  H   -2.1129288600   -0.9788638988   -1.6823248122
  H    1.9474143154   -1.5738368570   -0.0000020281
 }
 
 basis=cc-pvtz
 {rhf;maxit,200}
 {ccsd(t);maxit,200}

 Variables initialized (661), CPU time= 0.00 sec
 Commands  initialized (458), CPU time= 0.00 sec, 486 directives.
 Default parameters read. Elapsed time= 0.05 sec

 Checking input...
 Passed
1


                                         ***  PROGRAM SYSTEM MOLPRO  ***
                         Copyright, University College Cardiff Consultants Limited, 2008

                                    Version 2010.1 linked May 16 2016 07:17:05


 **********************************************************************************************************************************
 LABEL *   Optimization of min3                                                          
 Linux-4.4.3/n065(x86_64) 64 bit mpp version                                             DATE: 06-Nov-21          TIME: 15:41:16  
 **********************************************************************************************************************************

 SHA1:             9e8077add272b0f3cad6f7df79ec5211205f459d
 **********************************************************************************************************************************

 THRESHOLDS:

 ZERO    =  1.00D-12  ONEINT  =  1.00D-16  TWOINT  =  1.00D-16  PREFAC  =  1.00D-14  LOCALI  =  1.00D-09  EORDER  =  1.00D-04
 ENERGY  =  1.00D-12  ETEST   =  0.00D+00  EDENS   =  0.00D+00  THRDEDEF=  1.00D-06  GRADIENT=  1.00D-02  STEP    =  1.00D-03
 ORBITAL =  1.00D-10  CIVEC   =  1.00D-05  COEFF   =  1.00D-04  PRINTCI =  5.00D-02  PUNCHCI =  9.90D+01  OPTGRAD =  1.00D-06
 OPTENERG=  1.00D-06  OPTSTEP =  3.00D-04  THRGRAD =  1.00D-10  COMPRESS=  1.00D-13  VARMIN  =  1.00D-07  VARMAX  =  1.00D-03
 THRDOUB =  0.00D+00  THRDIV  =  1.00D-05  THRRED  =  1.00D-07  THRPSP  =  1.00D+00  THRDC   =  1.00D-10  THRCS   =  1.00D-10
 THRNRM  =  1.00D-08  THREQ   =  0.00D+00  THRDE   =  1.00D+00  THRREF  =  1.00D-05  SPARFAC =  1.00D+00  THRDLP  =  1.00D-07
 THRDIA  =  1.00D-10  THRDLS  =  1.00D-07  THRGPS  =  0.00D+00  THRKEX  =  0.00D+00  THRDIS  =  2.00D-01  THRVAR  =  1.00D-10
 THRLOC  =  1.00D-06  THRGAP  =  1.00D-06  THRLOCT = -1.00D+00  THRGAPT = -1.00D+00  THRORB  =  1.00D-06  THRMLTP =  0.00D+00
 THRCPQCI=  1.00D-10  KEXTA   =  0.00D+00  THRCOARS=  0.00D+00  SYMTOL  =  1.00D-06  GRADTOL =  1.00D-06  THROVL  =  1.00D-08
 THRORTH =  1.00D-08  GRID    =  1.00D-06  GRIDMAX =  1.00D-03  DTMAX   =  0.00D+00

 SETTING GEOMTYP        =    XYZ
 ZUNIT=BOHR
 

 Variable memory set to 1000000000 words,  buffer space   230000 words

 SETTING BASIS          =    CC-PVTZ


 Recomputing integrals since basis changed


 Using spherical harmonics

 Library entry C      S cc-pVTZ              selected for orbital group  1
 Library entry C      P cc-pVTZ              selected for orbital group  1
 Library entry C      D cc-pVTZ              selected for orbital group  1
 Library entry C      F cc-pVTZ              selected for orbital group  1
 Library entry O      S cc-pVTZ              selected for orbital group  2
 Library entry O      P cc-pVTZ              selected for orbital group  2
 Library entry O      D cc-pVTZ              selected for orbital group  2
 Library entry O      F cc-pVTZ              selected for orbital group  2
 Library entry H      S cc-pVTZ              selected for orbital group  3
 Library entry H      P cc-pVTZ              selected for orbital group  3
 Library entry H      D cc-pVTZ              selected for orbital group  3

1PROGRAM * SEWARD (Integral evaluation for generally contracted gaussian basis sets)     Author: Roland Lindh, 1990

 Geometry written to block  1 of record 700


 Point group  C1  



 ATOMIC COORDINATES

 NR  ATOM    CHARGE       X              Y              Z

   1  C       6.00   -1.374912117   -0.027422963   -0.000000912
   2  O       8.00    1.301007218    0.119893511   -0.000000743
   3  H       1.00   -2.071364992    1.908824439   -0.000075559
   4  H       1.00   -2.112939724   -0.978726352    1.682395644
   5  H       1.00   -2.112928860   -0.978863899   -1.682324812
   6  H       1.00    1.947414315   -1.573836857   -0.000002028

 Bond lengths in Bohr (Angstrom)

 1-2  2.679971349  1-3  2.057693032  1-4  2.068845344  1-5  2.068845637  2-6  1.812888495
     ( 1.418179759)     ( 1.088884256)     ( 1.094785805)     ( 1.094785960)     ( 0.959339274)

 Bond angles

  1-2-6  107.73810033   2-1-3  106.63215282   2-1-4  112.42482136   2-1-5  112.42472591

  3-1-4  108.17815330   3-1-5  108.17847258   4-1-5  108.81716560

 NUCLEAR CHARGE:                   18
 NUMBER OF PRIMITIVE AOS:         162
 NUMBER OF SYMMETRY AOS:          148
 NUMBER OF CONTRACTIONS:          116   ( 116A   )
 NUMBER OF CORE ORBITALS:           2   (   2A   )
 NUMBER OF VALENCE ORBITALS:       12   (  12A   )


 NUCLEAR REPULSION ENERGY   40.34622082


 Eigenvalues of metric

         1 0.133E-02 0.180E-02 0.191E-02 0.234E-02 0.330E-02 0.459E-02 0.735E-02 0.100E-01


 Contracted 2-electron integrals neglected if value below      1.0D-16
 AO integral compression algorithm  1   Integral accuracy      1.0D-16

     196.346 MB (compressed) written to integral file ( 92.1%)

     Node minimum: 196.346 MB, node maximum: 196.346 MB


 NUMBER OF SORTED TWO-ELECTRON INTEGRALS:   23028291.     BUFFER LENGTH:  32768
 NUMBER OF SEGMENTS:   2  SEGMENT LENGTH:   15997996      RECORD LENGTH: 524288

 Memory used in sort:      16.56 MW

 SORT1 READ    26631627. AND WROTE    22813214. INTEGRALS IN     67 RECORDS. CPU TIME:     0.26 SEC, REAL TIME:     0.39 SEC
 SORT2 READ    22813214. AND WROTE    23028291. INTEGRALS IN    749 RECORDS. CPU TIME:     0.23 SEC, REAL TIME:     0.32 SEC

 FILE SIZES:   FILE 1:   175.8 MBYTE,  FILE 4:   281.1 MBYTE,   TOTAL:    456.9 MBYTE

 OPERATOR DM      FOR CENTER  0  COORDINATES:    0.000000    0.000000    0.000000


 **********************************************************************************************************************************
 DATASETS  * FILE   NREC   LENGTH (MB)   RECORD NAMES
              1      19      175.99       500      610      700      900      950      970     1000      129      960     1100   
                                          VAR    BASINP    GEOM    SYMINP    ZMAT    AOBASIS   BASIS     P2S    ABASIS      S 
                                         1400     1410     1200     1210     1080     1600     1650     1300     1700   
                                           T        V       H0       H01     AOSYM     SMH    MOLCAS    ERIS     OPER   

 PROGRAMS   *        TOTAL       INT
 CPU TIMES  *         1.61      1.57
 REAL TIME  *         2.12 SEC
 DISK USED  *       653.87 MB      
 GA USED    *         0.00 MB       (max)       0.00 MB       (current)
 **********************************************************************************************************************************

1PROGRAM * RHF-SCF (CLOSED SHELL)       Authors: W. Meyer, H.-J. Werner


 NUMBER OF ELECTRONS:       9+    9-    SPACE SYMMETRY=1    SPIN SYMMETRY: Singlet 
 CONVERGENCE THRESHOLDS:    1.00E-10 (Density)    1.00E-13 (Energy)
 MAX. NUMBER OF ITERATIONS:      200
 INTERPOLATION TYPE:            DIIS
 INTERPOLATION STEPS:              2 (START)      1 (STEP)
 LEVEL SHIFTS:                  0.00 (CLOSED)  0.00 (OPEN) 



 Orbital guess generated from atomic densities. Full valence occupancy:   14

 Molecular orbital dump at record        2100.2

 ITERATION    DDIFF          GRAD             ENERGY        2-EL.EN.            DIPOLE MOMENTS         DIIS
    1      0.000D+00      0.000D+00      -115.05331816    164.514633   -0.47556   -0.90383   -0.00000    0
    2      0.000D+00      0.474D-02      -115.08161541    162.060106   -0.29115   -0.50109   -0.00000    1
    3      0.784D-02      0.254D-02      -115.08866275    163.231653   -0.38206   -0.59876   -0.00000    2
    4      0.257D-02      0.497D-03      -115.08916895    163.075842   -0.37537   -0.59280   -0.00000    3
    5      0.687D-03      0.979D-04      -115.08919973    163.082928   -0.37901   -0.58811   -0.00000    4
    6      0.186D-03      0.185D-04      -115.08920108    163.081546   -0.37942   -0.58811   -0.00000    5
    7      0.478D-04      0.393D-05      -115.08920114    163.080625   -0.37961   -0.58790   -0.00000    6
    8      0.909D-05      0.119D-05      -115.08920114    163.081090   -0.37964   -0.58787   -0.00000    7
    9      0.234D-05      0.323D-06      -115.08920114    163.080985   -0.37965   -0.58786   -0.00000    6
   10      0.770D-06      0.600D-07      -115.08920114    163.080996   -0.37965   -0.58786   -0.00000    6
   11      0.159D-06      0.152D-07      -115.08920114    163.081000   -0.37965   -0.58786   -0.00000    6
   12      0.301D-07      0.639D-08      -115.08920114    163.080998   -0.37965   -0.58786   -0.00000    7
   13      0.112D-07      0.172D-08      -115.08920114    163.080998   -0.37965   -0.58786   -0.00000    7
   14      0.349D-08      0.351D-09      -115.08920114    163.080998   -0.37965   -0.58786   -0.00000    7
   15      0.840D-09      0.900D-10      -115.08920114    163.080998   -0.37965   -0.58786   -0.00000    7
   16      0.181D-09      0.223D-10      -115.08920114    163.080998   -0.37965   -0.58786   -0.00000    7
   17      0.507D-10      0.732D-11      -115.08920114    163.080998   -0.37965   -0.58786   -0.00000    7
   18      0.146D-10      0.156D-11      -115.08920114    163.080998   -0.37965   -0.58786   -0.00000    7
   19      0.300D-11      0.657D-12      -115.08920114    163.080998   -0.37965   -0.58786   -0.00000    0

 Final occupancy:   9

 !RHF STATE 1.1 Energy               -115.089201144530
 Nuclear energy                        40.34622082
 One-electron energy                 -236.97592105
 Two-electron energy                   81.54049909
 Virial quotient                       -1.00124830
 !RHF STATE 1.1 Dipole moment          -0.37965277    -0.58785797    -0.00000192
 Dipole moment /Debye                  -0.96491788    -1.49408806    -0.00000487

 Orbital energies:

         1.1          2.1          3.1          4.1          5.1          6.1          7.1          8.1          9.1         10.1
    -20.552555   -11.269470    -1.354887    -0.923100    -0.688552    -0.617967    -0.590485    -0.501475    -0.448970     0.138518

        11.1
      0.178586


 **********************************************************************************************************************************
 DATASETS  * FILE   NREC   LENGTH (MB)   RECORD NAMES
              1      19      175.99       500      610      700      900      950      970     1000      129      960     1100   
                                          VAR    BASINP    GEOM    SYMINP    ZMAT    AOBASIS   BASIS     P2S    ABASIS      S 
                                         1400     1410     1200     1210     1080     1600     1650     1300     1700   
                                           T        V       H0       H01     AOSYM     SMH    MOLCAS    ERIS     OPER   

              2       3        0.63       700     1000     2100   
                                         GEOM     BASIS     RHF  

 PROGRAMS   *        TOTAL       RHF       INT
 CPU TIMES  *         4.81      3.20      1.57
 REAL TIME  *         5.74 SEC
 DISK USED  *       653.87 MB      
 GA USED    *         0.00 MB       (max)       0.00 MB       (current)
 **********************************************************************************************************************************


1PROGRAM * CCSD (Closed-shell coupled cluster)     Authors: C. Hampel, H.-J. Werner, 1991, M. Deegan, P.J. Knowles, 1992


 Convergence thresholds:  THRVAR = 1.00D-08  THRDEN = 1.00D-12

 CCSD(T)     terms to be evaluated (factor= 1.000)


 Number of core orbitals:           2 (   2 )
 Number of closed-shell orbitals:   7 (   7 )
 Number of external orbitals:     107 ( 107 )

 Molecular orbitals read from record     2100.2  Type=RHF/CANONICAL (state 1.1)

 Number of N-1 electron functions:               7
 Number of N-2 electron functions:              28
 Number of singly external CSFs:               749
 Number of doubly external CSFs:            280875
 Total number of CSFs:                      281625

 Length of J-op  integral file:               0.00 MB
 Length of K-op  integral file:               0.96 MB
 Length of 3-ext integral record:             0.00 MB

 Memory could be reduced to 12.77 Mwords without degradation in triples

 Integral transformation finished. Total CPU:   0.59 sec, npass=  1  Memory used:   7.23 MW

 Reference energy:                   -115.08920114

 MP2 singlet pair energy:              -0.28095893
 MP2 triplet pair energy:              -0.14729024
 MP2 correlation energy:               -0.42824917
 MP2 total energy:                   -115.51745031

 SCS-MP2 correlation energy:           -0.42879797   (PS=  1.200000  PT=  0.333333)
 SCS-MP2 total energy:               -115.51799912

 ITER.      SQ.NORM     CORR.ENERGY   TOTAL ENERGY   ENERGY CHANGE        DEN1      VAR(S)    VAR(P)  DIIS     TIME
   1      1.11794195    -0.44554138  -115.53474253    -0.01729221    -0.00695917  0.12D-02  0.18D-02  1  1     1.24
   2      1.12581060    -0.44672685  -115.53592799    -0.00118547    -0.00943742  0.16D-04  0.22D-03  2  2     1.93
   3      1.12839390    -0.44680302  -115.53600416    -0.00007617    -0.00177921  0.75D-05  0.10D-04  3  3     2.63
   4      1.12903129    -0.44680445  -115.53600559    -0.00000143    -0.00033171  0.35D-06  0.84D-06  4  4     3.32
   5      1.12913615    -0.44680626  -115.53600740    -0.00000181    -0.00003975  0.11D-06  0.65D-07  5  5     4.02
   6      1.12916094    -0.44680411  -115.53600526     0.00000215    -0.00000741  0.18D-07  0.50D-08  6  6     4.72
   7      1.12916450    -0.44680402  -115.53600516     0.00000009    -0.00000027  0.26D-08  0.89D-09  6  2     5.41
   8      1.12916583    -0.44680397  -115.53600511     0.00000005     0.00000002  0.42D-09  0.11D-09  6  1     6.10
   9      1.12916656    -0.44680392  -115.53600506     0.00000005    -0.00000003  0.28D-10  0.17D-10  6  3     6.80
  10      1.12916664    -0.44680393  -115.53600508    -0.00000002     0.00000007  0.25D-11  0.19D-11  6  4     7.50
  11      1.12916650    -0.44680394  -115.53600508    -0.00000001     0.00000011  0.23D-12  0.12D-12  6  6     8.20
  12      1.12916649    -0.44680394  -115.53600509    -0.00000000     0.00000001  0.26D-13  0.10D-13  6  5     8.89
  13      1.12916649    -0.44680394  -115.53600509    -0.00000000    -0.00000000  0.56D-14  0.17D-14  6  2     9.59
  14      1.12916649    -0.44680394  -115.53600509     0.00000000    -0.00000000  0.43D-15  0.14D-15  6  1    10.28
  15      1.12916649    -0.44680394  -115.53600509    -0.00000000    -0.00000000  0.62D-16  0.28D-16  6  3    10.98
  16      1.12916649    -0.44680394  -115.53600509     0.00000000     0.00000000  0.18D-16  0.33D-17  6  4    11.68
  17      1.12916649    -0.44680394  -115.53600509    -0.00000000     0.00000000  0.12D-17  0.71D-18  6  5    12.37
  18      1.12916649    -0.44680394  -115.53600509    -0.00000000     0.00000000  0.92D-19  0.45D-19  6  6    13.05
  19      1.12916649    -0.44680394  -115.53600509     0.00000000    -0.00000000  0.19D-19  0.97D-20  6  2    13.75
  20      1.12916649    -0.44680394  -115.53600509     0.00000000    -0.00000000  0.13D-20  0.73D-21  6  1    14.45

 Norm of t1 vector:      0.04461477      S-energy:    -0.00000000      T1 diagnostic:  0.00843140
                                                                       D1 diagnostic:  0.01713783


 Total CPU time for triples:      7.30 sec


 RESULTS
 =======

  Reference energy                   -115.089201144529
  CCSD singlet pair energy             -0.313047885829
  CCSD triplet pair energy             -0.133756057262
  CCSD correlation energy              -0.446803943091

  Triples (T) contribution             -0.014772840705
  Total correlation energy             -0.461576783796

  CCSD total energy                  -115.536005087621
  CCSD[T] energy                     -115.551242635915
  CCSD-T energy                      -115.550513224867
 !CCSD(T) total energy               -115.550777928325

 Timing summary (sec):

 STEP                 CPU(USER)    SYS     CPU(TOT)    WALL
 Transformation          0.61      0.07      0.68      0.68
 CCSD iterations        13.84      0.68     14.52     14.57
 Triples                 7.30      0.15      7.45      7.45

 Program statistics:

 Available memory in ccsd:               999999704
 Min. memory needed in ccsd:                915605
 Max. memory used in ccsd:                 1141922
 Max. memory used in cckext:                874802 (20 integral passes)



 **********************************************************************************************************************************
 DATASETS  * FILE   NREC   LENGTH (MB)   RECORD NAMES
              1      20      215.39       500      610      700      900      950      970     1000      129      960     1100   
                                          VAR    BASINP    GEOM    SYMINP    ZMAT    AOBASIS   BASIS     P2S    ABASIS      S 
                                         1400     1410     1200     1210     1080     1600     1650     1300     1700     1380   
                                           T        V       H0       H01     AOSYM     SMH    MOLCAS    ERIS     OPER     JKOP   

              2       3        0.63       700     1000     2100   
                                         GEOM     BASIS     RHF  

 PROGRAMS   *        TOTAL   CCSD(T)       RHF       INT
 CPU TIMES  *        26.58     21.77      3.20      1.57
 REAL TIME  *        28.47 SEC
 DISK USED  *       653.87 MB      
 GA USED    *         0.00 MB       (max)       0.00 MB       (current)
 **********************************************************************************************************************************

        CCSD(T)         RHF-SCF 
   -115.55077793   -115.08920114
 **********************************************************************************************************************************
 Variable memory released
