
    -----------------------------------------------------------------------
          Psi4: An Open-Source Ab Initio Electronic Structure Package
                               Psi4 1.4a2.dev629 

                         Git: Rev {master} 2938fc2 dirty


    D. G. A. Smith, L. A. Burns, A. C. Simmonett, R. M. Parrish,
    M. C. Schieber, R. Galvelis, P. Kraus, H. Kruse, R. Di Remigio,
    A. Alenaizan, A. M. James, S. Lehtola, J. P. Misiewicz, M. Scheurer,
    R. A. Shaw, J. B. Schriber, Y. Xie, Z. L. Glick, D. A. Sirianni,
    J. S. O'Brien, J. M. Waldrop, A. Kumar, E. G. Hohenstein,
    B. P. Pritchard, B. R. Brooks, H. F. Schaefer III, A. Yu. Sokolov,
    K. Patkowski, A. E. DePrince III, U. Bozkaya, R. A. King,
    F. A. Evangelista, J. M. Turney, T. D. Crawford, C. D. Sherrill,
    J. Chem. Phys. 152(18) 184108 (2020). https://doi.org/10.1063/5.0006002

                            Additional Code Authors
    E. T. Seidl, C. L. Janssen, E. F. Valeev, M. L. Leininger,
    J. F. Gonthier, R. M. Richard, H. R. McAlexander, M. Saitow, X. Wang,
    P. Verma, and M. H. Lechner

             Previous Authors, Complete List of Code Contributors,
                       and Citations for Specific Modules
    https://github.com/psi4/psi4/blob/master/codemeta.json
    https://github.com/psi4/psi4/graphs/contributors
    http://psicode.org/psi4manual/master/introduction.html#citing-psifour

    -----------------------------------------------------------------------


    Psi4 started on: Wednesday, 21 September 2022 04:10PM

    Process ID: 214534
    Host:       n070
    PSIDATADIR: /opt/psi/4/master/share/psi4
    Memory:     500.0 MiB
    Threads:    1
    
  ==> Input File <==

--------------------------------------------------------------------------
# o-Benzyne preliminary computations

memory 14 gb

molecule {
  0 1
  units bohr
 C   -1.3750292100   -0.0232096195    0.0000004538
 O    1.3042828609    0.1253142039    0.0000002389
 H   -2.0765235580    1.9092864009   -0.0000799492
 H   -2.1093121957   -0.9800877238    1.6818536952
 H   -2.1093051188   -0.9802189285   -1.6817815191
 H    1.9421630617   -1.5812164529   -0.0000013295
  no_reorient
  no_com
}

set {
  basis 6-31g*
  reference rhf
  e_convergence 10 
  d_convergence 10
  r_convergence 8
  maxiter 300
  dft_spherical_points 1202
  dft_radial_points 99
  freeze_core True
}


#gradient('ccsd(t)')
gradient('b3lyp')
--------------------------------------------------------------------------

  Memory set to  13.039 GiB by Python driver.

Scratch directory: /tmp/
gradient() will perform analytic gradient computation.

*** tstart() called on n070
*** at Wed Sep 21 16:10:57 2022

   => Loading Basis Set <=

    Name: 6-31G*
    Role: ORBITAL
    Keyword: BASIS
    atoms 1   entry C          line   111 file /opt/psi/4/master/share/psi4/basis/6-31gs.gbs 
    atoms 2   entry O          line   145 file /opt/psi/4/master/share/psi4/basis/6-31gs.gbs 
    atoms 3-6 entry H          line    44 file /opt/psi/4/master/share/psi4/basis/6-31gs.gbs 


         ---------------------------------------------------------
                                   SCF
               by Justin Turney, Rob Parrish, Andy Simmonett
                          and Daniel G. A. Smith
                              RKS Reference
                        1 Threads,  13351 MiB Core
         ---------------------------------------------------------

  ==> Geometry <==

    Molecular point group: c1
    Full point group: C1

    Geometry (in Bohr), charge = 0, multiplicity = 1:

       Center              X                  Y                   Z               Mass       
    ------------   -----------------  -----------------  -----------------  -----------------
         C           -1.375029210000    -0.023209619500     0.000000453800    12.000000000000
         O            1.304282860900     0.125314203900     0.000000238900    15.994914619570
         H           -2.076523558000     1.909286400900    -0.000079949200     1.007825032230
         H           -2.109312195700    -0.980087723800     1.681853695200     1.007825032230
         H           -2.109305118800    -0.980218928500    -1.681781519100     1.007825032230
         H            1.942163061700    -1.581216452900    -0.000001329500     1.007825032230

  Running in c1 symmetry.

  Rotational constants: A =      4.27282  B =      0.82789  C =      0.79839 [cm^-1]
  Rotational constants: A = 128095.91729  B =  24819.42958  C =  23935.15892 [MHz]
  Nuclear repulsion =   40.297956784201979

  Charge       = 0
  Multiplicity = 1
  Electrons    = 18
  Nalpha       = 9
  Nbeta        = 9

  ==> Algorithm <==

  SCF Algorithm Type is DF.
  DIIS enabled.
  MOM disabled.
  Fractional occupation disabled.
  Guess Type is SAD.
  Energy threshold   = 1.00e-10
  Density threshold  = 1.00e-10
  Integral threshold = 0.00e+00

  ==> Primary Basis <==

  Basis Set: 6-31G*
    Blend: 6-31G*
    Number of shells: 20
    Number of basis function: 38
    Number of Cartesian functions: 38
    Spherical Harmonics?: false
    Max angular momentum: 2

  ==> DFT Potential <==

   => Composite Functional: B3LYP <= 

    B3LYP Hyb-GGA Exchange-Correlation Functional

    P. J. Stephens, F. J. Devlin, C. F. Chabalowski, and M. J. Frisch, J. Phys. Chem. 98, 11623 (1994)

    Deriv               =              1
    GGA                 =           TRUE
    Meta                =          FALSE

    Exchange Hybrid     =           TRUE
    MP2 Hybrid          =          FALSE

   => Exchange Functionals <=

    0.0800   Slater exchange
    0.7200         Becke 88

   => Exact (HF) Exchange <=

    0.2000               HF 

   => Correlation Functionals <=

    0.1900   Vosko, Wilk & Nusair (VWN5_RPA)
    0.8100   Lee, Yang & Parr

   => Molecular Quadrature <=

    Radial Scheme          =       TREUTLER
    Pruning Scheme         =           NONE
    Nuclear Scheme         =       TREUTLER

    BS radius alpha        =              1
    Pruning alpha          =              1
    Radial Points          =             99
    Spherical Points       =           1202
    Total Points           =         678849
    Total Blocks           =           4722
    Max Points             =            256
    Max Functions          =             38
    Weights Tolerance      =       1.00E-15

   => Loading Basis Set <=

    Name: (6-31G* AUX)
    Role: JKFIT
    Keyword: DF_BASIS_SCF
    atoms 1   entry C          line   121 file /opt/psi/4/master/share/psi4/basis/cc-pvdz-jkfit.gbs 
    atoms 2   entry O          line   221 file /opt/psi/4/master/share/psi4/basis/cc-pvdz-jkfit.gbs 
    atoms 3-6 entry H          line    51 file /opt/psi/4/master/share/psi4/basis/cc-pvdz-jkfit.gbs 

  ==> Integral Setup <==

  DFHelper Memory: AOs need 0.004 GiB; user supplied 9.070 GiB. Using in-core AOs.

  ==> MemDFJK: Density-Fitted J/K Matrices <==

    J tasked:                   Yes
    K tasked:                   Yes
    wK tasked:                   No
    OpenMP threads:               1
    Memory [MiB]:              9287
    Algorithm:                 Core
    Schwarz Cutoff:           1E-12
    Mask sparsity (%):       0.0000
    Fitting Condition:        1E-10

   => Auxiliary Basis Set <=

  Basis Set: (6-31G* AUX)
    Blend: CC-PVDZ-JKFIT
    Number of shells: 84
    Number of basis function: 262
    Number of Cartesian functions: 262
    Spherical Harmonics?: false
    Max angular momentum: 3

  Cached 100.0% of DFT collocation blocks in 0.709 [GiB].

  Minimum eigenvalue in the overlap matrix is 9.7295354815E-03.
  Reciprocal condition number of the overlap matrix is 1.6218341086E-03.
    Using symmetric orthogonalization.

  ==> Pre-Iterations <==

  SCF Guess: Superposition of Atomic Densities via on-the-fly atomic UHF (no occupation information).

   -------------------------
    Irrep   Nso     Nmo    
   -------------------------
     A         38      38 
   -------------------------
    Total      38      38
   -------------------------

  ==> Iterations <==

                           Total Energy        Delta E     RMS |[F,P]|

   @DF-RKS iter SAD:  -115.27537567146126   -1.15275e+02   0.00000e+00 
   @DF-RKS iter   1:  -115.54936610741957   -2.73990e-01   1.60846e-02 DIIS
   @DF-RKS iter   2:  -115.44914732885056    1.00219e-01   2.11093e-02 DIIS
   @DF-RKS iter   3:  -115.71157970064432   -2.62432e-01   2.15659e-03 DIIS
   @DF-RKS iter   4:  -115.71407228447353   -2.49258e-03   6.75132e-04 DIIS
   @DF-RKS iter   5:  -115.71434037541934   -2.68091e-04   8.14576e-05 DIIS
   @DF-RKS iter   6:  -115.71434427859094   -3.90317e-06   8.63302e-06 DIIS
   @DF-RKS iter   7:  -115.71434432578266   -4.71917e-08   7.77099e-07 DIIS
   @DF-RKS iter   8:  -115.71434432619792   -4.15255e-10   1.08490e-07 DIIS
   @DF-RKS iter   9:  -115.71434432620615   -8.22808e-12   2.06604e-08 DIIS
   @DF-RKS iter  10:  -115.71434432620654   -3.97904e-13   1.33186e-09 DIIS
   @DF-RKS iter  11:  -115.71434432620646    8.52651e-14   1.18571e-10 DIIS
   @DF-RKS iter  12:  -115.71434432620659   -1.27898e-13   2.18497e-11 DIIS
  Energy and wave function converged.


  ==> Post-Iterations <==

    Orbital Energies [Eh]
    ---------------------

    Doubly Occupied:                                                      

       1A    -19.138936     2A    -10.222954     3A     -1.010729  
       4A     -0.679696     5A     -0.502332     6A     -0.435452  
       7A     -0.419700     8A     -0.330740     9A     -0.264290  

    Virtual:                                                              

      10A      0.076263    11A      0.132512    12A      0.168510  
      13A      0.176485    14A      0.205409    15A      0.533964  
      16A      0.566170    17A      0.575578    18A      0.789934  
      19A      0.853259    20A      0.872365    21A      0.906588  
      22A      0.955049    23A      0.976895    24A      1.024824  
      25A      1.115112    26A      1.463155    27A      1.502129  
      28A      1.585089    29A      1.744728    30A      2.042672  
      31A      2.117249    32A      2.136905    33A      2.351452  
      34A      2.402411    35A      2.451706    36A      2.793407  
      37A      3.698574    38A      4.216855  

    Final Occupation by Irrep:
              A 
    DOCC [     9 ]

  @DF-RKS Final Energy:  -115.71434432620659

   => Energetics <=

    Nuclear Repulsion Energy =             40.2979567842019790
    One-Electron Energy =                -236.9980408092437472
    Two-Electron Energy =                  93.5367436571420399
    DFT Exchange-Correlation Energy =     -12.5510039583068522
    Empirical Dispersion Energy =           0.0000000000000000
    VV10 Nonlocal Energy =                  0.0000000000000000
    Total Energy =                       -115.7143443262065858

Computation Completed


Properties will be evaluated at   0.000000,   0.000000,   0.000000 [a0]

Properties computed using the SCF density matrix

  Nuclear Dipole Moment: [e a0]
     X:    -2.1689      Y:    -0.7690      Z:    -0.0000

  Electronic Dipole Moment: [e a0]
     X:     1.8381      Y:     0.1841      Z:     0.0000

  Dipole Moment: [e a0]
     X:    -0.3308      Y:    -0.5849      Z:    -0.0000     Total:     0.6720

  Dipole Moment: [D]
     X:    -0.8407      Y:    -1.4867      Z:    -0.0000     Total:     1.7080


*** tstop() called on n070 at Wed Sep 21 16:11:14 2022
Module time:
	user time   =      17.09 seconds =       0.28 minutes
	system time =       0.33 seconds =       0.01 minutes
	total time  =         17 seconds =       0.28 minutes
Total time:
	user time   =      17.09 seconds =       0.28 minutes
	system time =       0.33 seconds =       0.01 minutes
	total time  =         17 seconds =       0.28 minutes

*** tstart() called on n070
*** at Wed Sep 21 16:11:14 2022


         ------------------------------------------------------------
                                   SCF GRAD                          
                          Rob Parrish, Justin Turney,                
                       Andy Simmonett, and Alex Sokolov              
         ------------------------------------------------------------

  ==> Geometry <==

    Molecular point group: c1
    Full point group: C1

    Geometry (in Bohr), charge = 0, multiplicity = 1:

       Center              X                  Y                   Z               Mass       
    ------------   -----------------  -----------------  -----------------  -----------------
         C           -1.375029210000    -0.023209619500     0.000000453800    12.000000000000
         O            1.304282860900     0.125314203900     0.000000238900    15.994914619570
         H           -2.076523558000     1.909286400900    -0.000079949200     1.007825032230
         H           -2.109312195700    -0.980087723800     1.681853695200     1.007825032230
         H           -2.109305118800    -0.980218928500    -1.681781519100     1.007825032230
         H            1.942163061700    -1.581216452900    -0.000001329500     1.007825032230

  Nuclear repulsion =   40.297956784201979

  ==> Basis Set <==

  Basis Set: 6-31G*
    Blend: 6-31G*
    Number of shells: 20
    Number of basis function: 38
    Number of Cartesian functions: 38
    Spherical Harmonics?: false
    Max angular momentum: 2

  ==> DFJKGrad: Density-Fitted SCF Gradients <==

    Gradient:                    1
    J tasked:                  Yes
    K tasked:                  Yes
    wK tasked:                  No
    OpenMP threads:              1
    Integrals threads:           1
    Memory [MiB]:            10013
    Schwarz Cutoff:          0E+00
    Fitting Condition:       1E-10

   => Auxiliary Basis Set <=

  Basis Set: (6-31G* AUX)
    Blend: CC-PVDZ-JKFIT
    Number of shells: 84
    Number of basis function: 262
    Number of Cartesian functions: 262
    Spherical Harmonics?: false
    Max angular momentum: 3

  ==> DFT Potential <==

   => Composite Functional: B3LYP <= 

    B3LYP Hyb-GGA Exchange-Correlation Functional

    P. J. Stephens, F. J. Devlin, C. F. Chabalowski, and M. J. Frisch, J. Phys. Chem. 98, 11623 (1994)

    Deriv               =              1
    GGA                 =           TRUE
    Meta                =          FALSE

    Exchange Hybrid     =           TRUE
    MP2 Hybrid          =          FALSE

   => Exchange Functionals <=

    0.0800   Slater exchange
    0.7200         Becke 88

   => Exact (HF) Exchange <=

    0.2000               HF 

   => Correlation Functionals <=

    0.1900   Vosko, Wilk & Nusair (VWN5_RPA)
    0.8100   Lee, Yang & Parr

   => Molecular Quadrature <=

    Radial Scheme          =       TREUTLER
    Pruning Scheme         =           NONE
    Nuclear Scheme         =       TREUTLER

    BS radius alpha        =              1
    Pruning alpha          =              1
    Radial Points          =             99
    Spherical Points       =           1202
    Total Points           =         678849
    Total Blocks           =           4722
    Max Points             =            256
    Max Functions          =             38
    Weights Tolerance      =       1.00E-15


  -Total Gradient:
     Atom            X                  Y                   Z
    ------   -----------------  -----------------  -----------------
       1       -0.004685335824     0.000242937921     0.000000290856
       2        0.001587188068    -0.004142362125     0.000000251517
       3        0.001254215480    -0.003365993861    -0.000000079264
       4        0.001985465365     0.001627698902    -0.002798228808
       5        0.001985395279     0.001627866928     0.002797994609
       6       -0.002127016343     0.004009917832    -0.000000228913


*** tstop() called on n070 at Wed Sep 21 16:11:17 2022
Module time:
	user time   =       2.73 seconds =       0.05 minutes
	system time =       0.01 seconds =       0.00 minutes
	total time  =          3 seconds =       0.05 minutes
Total time:
	user time   =      19.82 seconds =       0.33 minutes
	system time =       0.34 seconds =       0.01 minutes
	total time  =         20 seconds =       0.33 minutes

    Psi4 stopped on: Wednesday, 21 September 2022 04:11PM
    Psi4 wall time for execution: 0:00:20.25

*** Psi4 exiting successfully. Buy a developer a beer!
